Title
82293
    1SAPS     N    1   2.956   5.768  11.056 -0.2354  0.1451  0.1404
    1SAPS   HN1    2   2.996   5.762  10.960 -1.8437 -0.2428 -0.5190
    1SAPS   HN2    3   2.884   5.694  11.059  0.1281 -0.3038 -1.9185
    1SAPS   HN3    4   2.916   5.863  11.065  2.9053  1.6669 -1.0926
    1SAPS   C12    5   3.072   5.748  11.143 -0.7953  0.6148 -0.0563
    1SAPS  H12A    6   3.148   5.819  11.111 -0.4070 -0.9256 -2.7082
    1SAPS   C13    7   3.042   5.796  11.289  0.2880  0.1531 -0.6061
    1SAPS  O13A    8   2.924   5.813  11.334 -0.1590 -0.2310  0.2320
    1SAPS  O13B    9   3.141   5.786  11.370 -0.4829  0.1734  0.0860
    1SAPS   C11   10   3.125   5.608  11.150  0.4541  0.0708 -0.3320
    1SAPS  H11A   11   3.046   5.549  11.200 -0.3130  0.1841 -1.3798
    1SAPS  H11B   12   3.214   5.600  11.216  0.0152 -0.1351  0.2261
    1SAPS     P   13   3.268   5.465  10.993 -0.1507  0.2283 -0.1433
    1SAPS   O13   14   3.373   5.545  10.919  0.1341  0.5820 -0.1731
    1SAPS   O14   15   3.312   5.393  11.113 -0.2481 -0.4920 -0.1265
    1SAPS   O12   16   3.143   5.551  11.023 -0.3666  0.3071 -0.6078
    1SAPS   O11   17   3.196   5.370  10.887 -0.5066  0.0062  0.4525
    1SAPS    C1   18   3.156   5.416  10.758 -0.6515  0.0637  0.4292
    1SAPS    HA   19   3.083   5.346  10.713  1.7914  0.2621 -4.1973
    1SAPS    HB   20   3.094   5.508  10.767 -2.2142 -0.8824 -0.5615
    1SAPS    C2   21   3.265   5.423  10.650  0.4875  0.2955 -0.4348
    1SAPS    HS   22   3.345   5.496  10.674  0.6460  0.3056 -0.9894
    1SAPS   O21   23   3.211   5.453  10.523  0.4567  0.3108  0.3209
    1SAPS   C21   24   3.223   5.577  10.481  0.5851 -0.5032 -0.3555
    1SAPS   O22   25   3.277   5.665  10.542  0.3934 -0.3170  0.7475
    1SAPS   C22   26   3.146   5.592  10.348 -0.5989 -0.0192 -0.4351
    1SAPS   H2R   27   3.138   5.492  10.301  0.2262  0.2375 -1.1183
    1SAPS   H2S   28   3.037   5.609  10.364 -0.7061 -0.5972 -0.5509
    1SAPS    C3   29   3.335   5.281  10.645 -0.0406 -0.0074  0.1774
    1SAPS    HX   30   3.255   5.203  10.647  1.1937 -1.3770 -1.5038
    1SAPS    HY   31   3.385   5.265  10.743  2.0622  0.8183 -0.7290
    1SAPS   O31   32   3.427   5.267  10.533  0.1266 -0.2034  0.3074
    1SAPS   C31   33   3.553   5.268  10.570  0.4748 -0.4810 -0.0841
    1SAPS   O32   34   3.595   5.277  10.687 -0.1253  0.3066  0.1952
    1SAPS   C32   35   3.645   5.261  10.444  0.0924  0.4950 -0.0474
    1SAPS   H2X   36   3.633   5.158  10.406  1.7547  0.9922 -2.0370
    1SAPS   H2Y   37   3.748   5.287  10.479  1.2168 -0.5429 -2.5179
    1SAPS   C23   38   3.198   5.696  10.254 -0.2892 -0.1587  0.1506
    1SAPS   H3R   39   3.215   5.788  10.313  2.4763 -1.4101  1.3780
    1SAPS   H3S   40   3.119   5.723  10.181  1.9700  2.9061 -1.2791
    1SAPS   C24   41   3.327   5.644  10.181 -0.4779  0.3280 -0.2292
    1SAPS   H4R   42   3.297   5.538  10.171  0.4283  0.1397 -1.0548
    1SAPS   H4S   43   3.417   5.633  10.246  1.2145  0.6404 -2.4692
    1SAPS   C25   44   3.358   5.712  10.048  0.6171  0.3110  0.4811
    1SAPS   H5R   45   3.433   5.790  10.032 -0.6773  1.3261 -0.7513
    1SAPS   C26   46   3.288   5.693   9.932  0.2794 -0.2745  0.7656
    1SAPS   H6R   47   3.326   5.745   9.843 -1.6185  0.2758  0.2554
    1SAPS   C27   48   3.164   5.609   9.928 -0.6590 -0.1377 -0.2519
    1SAPS   H7R   49   3.079   5.665   9.885  0.6066  1.4245 -0.7449
    1SAPS   H7S   50   3.134   5.582  10.032  1.1049 -0.6169  0.1558
    1SAPS   C28   51   3.184   5.477   9.852 -0.6000 -0.4101  0.0211
    1SAPS   H8R   52   3.183   5.393   9.923 -0.9137  0.7606  1.4396
    1SAPS   C29   53   3.217   5.450   9.718  0.2556  0.1100 -0.1641
    1SAPS   H9R   54   3.215   5.346   9.683 -0.3897  0.1404 -0.2367
    1SAPS  C210   55   3.225   5.559   9.611  0.2630 -0.2935 -0.0862
    1SAPS  H10R   56   3.177   5.654   9.642 -0.2242 -0.1026 -1.3845
    1SAPS  H10S   57   3.149   5.530   9.535  0.2058  0.5953 -0.3742
    1SAPS  C211   58   3.368   5.580   9.554 -0.0168 -0.1661  0.1911
    1SAPS  H11R   59   3.448   5.573   9.630  0.3289  1.0334 -0.0542
    1SAPS  C212   60   3.401   5.613   9.423  0.1812 -0.3314 -0.8248
    1SAPS  H12R   61   3.507   5.632   9.400  0.0378  0.1854 -1.0844
    1SAPS  C213   62   3.314   5.637   9.301  0.0209  0.2854 -0.5130
    1SAPS  H13R   63   3.375   5.630   9.208  0.2092  2.0520 -0.5589
    1SAPS  H13S   64   3.283   5.744   9.310 -3.0978 -0.5645 -0.6379
    1SAPS  C214   65   3.180   5.560   9.279  0.3395 -0.1584  0.1659
    1SAPS  H14R   66   3.164   5.482   9.354 -1.3104  0.0292  0.0311
    1SAPS  C215   67   3.095   5.563   9.171  0.1096  0.3097  0.2395
    1SAPS  H15R   68   3.006   5.498   9.166  0.8724 -0.8450  1.4614
    1SAPS  C216   69   3.113   5.648   9.043  0.3114  0.2545 -0.4281
    1SAPS  H16R   70   3.205   5.708   9.060  0.6720 -1.2670  3.4596
    1SAPS  H16S   71   3.020   5.707   9.025 -0.2414 -0.3709  0.3634
    1SAPS  C217   72   3.147   5.561   8.918 -0.3459 -0.0177  0.2396
    1SAPS  H17R   73   3.241   5.504   8.930 -0.0104  0.6976  1.0862
    1SAPS  H17S   74   3.154   5.628   8.830  0.3573 -0.6789 -0.2035
    1SAPS  C218   75   3.039   5.453   8.879  0.4170 -0.4090 -0.5252
    1SAPS  H18R   76   2.931   5.477   8.891  0.3865 -1.4312  1.5452
    1SAPS  H18S   77   3.055   5.370   8.951  1.9249  1.3984  1.2960
    1SAPS  C219   78   3.059   5.399   8.742 -0.3381  0.0793  0.3793
    1SAPS  H19R   79   3.166   5.372   8.730 -0.0094  0.6595  1.9809
    1SAPS  H19S   80   3.030   5.464   8.656  1.8984  0.5296 -0.0568
    1SAPS  C220   81   2.982   5.268   8.723  0.5711 -0.1380  0.3275
    1SAPS  H20R   82   2.882   5.300   8.685  0.4794 -0.1133  0.5893
    1SAPS  H20S   83   2.970   5.205   8.814 -1.7645  0.2911  0.3399
    1SAPS  H20T   84   3.032   5.211   8.641  0.8367  0.0454  0.3656
    1SAPS   C33   85   3.600   5.364  10.336  0.0225 -1.1457 -0.0916
    1SAPS   H3X   86   3.613   5.470  10.366  2.1520 -1.8952  1.7631
    1SAPS   H3Y   87   3.492   5.353  10.314 -0.0540 -1.1271  0.2702
    1SAPS   C34   88   3.667   5.331  10.197  0.3206 -0.0611 -0.7556
    1SAPS   H4X   89   3.640   5.228  10.165 -0.9776 -0.0183  0.1606
    1SAPS   H4Y   90   3.777   5.332  10.214  0.5992 -1.3722 -2.3470
    1SAPS   C35   91   3.619   5.433  10.094  0.2499  1.1129 -0.3414
    1SAPS   H5X   92   3.662   5.530  10.125  0.1711  1.4116 -1.1418
    1SAPS   H5Y   93   3.508   5.438  10.101  0.4132  2.7770  1.3995
    1SAPS   C36   94   3.674   5.392   9.955 -0.2658 -0.0868 -0.9659
    1SAPS   H6X   95   3.603   5.311   9.928 -0.8539  0.6098 -1.5091
    1SAPS   H6Y   96   3.779   5.354   9.958 -0.2921 -0.1573 -0.9064
    1SAPS   C37   97   3.681   5.503   9.853  0.0831 -0.2417 -0.0257
    1SAPS   H7X   98   3.753   5.579   9.889 -0.3153 -0.2533  0.8299
    1SAPS   H7Y   99   3.580   5.550   9.848 -0.3693 -1.1042  0.6585
    1SAPS   C38  100   3.708   5.444   9.717  0.6173  0.1825 -0.0731
    1SAPS   H8X  101   3.623   5.383   9.681 -0.0617  0.8872  0.3192
    1SAPS   H8Y  102   3.804   5.388   9.717 -0.3805 -1.5457  0.7820
    1SAPS   C39  103   3.743   5.542   9.606  0.0584  0.1262 -0.0477
    1SAPS   H9X  104   3.826   5.605   9.646  0.4579  0.1664 -0.9309
    1SAPS   H9Y  105   3.661   5.614   9.583  0.4167 -0.0408 -1.9174
    1SAPS  C310  106   3.770   5.467   9.478 -0.1649  0.2434  0.1652
    1SAPS  H10X  107   3.685   5.410   9.435  0.2528  0.6053 -1.1912
    1SAPS  H10Y  108   3.838   5.382   9.498  1.6840  0.7170 -3.5788
    1SAPS  C311  109   3.818   5.565   9.367 -0.1789  0.2139 -0.0736
    1SAPS  H11X  110   3.912   5.617   9.399 -0.5175  0.1261  1.1108
    1SAPS  H11Y  111   3.742   5.645   9.355  2.8675  3.2305 -0.0420
    1SAPS  C312  112   3.832   5.485   9.238 -0.0852  0.6252  1.2433
    1SAPS  H12X  113   3.836   5.568   9.164  3.4634 -1.0023 -0.5183
    1SAPS  H12Y  114   3.742   5.422   9.216  0.2699  0.3408  0.5809
    1SAPS  C313  115   3.957   5.395   9.225  0.5339 -0.2997 -0.2171
    1SAPS  H13X  116   3.940   5.327   9.311 -0.3631 -0.4703 -0.5269
    1SAPS  H13Y  117   4.051   5.445   9.258  1.0314 -2.2413  1.3964
    1SAPS  C314  118   3.971   5.328   9.085  0.8800 -0.0318  0.4785
    1SAPS  H14X  119   3.874   5.292   9.045  1.3342 -1.5628  0.7203
    1SAPS  H14Y  120   4.037   5.239   9.097  2.1585  0.9872  1.1764
    1SAPS  C315  121   4.035   5.427   8.985  0.0000 -0.2191  0.1292
    1SAPS  H15X  122   4.110   5.487   9.040 -2.3971  1.7253  1.3333
    1SAPS  H15Y  123   3.953   5.498   8.964 -1.7397 -1.3732  2.6370
    1SAPS  C316  124   4.080   5.365   8.857  0.1683 -0.1785 -0.6928
    1SAPS  H16X  125   3.991   5.333   8.799 -0.0609  0.4062 -0.6682
    1SAPS  H16Y  126   4.152   5.287   8.891  0.5470  1.0502  1.4244
    1SAPS  C317  127   4.150   5.469   8.761 -0.0229  0.2896  0.1217
    1SAPS  H17X  128   4.244   5.493   8.814  0.0310  1.0464 -0.3006
    1SAPS  H17Y  129   4.084   5.557   8.743 -0.9865 -0.1393  1.4969
    1SAPS  C318  130   4.184   5.406   8.625  0.2403  0.2415  0.1215
    1SAPS  H18X  131   4.236   5.482   8.562 -1.9479  0.1538 -1.8656
    1SAPS  H18Y  132   4.098   5.364   8.569 -1.0926  0.9519  1.6326
    1SAPS  H18Z  133   4.261   5.328   8.645  1.2298  1.5845  1.6595
    2SAPS     N  134   1.306   5.545  11.040 -0.0028 -0.1243 -0.6257
    2SAPS   HN1  135   1.244   5.537  10.958 -0.5393  2.9040 -0.5621
    2SAPS   HN2  136   1.405   5.556  11.009  0.0226 -0.1560 -0.5576
    2SAPS   HN3  137   1.311   5.456  11.095 -0.3307 -0.9739 -1.9435
    2SAPS   C12  138   1.266   5.660  11.125 -0.5080  0.8113  0.6776
    2SAPS  H12A  139   1.165   5.649  11.162 -1.1909 -2.5115 -1.8923
    2SAPS   C13  140   1.363   5.672  11.252 -0.7889 -0.3214 -0.2168
    2SAPS  O13A  141   1.457   5.594  11.266 -0.1751 -0.0669  0.3712
    2SAPS  O13B  142   1.340   5.764  11.332  0.2351  0.1174 -0.5057
    2SAPS   C11  143   1.280   5.787  11.041  0.0481  0.1589 -0.1324
    2SAPS  H11A  144   1.388   5.799  11.021  0.0977  0.6483  0.4294
    2SAPS  H11B  145   1.231   5.865  11.103 -0.5256 -1.2342  1.1854
    2SAPS     P  146   1.190   5.843  10.793 -0.0925 -0.0845 -0.4554
    2SAPS   O13  147   1.049   5.838  10.751  0.2474 -0.2440 -0.0480
    2SAPS   O14  148   1.253   5.970  10.811  0.4784 -0.7377  0.0794
    2SAPS   O12  149   1.204   5.758  10.922  0.0526  0.2428 -0.3040
    2SAPS   O11  150   1.273   5.755  10.681  0.5391 -0.2336 -0.4685
    2SAPS    C1  151   1.396   5.695  10.720  0.3777  0.2536 -0.4176
    2SAPS    HA  152   1.459   5.772  10.771  1.4183 -0.2250 -0.9713
    2SAPS    HB  153   1.376   5.617  10.797 -1.0542  1.2618  0.2660
    2SAPS    C2  154   1.461   5.619  10.598  0.1532  0.0195 -0.4074
    2SAPS    HS  155   1.554   5.563  10.624  1.2999  2.1247  0.2055
    2SAPS   O21  156   1.505   5.715  10.499 -0.5482  0.5037 -0.9630
    2SAPS   C21  157   1.599   5.801  10.528 -0.0429 -0.3743 -1.1950
    2SAPS   O22  158   1.652   5.811  10.640  0.2954 -0.4885 -0.4292
    2SAPS   C22  159   1.657   5.870  10.398  1.3236  0.3568 -0.9448
    2SAPS   H2R  160   1.714   5.791  10.344  0.2163  0.0534 -1.7046
    2SAPS   H2S  161   1.581   5.919  10.334  0.9264  0.1255 -0.6478
    2SAPS    C3  162   1.353   5.510  10.544  0.0194 -0.2513  0.3922
    2SAPS    HX  163   1.256   5.565  10.536 -0.3061 -0.8770 -0.0170
    2SAPS    HY  164   1.343   5.424  10.613 -0.9483 -1.0750 -0.7373
    2SAPS   O31  165   1.375   5.455  10.415 -0.2941  0.3315 -0.4659
    2SAPS   C31  166   1.348   5.528  10.311  0.8536 -0.0870  0.4357
    2SAPS   O32  167   1.283   5.631  10.314  0.5133  0.3322 -0.0748
    2SAPS   C32  168   1.426   5.482  10.191  0.4788 -0.2664 -0.2912
    2SAPS   H2X  169   1.493   5.402  10.228  0.2631 -1.3592 -2.2258
    2SAPS   H2Y  170   1.493   5.563  10.152 -0.1803 -0.0791 -1.0421
    2SAPS   C23  171   1.756   5.989  10.412 -0.1822  0.3236 -0.1996
    2SAPS   H3R  172   1.802   5.974  10.512 -0.8377  2.8575  0.5018
    2SAPS   H3S  173   1.705   6.087  10.419 -1.0241 -0.0846 -0.5313
    2SAPS   C24  174   1.868   5.990  10.305  0.2884 -0.0134 -0.7945
    2SAPS   H4R  175   1.924   5.893  10.306  1.6037  0.7330 -0.1962
    2SAPS   H4S  176   1.942   6.068  10.331  1.6976 -2.3976  2.8897
    2SAPS   C25  177   1.798   6.012  10.165 -0.0434 -0.1770 -0.3827
    2SAPS   H5R  178   1.749   6.110  10.154  0.0938  0.1342  1.7012
    2SAPS   C26  179   1.803   5.931  10.057  0.0906 -0.1671 -0.7517
    2SAPS   H6R  180   1.752   5.967   9.967 -1.6846 -1.8099 -0.4470
    2SAPS   C27  181   1.872   5.803  10.037 -0.1267 -0.1754  0.3534
    2SAPS   H7R  182   1.952   5.783  10.111 -0.4532  0.2194  0.8178
    2SAPS   H7S  183   1.911   5.796   9.933 -2.0580  1.5362 -0.5268
    2SAPS   C28  184   1.760   5.699  10.035  0.6377 -0.7435  0.6309
    2SAPS   H8R  185   1.723   5.667  10.133 -0.5709  1.4699  0.9237
    2SAPS   C29  186   1.693   5.650   9.939 -0.0316 -0.4840  0.2946
    2SAPS   H9R  187   1.604   5.587   9.956 -0.8649  0.3553 -0.8368
    2SAPS  C210  188   1.726   5.673   9.796  0.2991 -0.4256 -0.7553
    2SAPS  H10R  189   1.721   5.573   9.748  1.8535 -0.6074 -0.5891
    2SAPS  H10S  190   1.835   5.692   9.786  0.0427  1.6481  0.3004
    2SAPS  C211  191   1.648   5.779   9.727 -0.0556 -0.7256  0.2121
    2SAPS  H11R  192   1.594   5.851   9.791  1.6776 -0.2847  1.2113
    2SAPS  C212  193   1.640   5.787   9.596  0.9652 -0.2824  0.4031
    2SAPS  H12R  194   1.555   5.848   9.560  0.8242  0.3884  1.8585
    2SAPS  C213  195   1.713   5.704   9.493 -0.7238  0.2273  0.1244
    2SAPS  H13R  196   1.805   5.660   9.539 -0.7553  1.1021  1.0620
    2SAPS  H13S  197   1.775   5.774   9.433 -0.0285 -1.5130 -1.2140
    2SAPS  C214  198   1.616   5.610   9.427 -0.3052  0.1621 -0.5362
    2SAPS  H14R  199   1.603   5.517   9.484 -0.1001  0.3578 -0.1692
    2SAPS  C215  200   1.558   5.624   9.306 -0.2566  0.3367 -0.1832
    2SAPS  H15R  201   1.489   5.548   9.268 -2.4204  1.8607  0.5884
    2SAPS  C216  202   1.588   5.740   9.213  0.0909 -0.4772 -0.1079
    2SAPS  H16R  203   1.686   5.791   9.223 -0.2138 -0.0629  0.7328
    2SAPS  H16S  204   1.504   5.810   9.198 -0.9250 -1.9801 -1.7232
    2SAPS  C217  205   1.614   5.659   9.086  0.6788  0.3434  0.6030
    2SAPS  H17R  206   1.524   5.600   9.056  1.5998 -1.5983  1.6291
    2SAPS  H17S  207   1.702   5.592   9.090  2.2974  1.9307 -3.9679
    2SAPS  C218  208   1.640   5.750   8.956  0.5084  0.2193 -0.5618
    2SAPS  H18R  209   1.742   5.793   8.961  0.6863 -0.3543  0.9172
    2SAPS  H18S  210   1.566   5.833   8.959  1.3727  0.9854 -0.1854
    2SAPS  C219  211   1.613   5.688   8.815  0.4567  0.1483 -0.3987
    2SAPS  H19R  212   1.505   5.678   8.792  0.7083  0.9599 -2.0321
    2SAPS  H19S  213   1.658   5.587   8.808  0.8827  0.2256  0.9615
    2SAPS  C220  214   1.663   5.777   8.699  0.7097 -0.8279 -0.3680
    2SAPS  H20R  215   1.773   5.772   8.688  0.8056 -0.3516  0.3141
    2SAPS  H20S  216   1.634   5.881   8.725  0.5850 -0.3316 -2.4337
    2SAPS  H20T  217   1.616   5.742   8.605  0.2957 -2.6381  0.4970
    2SAPS   C33  218   1.330   5.424  10.085 -0.6102  0.4779 -0.1994
    2SAPS   H3X  219   1.265   5.347  10.132 -1.7704  2.1094  0.9183
    2SAPS   H3Y  220   1.397   5.366  10.018  1.0711  1.6070  0.4871
    2SAPS   C34  221   1.262   5.524   9.991 -0.0631  0.2510 -0.6402
    2SAPS   H4X  222   1.341   5.600   9.977  0.1941 -0.1762 -1.5455
    2SAPS   H4Y  223   1.181   5.568  10.053  2.3337 -0.7435  3.4441
    2SAPS   C35  224   1.212   5.463   9.862 -0.3047  0.1740  0.1301
    2SAPS   H5X  225   1.105   5.441   9.882 -0.6146  0.8252 -0.8062
    2SAPS   H5Y  226   1.271   5.370   9.842  1.7157  1.6089 -0.7514
    2SAPS   C36  227   1.229   5.554   9.746  0.0458  0.1506 -0.3684
    2SAPS   H6X  228   1.336   5.561   9.721  0.1676 -1.2800 -0.2837
    2SAPS   H6Y  229   1.181   5.652   9.770 -0.4121  0.1496 -1.2849
    2SAPS   C37  230   1.164   5.502   9.614  0.5088 -0.2916  0.4105
    2SAPS   H7X  231   1.055   5.486   9.625  0.2535 -0.4821 -2.2081
    2SAPS   H7Y  232   1.204   5.401   9.593  4.5865  0.9200  1.8226
    2SAPS   C38  233   1.195   5.587   9.485 -0.5405  0.1276 -0.2930
    2SAPS   H8X  234   1.305   5.578   9.468 -0.3754  2.6283 -0.6866
    2SAPS   H8Y  235   1.181   5.696   9.496  0.1665 -0.0383  2.6339
    2SAPS   C39  236   1.114   5.527   9.364 -0.3087  0.6364  1.2686
    2SAPS   H9X  237   1.008   5.552   9.388 -0.4735 -0.0876  1.2829
    2SAPS   H9Y  238   1.128   5.417   9.358  3.6651  1.1541 -0.5410
    2SAPS  C310  239   1.174   5.566   9.227  0.1957 -0.0900  0.7622
    2SAPS  H10X  240   1.283   5.543   9.226 -0.2429 -2.4906  3.1749
    2SAPS  H10Y  241   1.153   5.675   9.225  0.2779 -0.0893 -1.6773
    2SAPS  C311  242   1.109   5.505   9.103 -0.2947  0.7416  0.4148
    2SAPS  H11X  243   0.998   5.514   9.105 -0.2197  1.4668  2.2137
    2SAPS  H11Y  244   1.138   5.398   9.096 -0.5350  0.7642 -1.1534
    2SAPS  C312  245   1.177   5.585   8.989 -0.2938 -0.3079 -0.0879
    2SAPS  H12X  246   1.164   5.527   8.895  0.8277  0.4494 -0.7265
    2SAPS  H12Y  247   1.286   5.594   9.007 -0.5982  0.7732  1.2936
    2SAPS  C313  248   1.118   5.728   8.970  0.3643 -0.4878 -0.3989
    2SAPS  H13X  249   1.128   5.796   9.057  0.9932 -0.0743 -0.7819
    2SAPS  H13Y  250   1.008   5.719   8.955 -0.0620  1.4521  1.3168
    2SAPS  C314  251   1.186   5.796   8.848 -0.9031  0.5270  0.5096
    2SAPS  H14X  252   1.187   5.721   8.766  0.5538 -1.1818  2.0247
    2SAPS  H14Y  253   1.292   5.804   8.880 -0.5425  3.1960 -1.2566
    2SAPS  C315  254   1.114   5.925   8.801  0.1397  0.4763 -0.1092
    2SAPS  H15X  255   1.177   5.959   8.717 -1.7487  4.3072 -0.0765
    2SAPS  H15Y  256   1.114   5.997   8.886  0.4944 -0.1278  0.4095
    2SAPS  C316  257   0.975   5.913   8.735 -0.2979 -0.3044  0.0564
    2SAPS  H16X  258   0.907   5.861   8.806 -1.7363 -0.4422 -1.4055
    2SAPS  H16Y  259   0.983   5.861   8.637 -0.8474 -0.0861 -0.1003
    2SAPS  C317  260   0.912   6.053   8.705  0.7815 -0.3836 -0.3842
    2SAPS  H17X  261   0.934   6.117   8.793 -1.7899  2.0138 -1.4411
    2SAPS  H17Y  262   0.802   6.036   8.710  1.0850 -2.4379 -0.1732
    2SAPS  C318  263   0.957   6.124   8.575 -0.3650  0.9685 -0.1805
    2SAPS  H18X  264   0.880   6.199   8.547 -2.3703 -1.7800 -2.3219
    2SAPS  H18Y  265   0.955   6.043   8.498  1.2337  2.1986 -1.5518
    2SAPS  H18Z  266   1.059   6.167   8.581 -0.3061  0.7508  0.3891
    3SAPS     N  267   2.111   0.955  10.752 -0.5349  0.3582 -0.1592
    3SAPS   HN1  268   2.196   0.967  10.692 -0.7366  0.8763 -0.3479
    3SAPS   HN2  269   2.033   1.016  10.720  0.0295  0.1211 -2.0319
    3SAPS   HN3  270   2.141   0.978  10.849 -1.9964  1.6701  0.0032
    3SAPS   C12  271   2.059   0.819  10.747  0.1037 -0.1856 -0.7123
    3SAPS  H12A  272   2.038   0.790  10.645 -0.1734  1.5831 -1.1847
    3SAPS   C13  273   2.158   0.715  10.805 -0.8657 -0.2777  1.1948
    3SAPS  O13A  274   2.269   0.746  10.859  0.9388 -0.6173  0.3785
    3SAPS  O13B  275   2.127   0.597  10.810  0.2380  0.7965 -0.4204
    3SAPS   C11  276   1.918   0.818  10.837 -0.4538 -0.3024 -0.4189
    3SAPS  H11A  277   1.935   0.823  10.946  0.3004 -2.7460 -0.3911
    3SAPS  H11B  278   1.870   0.718  10.826  0.4720 -0.7745 -0.2765
    3SAPS     P  279   1.710   0.971  10.867 -0.2148 -0.0560 -0.3211
    3SAPS   O13  280   1.750   1.007  11.001 -0.3240 -0.1738 -0.4668
    3SAPS   O14  281   1.623   1.072  10.796 -0.2138  0.0436  0.3096
    3SAPS   O12  282   1.830   0.916  10.786  0.0233 -0.4079 -0.1732
    3SAPS   O11  283   1.640   0.835  10.887 -0.1085  0.1515  0.3765
    3SAPS    C1  284   1.530   0.775  10.813 -0.0188  0.8619  0.6592
    3SAPS    HA  285   1.498   0.679  10.860 -0.3102  0.0273 -1.1865
    3SAPS    HB  286   1.436   0.834  10.817 -1.0961 -0.8555  1.3081
    3SAPS    C2  287   1.562   0.731  10.666 -0.4970  0.7310 -0.4172
    3SAPS    HS  288   1.639   0.650  10.672  0.3688  1.5291 -0.5712
    3SAPS   O21  289   1.615   0.838  10.598 -0.6190 -0.5247  0.4713
    3SAPS   C21  290   1.732   0.828  10.537  0.4799  0.0446  0.6229
    3SAPS   O22  291   1.801   0.728  10.522  0.0992  0.0875 -0.2755
    3SAPS   C22  292   1.764   0.967  10.472  0.1689 -0.2225  0.0267
    3SAPS   H2R  293   1.676   1.033  10.465  0.0497 -0.4378 -0.4844
    3SAPS   H2S  294   1.829   1.018  10.548 -0.4496 -1.0470  1.1174
    3SAPS    C3  295   1.438   0.677  10.589  0.3862 -0.1372 -0.5653
    3SAPS    HX  296   1.364   0.750  10.629  0.1755  1.4481 -3.6946
    3SAPS    HY  297   1.417   0.575  10.625  0.9228  0.2043  0.7314
    3SAPS   O31  298   1.457   0.671  10.444  0.3366 -0.2105  0.0248
    3SAPS   C31  299   1.531   0.568  10.408 -0.5525  0.4470 -0.2438
    3SAPS   O32  300   1.580   0.481  10.482  0.2914  0.1204 -0.1719
    3SAPS   C32  301   1.553   0.574  10.254  0.3829  0.2545  0.0942
    3SAPS   H2X  302   1.512   0.482  10.207  1.1894 -0.5387  0.9244
    3SAPS   H2Y  303   1.663   0.582  10.238  0.5131  1.3573  1.4248
    3SAPS   C23  304   1.862   0.957  10.352  0.2273  0.0711  0.3671
    3SAPS   H3R  305   1.956   0.910  10.386 -0.3114 -1.1781  0.1615
    3SAPS   H3S  306   1.888   1.064  10.339  1.8375 -0.1750  1.4510
    3SAPS   C24  307   1.800   0.895  10.227 -0.4617 -0.4306  0.4011
    3SAPS   H4R  308   1.703   0.932  10.188  0.7164  0.7549 -1.4497
    3SAPS   H4S  309   1.780   0.788  10.252 -0.2000 -1.1067 -2.1105
    3SAPS   C25  310   1.902   0.881  10.121  0.1190  0.2902  0.1771
    3SAPS   H5R  311   1.971   0.797  10.137 -1.5862 -1.4610 -1.4841
    3SAPS   C26  312   1.898   0.945  10.000  0.0396 -0.2067  0.7927
    3SAPS   H6R  313   1.985   0.925   9.936  0.2051  1.9598  0.2936
    3SAPS   C27  314   1.804   1.048   9.939  0.9559 -0.1150  0.0136
    3SAPS   H7R  315   1.867   1.130   9.897  0.0239  1.4993  1.6617
    3SAPS   H7S  316   1.752   1.101  10.022  0.5985 -1.1922  0.4907
    3SAPS   C28  317   1.694   1.000   9.850 -0.3197 -0.2162  0.8144
    3SAPS   H8R  318   1.630   0.929   9.905 -3.6148  1.8789 -0.1702
    3SAPS   C29  319   1.660   1.040   9.723  0.3337 -0.0898 -0.9349
    3SAPS   H9R  320   1.580   0.988   9.668 -0.5054  0.1303  0.0734
    3SAPS  C210  321   1.734   1.138   9.638 -0.0545 -0.0039 -0.2325
    3SAPS  H10R  322   1.826   1.174   9.688  0.4731  0.2412 -1.3531
    3SAPS  H10S  323   1.666   1.225   9.631  2.1703  1.7332 -0.6513
    3SAPS  C211  324   1.773   1.083   9.500 -0.0576  0.7480 -0.4963
    3SAPS  H11R  325   1.824   0.986   9.507  0.1199  0.8441 -0.4718
    3SAPS  C212  326   1.757   1.148   9.385 -0.2161 -0.8615 -0.1475
    3SAPS  H12R  327   1.776   1.087   9.295  0.8813 -0.0930 -0.4449
    3SAPS  C213  328   1.701   1.286   9.359 -0.3090  0.0431 -0.1101
    3SAPS  H13R  329   1.787   1.355   9.360  0.3371 -0.7660  0.9464
    3SAPS  H13S  330   1.630   1.320   9.438 -1.2303 -1.4800 -0.2730
    3SAPS  C214  331   1.624   1.298   9.234  0.3428  1.0042  0.1888
    3SAPS  H14R  332   1.515   1.296   9.248  0.4228 -0.7276  0.6779
    3SAPS  C215  333   1.679   1.327   9.112  0.2810  0.2970  0.4438
    3SAPS  H15R  334   1.607   1.333   9.029 -1.9601  1.7918  2.4283
    3SAPS  C216  335   1.827   1.336   9.084 -0.4492  0.0013  0.4886
    3SAPS  H16R  336   1.885   1.292   9.168 -2.4064 -0.0755  1.8227
    3SAPS  H16S  337   1.855   1.439   9.054 -4.4007  1.2194  0.7061
    3SAPS  C217  338   1.865   1.264   8.956  0.2827 -0.2789  0.0129
    3SAPS  H17R  339   1.801   1.309   8.876  0.2400  0.6155  0.5455
    3SAPS  H17S  340   1.832   1.159   8.965  0.2429 -0.2078  0.6849
    3SAPS  C218  341   2.010   1.267   8.902  0.2598  0.1930 -0.0222
    3SAPS  H18R  342   2.049   1.371   8.896 -0.2506  0.3869 -0.0315
    3SAPS  H18S  343   2.016   1.221   8.801  1.2098 -0.9966  0.5578
    3SAPS  C219  344   2.097   1.190   9.002  0.1157  0.0809 -0.1718
    3SAPS  H19R  345   2.049   1.093   9.028  0.5488 -0.0175  0.2904
    3SAPS  H19S  346   2.108   1.249   9.096  1.0865  0.1206 -0.3065
    3SAPS  C220  347   2.240   1.168   8.953  0.4803  0.4436  1.2773
    3SAPS  H20R  348   2.289   1.267   8.945 -3.1301  2.1334 -0.9005
    3SAPS  H20S  349   2.240   1.116   8.855  0.3234  3.4754 -0.3629
    3SAPS  H20T  350   2.303   1.108   9.022  0.0302  0.0650  1.3641
    3SAPS   C33  351   1.488   0.695  10.176 -0.0471 -0.6191  0.0179
    3SAPS   H3X  352   1.529   0.797  10.196 -1.2829 -0.3496  1.2287
    3SAPS   H3Y  353   1.380   0.705  10.199  0.2087  0.1061  0.9358
    3SAPS   C34  354   1.492   0.670  10.025  0.9002  0.3567  1.0754
    3SAPS   H4X  355   1.453   0.569  10.000  0.6169  1.1158 -1.7855
    3SAPS   H4Y  356   1.600   0.664  10.001  0.9209 -0.2956  1.3322
    3SAPS   C35  357   1.415   0.769   9.939 -0.4216  0.8323 -0.4681
    3SAPS   H5X  358   1.437   0.873   9.972  0.0792  0.2825  0.9738
    3SAPS   H5Y  359   1.305   0.762   9.956 -0.4245 -0.9428 -1.1683
    3SAPS   C36  360   1.452   0.753   9.794  0.2952 -0.3560 -0.6820
    3SAPS   H6X  361   1.560   0.764   9.768  1.4653 -0.3084  3.8120
    3SAPS   H6Y  362   1.405   0.846   9.753  0.8319  0.3958  0.3827
    3SAPS   C37  363   1.390   0.632   9.727 -0.2946  0.3848  0.2315
    3SAPS   H7X  364   1.279   0.644   9.721 -0.3349 -0.2389 -0.3777
    3SAPS   H7Y  365   1.415   0.547   9.794 -0.2839 -3.1562 -4.0462
    3SAPS   C38  366   1.437   0.609   9.586  0.2687 -0.4514  0.2585
    3SAPS   H8X  367   1.370   0.536   9.537 -1.0726  0.3738  0.8339
    3SAPS   H8Y  368   1.543   0.575   9.584  0.1116 -1.0460  1.9020
    3SAPS   C39  369   1.426   0.737   9.495  1.0113 -0.1585  0.5016
    3SAPS   H9X  370   1.512   0.804   9.518  1.2773 -0.4015  0.2296
    3SAPS   H9Y  371   1.341   0.806   9.515  2.0174  1.5719 -1.0765
    3SAPS  C310  372   1.419   0.721   9.343 -0.5270 -0.5841  0.6609
    3SAPS  H10X  373   1.316   0.696   9.310 -0.0865  0.6129 -1.6908
    3SAPS  H10Y  374   1.496   0.645   9.317  1.0136  1.1757  0.0118
    3SAPS  C311  375   1.457   0.850   9.271  0.1261  0.1230 -0.1404
    3SAPS  H11X  376   1.568   0.844   9.263  0.0529 -1.8416 -0.0694
    3SAPS  H11Y  377   1.433   0.940   9.332 -1.8446 -1.2345  1.1543
    3SAPS  C312  378   1.395   0.857   9.125  0.3139 -0.2268 -0.1758
    3SAPS  H12X  379   1.407   0.961   9.088 -0.6673 -0.1712 -0.3655
    3SAPS  H12Y  380   1.285   0.857   9.143  0.2245 -2.1863 -0.6362
    3SAPS  C313  381   1.438   0.748   9.034  0.1290 -0.2106 -0.4604
    3SAPS  H13X  382   1.386   0.759   8.936 -3.6811  0.2870  1.5015
    3SAPS  H13Y  383   1.402   0.655   9.084 -2.1472  2.0423  2.2268
    3SAPS  C314  384   1.591   0.730   9.005  0.3962 -0.5528  0.3752
    3SAPS  H14X  385   1.606   0.656   8.923  2.7268  1.0120 -0.6189
    3SAPS  H14Y  386   1.649   0.701   9.095  0.9751  0.1772  0.2409
    3SAPS  C315  387   1.652   0.856   8.946 -0.0317  0.9024  0.1663
    3SAPS  H15X  388   1.616   0.943   9.006 -0.4514  0.9307 -0.1253
    3SAPS  H15Y  389   1.604   0.883   8.849 -2.0216  0.2677  0.9708
    3SAPS  C316  390   1.806   0.854   8.947  0.2776 -0.2877  0.4960
    3SAPS  H16X  391   1.840   0.811   9.043 -0.7166  0.2517  1.0912
    3SAPS  H16Y  392   1.844   0.958   8.941 -2.1675  0.5350 -1.1229
    3SAPS  C317  393   1.853   0.770   8.825  0.2707  0.1413 -0.4526
    3SAPS  H17X  394   1.845   0.834   8.734  0.8363 -0.4762 -0.9396
    3SAPS  H17Y  395   1.791   0.678   8.822  1.7941 -0.8922 -0.8625
    3SAPS  C318  396   1.999   0.732   8.842 -0.1145  0.0812 -0.0873
    3SAPS  H18X  397   2.008   0.674   8.937  1.2497  1.5522  0.6994
    3SAPS  H18Y  398   2.062   0.822   8.857  0.4499 -0.2179 -0.6744
    3SAPS  H18Z  399   2.042   0.680   8.754  1.3732  0.1341  0.5936
    4SAPS     N  400   3.270   1.482  11.181 -0.4956  0.3472 -0.1968
    4SAPS   HN1  401   3.366   1.451  11.205 -0.7783 -0.3520  0.0391
    4SAPS   HN2  402   3.220   1.528  11.261 -2.2552 -2.4266  0.3906
    4SAPS   HN3  403   3.203   1.407  11.155  0.5949 -1.1639  1.2030
    4SAPS   C12  404   3.287   1.576  11.061  0.1097 -0.6881  0.6258
    4SAPS  H12A  405   3.194   1.573  11.006  0.7684 -2.2650 -0.4563
    4SAPS   C13  406   3.329   1.722  11.107  0.0947  0.4062  0.1974
    4SAPS  O13A  407   3.341   1.739  11.230  0.3129  0.3707 -0.0017
    4SAPS  O13B  408   3.347   1.820  11.026 -0.5355 -0.1494  0.5460
    4SAPS   C11  409   3.388   1.512  10.961  0.1680  0.2467 -0.5832
    4SAPS  H11A  410   3.406   1.590  10.884  1.2041 -0.6326 -1.2508
    4SAPS  H11B  411   3.347   1.428  10.901 -2.0793  1.9906 -1.5797
    4SAPS     P  412   3.607   1.381  10.914  0.1364 -0.4834 -0.4030
    4SAPS   O13  413   3.747   1.415  10.941  0.5682 -0.1739 -0.4816
    4SAPS   O14  414   3.567   1.240  10.929 -0.0593 -0.1851  0.3875
    4SAPS   O12  415   3.521   1.485  11.012  1.2176  0.0681  0.4219
    4SAPS   O11  416   3.577   1.442  10.774  0.7137  0.5721 -0.1329
    4SAPS    C1  417   3.616   1.571  10.722 -0.5224 -0.1940 -0.5196
    4SAPS    HA  418   3.521   1.628  10.726 -0.9096 -0.9165  1.4334
    4SAPS    HB  419   3.693   1.614  10.789 -0.0441 -2.6361  0.5744
    4SAPS    C2  420   3.654   1.552  10.573  0.4553  0.2732 -0.1121
    4SAPS    HS  421   3.573   1.508  10.511  1.0459  0.6867 -1.1817
    4SAPS   O21  422   3.771   1.473  10.556  0.5493 -0.0347  0.2114
    4SAPS   C21  423   3.744   1.351  10.518 -0.2118  0.6458  0.7799
    4SAPS   O22  424   3.636   1.293  10.507 -0.1668  0.0425  0.4879
    4SAPS   C22  425   3.878   1.285  10.478  0.0980  0.4875  0.2894
    4SAPS   H2R  426   3.960   1.357  10.498 -0.5991  1.1732  0.7133
    4SAPS   H2S  427   3.873   1.200  10.550 -2.1219 -0.7287 -1.2284
    4SAPS    C3  428   3.671   1.691  10.514 -0.1037 -0.5878  0.4731
    4SAPS    HX  429   3.778   1.714  10.533  0.0037 -2.2358  2.0276
    4SAPS    HY  430   3.624   1.766  10.580 -0.2691  0.9114 -1.3053
    4SAPS   O31  431   3.629   1.678  10.374  0.5732  0.1910  0.1722
    4SAPS   C31  432   3.520   1.745  10.346  0.7372 -0.4197 -0.2794
    4SAPS   O32  433   3.452   1.809  10.423  0.0515 -0.2517 -0.6041
    4SAPS   C32  434   3.495   1.721  10.198 -0.2373  0.0868 -0.2080
    4SAPS   H2X  435   3.467   1.614  10.186  3.5740 -0.8967 -0.8187
    4SAPS   H2Y  436   3.592   1.734  10.146 -0.9156 -0.1343 -1.5836
    4SAPS   C23  437   3.876   1.235  10.335  0.2989  0.2772  0.6303
    4SAPS   H3R  438   3.781   1.183  10.310  1.2516 -0.0412 -2.5080
    4SAPS   H3S  439   3.959   1.161  10.326  2.0910  2.1821  1.0539
    4SAPS   C24  440   3.906   1.327  10.214  0.0479 -0.1369 -0.5627
    4SAPS   H4R  441   3.926   1.271  10.120  3.8356 -0.1388  0.1908
    4SAPS   H4S  442   3.998   1.387  10.232  0.9265 -1.2100 -1.4331
    4SAPS   C25  443   3.798   1.425  10.192 -0.0205  0.1250 -0.1817
    4SAPS   H5R  444   3.817   1.526  10.231  1.5701 -0.1419 -0.2488
    4SAPS   C26  445   3.685   1.391  10.139  0.6723 -0.2509 -0.0777
    4SAPS   H6R  446   3.605   1.466  10.135  0.0343 -0.7552  2.2898
    4SAPS   C27  447   3.632   1.261  10.078 -0.3470 -0.2810  0.1617
    4SAPS   H7R  448   3.533   1.278  10.031  0.9786  3.1225 -1.5662
    4SAPS   H7S  449   3.616   1.187  10.160  0.0574 -0.3053  0.2176
    4SAPS   C28  450   3.704   1.206   9.956 -0.5954 -0.5580  0.2589
    4SAPS   H8R  451   3.750   1.107   9.968  0.9399  0.4043  2.8152
    4SAPS   C29  452   3.712   1.269   9.839  1.1179 -0.1142 -0.0709
    4SAPS   H9R  453   3.751   1.221   9.748  0.5874  0.6263 -0.6918
    4SAPS  C210  454   3.647   1.393   9.806  0.2001 -0.4796  0.1472
    4SAPS  H10R  455   3.591   1.436   9.892 -0.6813  0.0213 -0.6628
    4SAPS  H10S  456   3.564   1.366   9.737  0.1981 -2.1793  0.7778
    4SAPS  C211  457   3.739   1.500   9.759 -0.1827 -1.2152 -0.1344
    4SAPS  H11R  458   3.844   1.506   9.788 -0.3205 -1.3377  0.3866
    4SAPS  C212  459   3.707   1.604   9.680  0.4789  0.9711 -0.2186
    4SAPS  H12R  460   3.793   1.663   9.644  0.1139  1.1755 -0.7623
    4SAPS  C213  461   3.572   1.635   9.623  0.7201  0.2440 -0.1290
    4SAPS  H13R  462   3.498   1.583   9.687  1.2426  1.4966  1.5266
    4SAPS  H13S  463   3.553   1.585   9.526 -3.5517  5.9166 -2.5666
    4SAPS  C214  464   3.550   1.784   9.621 -0.4688 -0.2632  0.4015
    4SAPS  H14R  465   3.567   1.839   9.714 -0.8332  1.2796 -0.4316
    4SAPS  C215  466   3.501   1.849   9.517 -0.0014 -0.4187  0.7454
    4SAPS  H15R  467   3.486   1.957   9.534 -2.3838 -0.4231 -0.9909
    4SAPS  C216  468   3.456   1.802   9.383 -0.4126 -0.2557 -0.7267
    4SAPS  H16R  469   3.345   1.812   9.380 -0.5297  2.3333  5.0788
    4SAPS  H16S  470   3.480   1.695   9.365  0.1699 -0.1424 -0.6361
    4SAPS  C217  471   3.513   1.889   9.266  0.0817  0.4834  0.2418
    4SAPS  H17R  472   3.498   1.825   9.177 -0.4111  2.3519 -1.0688
    4SAPS  H17S  473   3.622   1.905   9.278  0.3561 -0.3952 -1.0875
    4SAPS  C218  474   3.437   2.025   9.249  0.0875  0.1324 -0.0619
    4SAPS  H18R  475   3.432   2.077   9.347  3.6232 -0.8399  0.7156
    4SAPS  H18S  476   3.334   2.003   9.214 -0.3610 -3.1348  2.9136
    4SAPS  C219  477   3.504   2.116   9.141 -0.1722  0.9051  0.1382
    4SAPS  H19R  478   3.523   2.054   9.050 -0.5390 -0.0615  0.7120
    4SAPS  H19S  479   3.598   2.153   9.185  0.6974 -0.8758 -0.2078
    4SAPS  C220  480   3.423   2.237   9.095 -0.6139  0.2735 -0.8726
    4SAPS  H20R  481   3.321   2.202   9.071  0.0718 -1.4041 -1.4349
    4SAPS  H20S  482   3.471   2.292   9.012  0.4544  1.7072  0.6542
    4SAPS  H20T  483   3.409   2.315   9.173  0.2070  1.1449 -1.5806
    4SAPS   C33  484   3.383   1.802  10.128  0.1190 -0.2556  0.1493
    4SAPS   H3X  485   3.409   1.907  10.102 -3.0024  1.0742  2.1336
    4SAPS   H3Y  486   3.284   1.797  10.178 -0.0290  1.4926  0.0591
    4SAPS   C34  487   3.346   1.745   9.989 -0.0754  0.1429  0.2508
    4SAPS   H4X  488   3.320   1.637   9.991  1.7834 -0.3930 -2.5296
    4SAPS   H4Y  489   3.431   1.756   9.919 -0.1478 -0.3939  0.0748
    4SAPS   C35  490   3.236   1.822   9.915 -0.9679 -0.0703 -0.0796
    4SAPS   H5X  491   3.140   1.815   9.969 -1.1926  0.9294 -0.3423
    4SAPS   H5Y  492   3.213   1.769   9.820 -1.0556  0.8158 -0.5581
    4SAPS   C36  493   3.279   1.959   9.867 -0.0829 -0.0957  0.1410
    4SAPS   H6X  494   3.386   1.958   9.838 -0.0723 -0.5472  0.1867
    4SAPS   H6Y  495   3.264   2.032   9.949  0.7108 -0.4709  0.6290
    4SAPS   C37  496   3.197   2.001   9.743 -0.2582  0.0975 -0.7881
    4SAPS   H7X  497   3.091   1.988   9.772  0.2918  1.1885  1.8991
    4SAPS   H7Y  498   3.228   1.928   9.665 -2.4017  0.2077 -1.7719
    4SAPS   C38  499   3.228   2.147   9.681  0.0974  0.0377 -0.0641
    4SAPS   H8X  500   3.334   2.143   9.649  0.1475 -0.3705  0.1573
    4SAPS   H8Y  501   3.217   2.217   9.767  0.7776  0.6625 -0.4737
    4SAPS   C39  502   3.137   2.180   9.567  0.4125  0.2377 -0.2550
    4SAPS   H9X  503   3.166   2.281   9.529  0.7472  0.6426  1.0467
    4SAPS   H9Y  504   3.031   2.189   9.598 -0.6250 -0.7187 -3.3327
    4SAPS  C310  505   3.141   2.084   9.445 -0.2704 -0.0836 -0.3450
    4SAPS  H10X  506   3.052   2.019   9.462 -0.2968  0.6730  2.8429
    4SAPS  H10Y  507   3.237   2.029   9.438 -2.1366 -3.6513  0.8011
    4SAPS  C311  508   3.114   2.146   9.310  0.3836 -0.1025 -0.5281
    4SAPS  H11X  509   3.213   2.179   9.271  1.2324  1.0735  2.4506
    4SAPS  H11Y  510   3.059   2.242   9.324  0.0046 -0.4636  0.4795
    4SAPS  C312  511   3.047   2.048   9.216  0.5866 -0.3192  0.2207
    4SAPS  H12X  512   2.952   2.016   9.263  1.1709 -1.1222  0.8652
    4SAPS  H12Y  513   3.109   1.957   9.206  1.0672  0.0595 -0.3154
    4SAPS  C313  514   3.019   2.104   9.069  0.3633 -0.0842  0.6221
    4SAPS  H13X  515   3.108   2.155   9.025 -0.5368  0.8922 -0.0857
    4SAPS  H13Y  516   2.947   2.188   9.077 -0.1333 -0.3857 -0.5108
    4SAPS  C314  517   2.960   2.016   8.972 -0.2652 -0.5851 -0.1462
    4SAPS  H14X  518   2.874   1.965   9.019 -0.7591  2.3314  2.2421
    4SAPS  H14Y  519   3.040   1.944   8.943 -0.6276 -0.0190 -2.6400
    4SAPS  C315  520   2.919   2.089   8.850 -0.7629  0.2675 -0.4122
    4SAPS  H15X  521   2.844   2.168   8.873  0.4931  1.3835 -0.1304
    4SAPS  H15Y  522   2.868   2.017   8.782  0.4957  0.7517 -1.8853
    4SAPS  C316  523   3.032   2.151   8.763 -0.6435  0.1179 -0.0178
    4SAPS  H16X  524   3.124   2.092   8.783 -0.3686  0.5010 -0.1565
    4SAPS  H16Y  525   3.050   2.247   8.817  0.1146  0.0166 -0.0820
    4SAPS  C317  526   2.999   2.184   8.620  0.6571 -0.5491  0.2374
    4SAPS  H17X  527   2.897   2.228   8.611  2.0335  2.0700 -3.8651
    4SAPS  H17Y  528   3.015   2.088   8.566 -2.8184 -0.7813 -0.5343
    4SAPS  C318  529   3.090   2.287   8.557 -0.3059  0.1073  0.5154
    4SAPS  H18X  530   3.048   2.315   8.459 -0.7720 -2.8286 -0.1770
    4SAPS  H18Y  531   3.195   2.252   8.547 -0.6304 -0.3554 -1.2969
    4SAPS  H18Z  532   3.092   2.382   8.615 -1.5426  0.1465  0.5069
    5SAPS     N  533   0.298   0.410  10.754  0.3634  0.1667 -0.2401
    5SAPS   HN1  534   0.200   0.432  10.726 -0.3641 -2.1445  0.4391
    5SAPS   HN2  535   0.360   0.432  10.673  0.6647  2.2650  0.5190
    5SAPS   HN3  536   0.299   0.308  10.773  1.0967  0.3285  0.6224
    5SAPS   C12  537   0.319   0.497  10.875 -1.0939 -0.5305  0.2744
    5SAPS  H12A  538   0.366   0.591  10.847 -0.2751 -0.4493  1.8899
    5SAPS   C13  539   0.191   0.527  10.950  0.3632  1.0817 -1.1769
    5SAPS  O13A  540   0.080   0.478  10.910  0.3377  0.4884  0.7894
    5SAPS  O13B  541   0.195   0.602  11.051  0.5139 -0.3086 -0.1016
    5SAPS   C11  542   0.417   0.424  10.972  0.5347  0.1157  1.2477
    5SAPS  H11A  543   0.362   0.336  11.012 -2.7809  1.0923 -0.9877
    5SAPS  H11B  544   0.427   0.491  11.060  1.6165  1.7813 -0.1239
    5SAPS     P  545   0.660   0.486  10.915  0.2799 -0.4257 -0.3406
    5SAPS   O13  546   0.670   0.527  11.059 -0.2572 -0.1763 -0.2232
    5SAPS   O14  547   0.785   0.431  10.857  0.4203 -0.0055  0.2733
    5SAPS   O12  548   0.541   0.383  10.909  0.2403 -0.2937 -0.3071
    5SAPS   O11  549   0.603   0.610  10.832  0.0427 -0.1160  0.4746
    5SAPS    C1  550   0.675   0.667  10.722  0.4802 -0.5585 -0.5150
    5SAPS    HA  551   0.734   0.591  10.665 -1.0693 -1.3920 -1.0616
    5SAPS    HB  552   0.598   0.711  10.654  0.5692  1.2421  0.5196
    5SAPS    C2  553   0.753   0.798  10.762 -0.2356 -0.2532  0.1194
    5SAPS    HS  554   0.697   0.835  10.850 -1.4742  2.5269 -1.7504
    5SAPS   O21  555   0.743   0.886  10.649 -0.2755 -0.1416  0.5619
    5SAPS   C21  556   0.776   1.014  10.681  0.0080  1.1542  0.3306
    5SAPS   O22  557   0.792   1.060  10.791  1.0449 -0.6061 -0.0775
    5SAPS   C22  558   0.819   1.074  10.556 -0.0656 -0.2682  0.9081
    5SAPS   H2R  559   0.872   1.171  10.570 -1.1833  0.1490  2.3796
    5SAPS   H2S  560   0.894   1.005  10.511  0.2099  1.3167 -1.1645
    5SAPS    C3  561   0.897   0.780  10.804  0.1490 -0.2481  0.0257
    5SAPS    HX  562   0.890   0.717  10.895 -3.4384 -2.4086 -1.6223
    5SAPS    HY  563   0.951   0.869  10.842 -0.0618  1.2294 -3.0246
    5SAPS   O31  564   0.960   0.698  10.697 -0.3796 -0.4028 -0.7032
    5SAPS   C31  565   1.035   0.769  10.614  0.4003 -0.4068  0.0205
    5SAPS   O32  566   1.080   0.881  10.639  0.4114 -0.0737 -0.4236
    5SAPS   C32  567   1.042   0.693  10.482 -0.6624 -0.3740 -0.0512
    5SAPS   H2X  568   0.938   0.674  10.449 -0.8355 -0.7234  0.7019
    5SAPS   H2Y  569   1.090   0.597  10.510 -1.1999  0.0453  2.3891
    5SAPS   C23  570   0.705   1.094  10.461 -0.3318  0.2814  0.5358
    5SAPS   H3R  571   0.630   1.164  10.502 -0.9985  0.4334 -0.8867
    5SAPS   H3S  572   0.667   0.990  10.446 -1.1850  0.9224 -2.0147
    5SAPS   C24  573   0.743   1.162  10.321  0.0544  0.5564 -0.0109
    5SAPS   H4R  574   0.661   1.177  10.248  3.8117  1.4917 -4.2284
    5SAPS   H4S  575   0.821   1.096  10.278 -0.3869 -0.3760  0.5912
    5SAPS   C25  576   0.799   1.295  10.350 -0.5525  0.4370 -0.2841
    5SAPS   H5R  577   0.810   1.329  10.454 -1.1937 -0.4829  0.0927
    5SAPS   C26  578   0.813   1.387  10.249 -0.4785  0.7805 -0.4191
    5SAPS   H6R  579   0.841   1.491  10.275  1.7244  0.1342 -0.1369
    5SAPS   C27  580   0.783   1.372  10.107 -0.1631 -0.8296 -0.3288
    5SAPS   H7R  581   0.797   1.468  10.053 -2.1433 -0.3339 -0.0133
    5SAPS   H7S  582   0.672   1.360  10.112 -0.0966 -0.6766  2.1205
    5SAPS   C28  583   0.844   1.257  10.024  0.4789 -0.3798 -0.4912
    5SAPS   H8R  584   0.943   1.215  10.047  1.9065  2.0477 -1.8760
    5SAPS   C29  585   0.784   1.198   9.918  0.6304 -0.0842  0.5583
    5SAPS   H9R  586   0.833   1.120   9.859 -3.0447 -3.1590  1.3357
    5SAPS  C210  587   0.648   1.239   9.864  0.0534  0.2096  0.0398
    5SAPS  H10R  588   0.572   1.239   9.945 -0.6290 -0.4645 -0.5980
    5SAPS  H10S  589   0.607   1.165   9.793 -2.1699 -0.9201  2.4251
    5SAPS  C211  590   0.642   1.372   9.786 -0.3504  0.2417 -0.4229
    5SAPS  H11R  591   0.623   1.459   9.850  1.5667  1.4358 -1.4306
    5SAPS  C212  592   0.651   1.389   9.656 -0.2231  0.1730  1.0186
    5SAPS  H12R  593   0.652   1.488   9.609 -0.4698  0.0594  0.7692
    5SAPS  C213  594   0.672   1.278   9.552  0.2705  0.0969 -0.5701
    5SAPS  H13R  595   0.596   1.274   9.471  0.8648  0.3579 -1.1458
    5SAPS  H13S  596   0.648   1.177   9.592  0.1632 -0.2970 -1.6061
    5SAPS  C214  597   0.816   1.281   9.498  0.1768 -0.2466 -0.2030
    5SAPS  H14R  598   0.898   1.268   9.570 -0.8520  0.9468  1.2138
    5SAPS  C215  599   0.848   1.292   9.369 -0.1860 -0.3611  0.0319
    5SAPS  H15R  600   0.956   1.301   9.350 -0.1591 -0.3679  0.1758
    5SAPS  C216  601   0.760   1.317   9.250  0.0462  0.4810  0.7384
    5SAPS  H16R  602   0.701   1.411   9.254  0.5794  0.7551  2.8328
    5SAPS  H16S  603   0.691   1.231   9.239 -0.3444  1.0660 -1.6040
    5SAPS  C217  604   0.847   1.336   9.122 -0.4692 -0.1910 -0.1908
    5SAPS  H17R  605   0.919   1.420   9.129 -0.4973 -0.1809 -0.0220
    5SAPS  H17S  606   0.769   1.365   9.048 -1.9495 -0.2704  1.2970
    5SAPS  C218  607   0.917   1.204   9.098 -0.4415  0.1740  0.2813
    5SAPS  H18R  608   0.948   1.152   9.191 -2.9880  0.3584  1.2733
    5SAPS  H18S  609   0.849   1.132   9.047 -0.9843  1.0556 -0.2404
    5SAPS  C219  610   1.059   1.218   9.026 -0.0105 -0.0253 -0.0747
    5SAPS  H19R  611   1.121   1.284   9.090 -1.2580 -0.2660  1.4141
    5SAPS  H19S  612   1.041   1.263   8.926 -2.4564 -0.4377  0.1505
    5SAPS  C220  613   1.132   1.079   9.020  0.0337 -0.0158  0.8517
    5SAPS  H20R  614   1.065   0.994   8.997  2.0213 -1.6962  1.0815
    5SAPS  H20S  615   1.178   1.057   9.119  0.3220 -3.8575 -0.0748
    5SAPS  H20T  616   1.219   1.080   8.951  0.3827  2.0498  1.2749
    5SAPS   C33  617   1.123   0.760  10.365  0.9167  0.6037 -0.0851
    5SAPS   H3X  618   1.231   0.735  10.379  0.1404 -2.5325  0.6563
    5SAPS   H3Y  619   1.110   0.871  10.368  1.8905  0.7235  0.2285
    5SAPS   C34  620   1.067   0.724  10.228  0.2676 -0.0243 -0.2809
    5SAPS   H4X  621   1.049   0.615  10.225  2.4442 -0.5284  2.3879
    5SAPS   H4Y  622   1.140   0.758  10.152 -0.0091  0.4095 -0.3576
    5SAPS   C35  623   0.934   0.795  10.198 -0.9274  0.0906 -0.5041
    5SAPS   H5X  624   0.936   0.902  10.226  0.1008 -0.1134  0.2265
    5SAPS   H5Y  625   0.856   0.745  10.259  0.1371 -0.6282  0.2809
    5SAPS   C36  626   0.886   0.782  10.053 -0.6202 -0.1130 -0.6443
    5SAPS   H6X  627   0.785   0.830  10.059  1.3341  3.9669  2.4852
    5SAPS   H6Y  628   0.878   0.673  10.035 -0.9953 -0.2843  0.4730
    5SAPS   C37  629   0.971   0.841   9.939 -0.0859  0.5170 -0.3144
    5SAPS   H7X  630   1.075   0.803   9.951 -1.8131 -3.4271  4.0174
    5SAPS   H7Y  631   0.983   0.949   9.958  1.3097  0.5295 -1.1800
    5SAPS   C38  632   0.917   0.814   9.799  0.6537 -0.1815  0.1700
    5SAPS   H8X  633   0.815   0.855   9.792  1.7853  3.0554  1.6292
    5SAPS   H8Y  634   0.909   0.704   9.782 -0.5974  0.1842 -1.7384
    5SAPS   C39  635   1.010   0.882   9.701  0.2830 -0.2068  0.3512
    5SAPS   H9X  636   1.109   0.831   9.703  2.9515  4.6540  0.4989
    5SAPS   H9Y  637   1.039   0.987   9.724  2.4112 -0.7560  0.2918
    5SAPS  C310  638   0.956   0.864   9.561  0.6807  0.5384  0.7981
    5SAPS  H10X  639   0.855   0.908   9.563 -0.0367 -1.1075  1.5441
    5SAPS  H10Y  640   0.935   0.755   9.565  1.0082  0.3728 -1.3318
    5SAPS  C311  641   1.043   0.914   9.448  0.6444 -0.0010  0.3457
    5SAPS  H11X  642   1.144   0.872   9.429  0.0087 -0.6362 -1.6839
    5SAPS  H11Y  643   1.057   1.024   9.457 -1.9128  0.2856  1.4201
    5SAPS  C312  644   0.972   0.869   9.317 -0.1626 -0.6493 -0.2888
    5SAPS  H12X  645   1.000   0.941   9.237 -0.8794 -0.2557 -0.1922
    5SAPS  H12Y  646   0.863   0.887   9.331 -0.0644 -0.2776 -0.0086
    5SAPS  C313  647   1.006   0.723   9.269 -0.2188  0.2133 -0.1964
    5SAPS  H13X  648   0.946   0.651   9.328 -0.6610 -0.6806 -1.6986
    5SAPS  H13Y  649   1.112   0.698   9.287 -0.3680  0.0779  0.5103
    5SAPS  C314  650   0.977   0.699   9.123  0.0820 -0.0016 -0.0745
    5SAPS  H14X  651   1.018   0.781   9.060 -0.2204 -0.4057 -0.8087
    5SAPS  H14Y  652   0.867   0.703   9.107  0.3198  2.2417 -1.4399
    5SAPS  C315  653   1.034   0.561   9.067  0.2190 -0.3628  0.4000
    5SAPS  H15X  654   1.013   0.469   9.127  1.1401  0.1028  1.4642
    5SAPS  H15Y  655   1.145   0.568   9.065  0.1565  0.2847 -1.2521
    5SAPS  C316  656   0.991   0.533   8.924 -0.0597  0.2010  0.5155
    5SAPS  H16X  657   0.880   0.533   8.914 -0.0219 -2.5570 -0.1359
    5SAPS  H16Y  658   1.035   0.432   8.913 -0.9104  0.1971 -3.9300
    5SAPS  C317  659   1.055   0.637   8.818 -0.7016 -0.1166 -0.0746
    5SAPS  H17X  660   1.159   0.658   8.848 -0.3842 -2.3299  0.4361
    5SAPS  H17Y  661   0.982   0.720   8.835 -3.1330 -1.9546 -1.1718
    5SAPS  C318  662   1.038   0.579   8.681 -0.1229 -0.0601  0.2723
    5SAPS  H18X  663   1.111   0.497   8.661  1.8278  1.7273 -0.1280
    5SAPS  H18Y  664   1.055   0.664   8.611 -0.7450 -0.6122 -0.5617
    5SAPS  H18Z  665   0.938   0.535   8.663 -0.4994  0.9807 -0.2090
    6SAPS     N  666   6.702   0.163  10.471 -0.7255  0.1311  0.8178
    6SAPS   HN1  667   6.805   0.150  10.466 -0.7107  1.1584 -2.6152
    6SAPS   HN2  668   6.649   0.087  10.423  0.4287 -0.3167  0.2290
    6SAPS   HN3  669   6.679   0.248  10.417 -0.4934 -1.6142 -2.1207
    6SAPS   C12  670   6.652   0.172  10.614 -0.9136  0.3669  0.6185
    6SAPS  H12A  671   6.682   0.266  10.657  2.9473 -0.1970 -0.6412
    6SAPS   C13  672   6.497   0.165  10.622  0.0316  0.3053  0.1932
    6SAPS  O13A  673   6.432   0.153  10.517  0.4957 -0.0519 -0.7798
    6SAPS  O13B  674   6.439   0.187  10.730 -0.2575 -0.1873  0.5801
    6SAPS   C11  675   6.720   0.053  10.687 -0.3311  0.1232  0.0613
    6SAPS  H11A  676   6.722  -0.036  10.621  0.3569  0.9225 -1.0274
    6SAPS  H11B  677   6.648   0.031  10.769  1.0696  3.2262  2.2365
    6SAPS     P  678   6.992   0.048  10.679  0.5759  0.6992 -0.0318
    6SAPS   O13  679   7.089   0.141  10.744 -0.6841  1.0632  0.3222
    6SAPS   O14  680   7.023  -0.095  10.693  0.4445  0.2458  0.8836
    6SAPS   O12  681   6.851   0.083  10.747  0.2075  0.1486 -0.1001
    6SAPS   O11  682   6.968   0.080  10.531  0.1872  0.3539 -0.1609
    6SAPS    C1  683   7.086   0.117  10.469  0.0482 -0.1160 -0.0534
    6SAPS    HA  684   7.129   0.212  10.507 -0.2676 -0.3057  0.7745
    6SAPS    HB  685   7.169   0.043  10.473  0.8232  0.7490  0.2601
    6SAPS    C2  686   7.061   0.126  10.313  0.3345 -0.1723 -0.3591
    6SAPS    HS  687   7.160   0.152  10.269  0.5481 -2.0469 -1.0374
    6SAPS   O21  688   6.964   0.219  10.268 -0.0467  0.6799 -0.3132
    6SAPS   C21  689   7.008   0.344  10.278  0.0287  0.6494 -0.9246
    6SAPS   O22  690   7.115   0.384  10.318 -0.3635  0.7655 -0.3277
    6SAPS   C22  691   6.907   0.435  10.216 -0.8457  0.3564  0.2148
    6SAPS   H2R  692   6.826   0.376  10.169  1.0415 -0.6834 -1.8599
    6SAPS   H2S  693   6.865   0.497  10.298 -2.7437 -2.1217  1.1798
    6SAPS    C3  694   7.023  -0.024  10.261 -0.2096  0.2110 -1.4883
    6SAPS    HX  695   6.935  -0.054  10.322  1.8397  0.9696  1.9223
    6SAPS    HY  696   7.107  -0.096  10.277 -0.0308  0.3759 -1.6921
    6SAPS   O31  697   6.989  -0.017  10.123 -0.3958 -0.3848  0.8138
    6SAPS   C31  698   7.090  -0.008  10.045 -0.0502 -0.0337 -0.1044
    6SAPS   O32  699   7.208   0.008  10.081  0.1241 -0.4582  0.1270
    6SAPS   C32  700   7.044  -0.010   9.905 -0.2671  0.3395  0.4504
    6SAPS   H2X  701   6.949   0.045   9.891  0.1108  1.3507  1.7483
    6SAPS   H2Y  702   7.037  -0.109   9.855  0.5939  1.3781 -1.7958
    6SAPS   C23  703   6.960   0.537  10.108  0.4382  0.1412 -0.3825
    6SAPS   H3R  704   7.027   0.613  10.154 -0.7155  0.5714  0.6036
    6SAPS   H3S  705   6.868   0.591  10.074  1.2138  1.0690 -1.0407
    6SAPS   C24  706   7.010   0.457   9.986 -0.1191  0.3946 -0.0071
    6SAPS   H4R  707   7.078   0.376  10.018 -0.5956  0.3651  0.9594
    6SAPS   H4S  708   7.077   0.524   9.928 -0.4029  0.5320 -0.1781
    6SAPS   C25  709   6.914   0.384   9.896  0.1741 -0.4595  0.3088
    6SAPS   H5R  710   6.888   0.283   9.930 -0.3183  0.9150  4.2505
    6SAPS   C26  711   6.884   0.428   9.769  0.3527 -0.5430 -0.6195
    6SAPS   H6R  712   6.820   0.368   9.702 -0.2584  0.7410 -1.1995
    6SAPS   C27  713   6.930   0.552   9.699  0.0617  0.2884  0.1562
    6SAPS   H7R  714   6.945   0.638   9.768  1.0977  1.6740 -1.7507
    6SAPS   H7S  715   6.850   0.598   9.637  0.1522  1.5418  0.9476
    6SAPS   C28  716   7.072   0.543   9.640 -0.6176 -0.8949  0.1751
    6SAPS   H8R  717   7.149   0.509   9.711 -1.3076  1.7298  2.2162
    6SAPS   C29  718   7.105   0.573   9.517 -0.6557 -0.7662  0.0778
    6SAPS   H9R  719   7.212   0.559   9.493 -0.6350  0.2850 -0.4618
    6SAPS  C210  720   7.018   0.622   9.401  0.4249  0.2688  0.7104
    6SAPS  H10R  721   7.070   0.703   9.345 -0.2128  1.5008  1.8772
    6SAPS  H10S  722   6.922   0.669   9.429 -0.5381 -1.4966  0.4363
    6SAPS  C211  723   6.977   0.500   9.321  0.2982  0.2737 -0.2220
    6SAPS  H11R  724   6.922   0.425   9.380  0.3484 -0.0581 -0.5958
    6SAPS  C212  725   6.993   0.479   9.188  0.4804 -0.4822  0.3407
    6SAPS  H12R  726   6.962   0.378   9.158 -1.0810  0.5492 -1.6512
    6SAPS  C213  727   7.055   0.568   9.084  0.0380 -0.0866  0.6447
    6SAPS  H13R  728   7.092   0.662   9.130 -0.5123 -0.2032  1.3384
    6SAPS  H13S  729   6.976   0.601   9.013  1.7059 -0.5545 -1.4699
    6SAPS  C214  730   7.162   0.498   9.002 -0.6468 -0.1237  0.3951
    6SAPS  H14R  731   7.245   0.449   9.054 -0.5276  1.0126  1.3079
    6SAPS  C215  732   7.169   0.497   8.865  0.6258  0.8146  0.0620
    6SAPS  H15R  733   7.245   0.436   8.813 -0.7896  0.6037 -1.7821
    6SAPS  C216  734   7.068   0.552   8.767  0.0311 -0.2122  0.2593
    6SAPS  H16R  735   7.113   0.592   8.674 -1.6701  0.8763 -0.1303
    6SAPS  H16S  736   7.017   0.644   8.803 -0.9820 -0.6193 -0.1169
    6SAPS  C217  737   6.963   0.453   8.719 -0.1317  0.3598 -0.2132
    6SAPS  H17R  738   6.913   0.411   8.809  1.0090 -1.8127 -0.5633
    6SAPS  H17S  739   7.017   0.375   8.662 -0.3858 -0.0111  0.0519
    6SAPS  C218  740   6.869   0.526   8.630  0.0962 -0.3033 -0.0767
    6SAPS  H18R  741   6.921   0.596   8.561 -2.1182 -0.9584 -2.4851
    6SAPS  H18S  742   6.791   0.584   8.684  0.5162  1.4827 -1.3237
    6SAPS  C219  743   6.797   0.430   8.535  0.2248 -0.8462  0.0827
    6SAPS  H19R  744   6.857   0.379   8.456 -1.8188 -1.7868 -0.9287
    6SAPS  H19S  745   6.723   0.483   8.471 -1.2724 -0.3788  2.1479
    6SAPS  C220  746   6.714   0.325   8.602  0.1205 -0.0643  0.3551
    6SAPS  H20R  747   6.645   0.349   8.686  2.2914 -0.5748  2.3445
    6SAPS  H20S  748   6.779   0.247   8.647  2.1769  1.0953 -0.5454
    6SAPS  H20T  749   6.653   0.275   8.524  0.7028 -0.6826  0.2890
    6SAPS   C33  750   7.156   0.062   9.812  0.0685 -0.2319 -0.5437
    6SAPS   H3X  751   7.260   0.025   9.818  0.1378  0.2126  1.7413
    6SAPS   H3Y  752   7.157   0.172   9.830 -0.9096 -0.7801  3.3879
    6SAPS   C34  753   7.122   0.060   9.659 -0.1080 -0.2344 -0.1856
    6SAPS   H4X  754   7.025   0.108   9.634  0.2115  3.1185  4.3168
    6SAPS   H4Y  755   7.123  -0.048   9.631  0.6002 -0.0156 -1.0069
    6SAPS   C35  756   7.228   0.133   9.570 -0.3527  0.1565  0.1030
    6SAPS   H5X  757   7.330   0.092   9.560 -1.2830 -2.2108  0.0587
    6SAPS   H5Y  758   7.244   0.226   9.629 -0.7566 -0.2582  0.8721
    6SAPS   C36  759   7.178   0.158   9.434 -0.1408 -0.4390 -0.0425
    6SAPS   H6X  760   7.082   0.211   9.452 -1.3869 -1.9077 -2.1336
    6SAPS   H6Y  761   7.154   0.062   9.383 -0.8901 -1.0295  1.4163
    6SAPS   C37  762   7.257   0.244   9.333 -0.5126 -0.3683 -0.4266
    6SAPS   H7X  763   7.255   0.353   9.353 -0.4491 -0.4709  0.1327
    6SAPS   H7Y  764   7.214   0.239   9.230 -0.6562 -0.0885 -0.3789
    6SAPS   C38  765   7.411   0.213   9.329  0.3211 -0.4198  0.6117
    6SAPS   H8X  766   7.410   0.103   9.315 -2.6283 -0.2424 -0.8700
    6SAPS   H8Y  767   7.460   0.235   9.426 -0.0838 -2.7877  1.3641
    6SAPS   C39  768   7.504   0.275   9.218 -0.0416 -0.2742 -0.2125
    6SAPS   H9X  769   7.609   0.255   9.247  0.5307 -0.9457 -2.6197
    6SAPS   H9Y  770   7.479   0.383   9.209  0.6763 -0.0516  0.3765
    6SAPS  C310  771   7.493   0.200   9.079  0.6263 -0.1118 -0.1611
    6SAPS  H10X  772   7.384   0.181   9.071  0.7562 -0.9586  0.0523
    6SAPS  H10Y  773   7.523   0.093   9.082 -0.8528 -0.5836 -1.5919
    6SAPS  C311  774   7.550   0.285   8.967 -0.1741  0.0332 -0.2324
    6SAPS  H11X  775   7.658   0.265   8.947 -0.1015 -0.8547  1.0407
    6SAPS  H11Y  776   7.539   0.392   8.996 -1.7301 -0.6525  1.7768
    6SAPS  C312  777   7.473   0.261   8.836  0.5146  0.0288 -0.2558
    6SAPS  H12X  778   7.363   0.268   8.845  0.6247  0.4597  0.8680
    6SAPS  H12Y  779   7.501   0.160   8.799  1.0163  0.8124 -2.0854
    6SAPS  C313  780   7.525   0.350   8.717 -0.0929  0.1010  0.5719
    6SAPS  H13X  781   7.635   0.354   8.710 -0.0483 -0.3127  0.9908
    6SAPS  H13Y  782   7.487   0.454   8.730  1.1396  1.1504 -3.4198
    6SAPS  C314  783   7.455   0.308   8.583 -0.7764 -0.5346  0.1262
    6SAPS  H14X  784   7.358   0.257   8.601 -0.2133 -0.6963  2.8872
    6SAPS  H14Y  785   7.525   0.231   8.544 -1.2354 -0.5458 -0.6761
    6SAPS  C315  786   7.443   0.403   8.461  0.2985  0.7988 -0.0320
    6SAPS  H15X  787   7.385   0.491   8.496  0.1384 -0.4441  2.9068
    6SAPS  H15Y  788   7.384   0.354   8.380 -1.4959  2.6680  0.1039
    6SAPS  C316  789   7.581   0.446   8.404  0.5651  0.3939 -0.3547
    6SAPS  H16X  790   7.608   0.364   8.334  0.3447  0.1251 -0.1297
    6SAPS  H16Y  791   7.653   0.467   8.486 -3.0494  2.3242  2.4884
    6SAPS  C317  792   7.575   0.565   8.310 -0.2361  0.1829 -0.1070
    6SAPS  H17X  793   7.568   0.662   8.363  1.7749 -0.2008  0.8859
    6SAPS  H17Y  794   7.483   0.558   8.247  0.9976  0.7806 -2.0230
    6SAPS  C318  795   7.704   0.577   8.230  0.2280  0.1387 -0.1826
    6SAPS  H18X  796   7.736   0.487   8.173  1.5097  1.1464 -1.0894
    6SAPS  H18Y  797   7.788   0.605   8.296  0.8375  0.0862 -0.9233
    6SAPS  H18Z  798   7.690   0.657   8.155  1.1130 -0.1829 -0.6941
    7SAPS     N  799   2.477   0.870  10.966  0.6102  0.3866 -0.5865
    7SAPS   HN1  800   2.507   0.835  11.060 -2.3794 -2.8492 -0.7256
    7SAPS   HN2  801   2.448   0.970  10.970 -1.7574 -0.2661 -0.6977
    7SAPS   HN3  802   2.393   0.819  10.931 -0.5054  0.4354  1.8542
    7SAPS   C12  803   2.576   0.861  10.855 -0.2036 -0.5590  0.1693
    7SAPS  H12A  804   2.667   0.909  10.890  0.9370 -1.6753 -1.2386
    7SAPS   C13  805   2.620   0.717  10.823  0.6838  0.6972 -0.4879
    7SAPS  O13A  806   2.573   0.616  10.889  0.1323 -0.0870  0.0419
    7SAPS  O13B  807   2.691   0.698  10.723  0.6376  0.2343 -0.1021
    7SAPS   C11  808   2.527   0.925  10.725 -0.0951 -0.6077 -0.0015
    7SAPS  H11A  809   2.445   0.863  10.684  0.6092 -0.9844 -0.8686
    7SAPS  H11B  810   2.610   0.931  10.651  0.1885 -2.2122  0.1548
    7SAPS     P  811   2.421   1.154  10.649  0.0856  0.0895  0.0144
    7SAPS   O13  812   2.305   1.074  10.599  0.1842  0.1648 -0.2187
    7SAPS   O14  813   2.402   1.291  10.705  0.0938 -0.0806 -0.4080
    7SAPS   O12  814   2.477   1.057  10.757 -0.0217  0.3005  0.3679
    7SAPS   O11  815   2.544   1.163  10.557  0.1838 -0.0953  0.0163
    7SAPS    C1  816   2.581   1.262  10.462 -0.4782  0.4960 -0.8151
    7SAPS    HA  817   2.539   1.362  10.485  0.7463  0.4881  1.5871
    7SAPS    HB  818   2.691   1.278  10.465 -0.6403  1.7156 -0.9717
    7SAPS    C2  819   2.536   1.225  10.317  0.7109 -0.0967  0.1755
    7SAPS    HS  820   2.567   1.305  10.246  1.8731 -0.6243  0.0821
    7SAPS   O21  821   2.389   1.224  10.312 -0.3239  0.3445  0.0956
    7SAPS   C21  822   2.328   1.339  10.331 -0.5458 -0.1699 -0.0686
    7SAPS   O22  823   2.384   1.447  10.334 -0.1046  0.3053  0.2060
    7SAPS   C22  824   2.177   1.308  10.327  0.1526  0.7605 -0.0152
    7SAPS   H2R  825   2.154   1.248  10.418  1.2223 -3.5931 -2.4619
    7SAPS   H2S  826   2.129   1.407  10.317  1.1945  1.3110  0.2781
    7SAPS    C3  827   2.599   1.089  10.268 -0.2096 -0.0674 -0.8190
    7SAPS    HX  828   2.566   1.005  10.333 -0.9351  1.8403  1.3424
    7SAPS    HY  829   2.709   1.075  10.273 -0.1073  0.5415 -1.2535
    7SAPS   O31  830   2.571   1.062  10.130 -0.3697  0.0717 -0.8159
    7SAPS   C31  831   2.476   0.975  10.114  0.7703 -0.7175  0.4049
    7SAPS   O32  832   2.398   0.927  10.190  0.0636  0.6459  0.1604
    7SAPS   C32  833   2.475   0.929   9.960  0.0691  0.3738 -0.6863
    7SAPS   H2X  834   2.577   0.885   9.956  1.0144  2.4861 -0.3460
    7SAPS   H2Y  835   2.465   1.018   9.895 -1.4604  0.5581 -0.2125
    7SAPS   C23  836   2.133   1.226  10.200 -0.3996 -0.1032 -0.1672
    7SAPS   H3R  837   2.029   1.195  10.223  0.2109 -2.1762 -0.0636
    7SAPS   H3S  838   2.201   1.138  10.197 -1.7862 -1.4170  3.3692
    7SAPS   C24  839   2.119   1.312  10.071 -0.2592  0.2073  0.2224
    7SAPS   H4R  840   2.068   1.407  10.099 -1.1429 -0.6133  1.4596
    7SAPS   H4S  841   2.049   1.256  10.007 -2.2498 -0.1730  2.6511
    7SAPS   C25  842   2.245   1.317   9.992  0.1564 -0.2261 -0.3358
    7SAPS   H5R  843   2.326   1.361  10.053 -0.5293  0.5901 -0.0037
    7SAPS   C26  844   2.275   1.276   9.870 -0.3759 -0.4194  0.9249
    7SAPS   H6R  845   2.380   1.282   9.839 -0.5741  2.3980  0.6397
    7SAPS   C27  846   2.178   1.207   9.774 -0.6816  0.5484 -0.5645
    7SAPS   H7R  847   2.119   1.127   9.824 -0.4715  0.0331 -1.1330
    7SAPS   H7S  848   2.237   1.148   9.700 -1.0766  0.0297 -0.4645
    7SAPS   C28  849   2.073   1.290   9.704  0.1193 -1.0231 -0.3033
    7SAPS   H8R  850   1.975   1.306   9.750 -0.3646  1.2647 -2.0564
    7SAPS   C29  851   2.098   1.350   9.591  0.3312  0.4087  0.1319
    7SAPS   H9R  852   2.016   1.415   9.558 -0.0984 -0.2668 -0.1486
    7SAPS  C210  853   2.231   1.351   9.523  0.3040  0.1290  0.2838
    7SAPS  H10R  854   2.301   1.270   9.553  0.1779 -1.1993 -2.7880
    7SAPS  H10S  855   2.286   1.445   9.546  1.7064 -0.4410 -0.6450
    7SAPS  C211  856   2.211   1.339   9.378  0.1390 -0.1502  0.8547
    7SAPS  H11R  857   2.141   1.257   9.352  0.8607  0.0243 -1.7369
    7SAPS  C212  858   2.269   1.416   9.285 -0.2455 -0.4084  0.0884
    7SAPS  H12R  859   2.237   1.395   9.182 -0.2394  0.6461 -0.1313
    7SAPS  C213  860   2.355   1.532   9.310 -0.1243  0.7607 -0.2639
    7SAPS  H13R  861   2.429   1.531   9.227 -2.0769  0.5415 -2.0169
    7SAPS  H13S  862   2.414   1.513   9.403 -0.6314 -0.9253 -0.2606
    7SAPS  C214  863   2.275   1.660   9.325 -0.4355  0.1891  0.1645
    7SAPS  H14R  864   2.206   1.681   9.242  1.2191  0.1871 -1.2474
    7SAPS  C215  865   2.271   1.744   9.430 -0.3116 -0.4083  0.4591
    7SAPS  H15R  866   2.203   1.830   9.427  2.1385  1.6212  1.2314
    7SAPS  C216  867   2.354   1.739   9.555  0.2468  0.4331 -1.1575
    7SAPS  H16R  868   2.413   1.832   9.575 -0.6947  1.7641 -4.3132
    7SAPS  H16S  869   2.419   1.650   9.548 -1.0204 -0.4727 -1.4649
    7SAPS  C217  870   2.252   1.729   9.668 -0.7253  0.6550  0.0500
    7SAPS  H17R  871   2.190   1.639   9.645  0.1947  0.3629 -1.3851
    7SAPS  H17S  872   2.199   1.826   9.679 -0.3294  0.8455  0.2620
    7SAPS  C218  873   2.309   1.701   9.815  0.3952  0.2514 -0.1105
    7SAPS  H18R  874   2.377   1.787   9.832 -0.0886  0.7736 -0.7866
    7SAPS  H18S  875   2.365   1.605   9.825  0.9140  0.6154  0.5490
    7SAPS  C219  876   2.202   1.687   9.921 -0.3144 -0.7508  0.1290
    7SAPS  H19R  877   2.130   1.613   9.879 -0.1165 -0.3009 -1.0371
    7SAPS  H19S  878   2.160   1.789   9.926  2.6354  0.5785 -1.3329
    7SAPS  C220  879   2.251   1.665  10.060 -0.3440 -0.0627 -1.0977
    7SAPS  H20R  880   2.296   1.563  10.052  0.0059  0.0156 -0.1764
    7SAPS  H20S  881   2.171   1.661  10.137 -1.4750  1.9238 -2.1389
    7SAPS  H20T  882   2.337   1.732  10.077  1.5900 -2.9306  0.9455
    7SAPS   C33  883   2.375   0.823   9.927  0.0077  0.0332  0.1649
    7SAPS   H3X  884   2.270   0.859   9.933  0.0203  0.2093 -0.6134
    7SAPS   H3Y  885   2.380   0.732   9.991  1.6127  0.6179  0.9024
    7SAPS   C34  886   2.379   0.787   9.775 -0.1373  0.2515  0.4249
    7SAPS   H4X  887   2.330   0.689   9.759  1.8496 -0.8140  0.6299
    7SAPS   H4Y  888   2.484   0.755   9.757 -0.6179 -1.3778  0.4097
    7SAPS   C35  889   2.334   0.888   9.678 -0.1752  0.0592 -0.4163
    7SAPS   H5X  890   2.402   0.976   9.679  1.8478 -1.4633  0.6085
    7SAPS   H5Y  891   2.233   0.920   9.711  0.1857 -0.4158  1.1901
    7SAPS   C36  892   2.334   0.835   9.538 -0.3639  0.4347  0.6016
    7SAPS   H6X  893   2.265   0.747   9.535  1.3242 -0.8684 -0.9406
    7SAPS   H6Y  894   2.435   0.791   9.523 -1.0163 -0.2748 -1.9275
    7SAPS   C37  895   2.295   0.941   9.432  0.7441 -1.2155 -0.6183
    7SAPS   H7X  896   2.371   1.023   9.433  1.6513 -2.0551 -0.0283
    7SAPS   H7Y  897   2.193   0.977   9.455  2.1714  1.9338  1.2355
    7SAPS   C38  898   2.294   0.891   9.283  0.0353 -0.2292  0.2186
    7SAPS   H8X  899   2.399   0.877   9.249  0.2988  1.7831  0.1491
    7SAPS   H8Y  900   2.252   0.961   9.207  0.5180  2.3472  2.2655
    7SAPS   C39  901   2.215   0.762   9.267  0.1018  0.2836 -0.3715
    7SAPS   H9X  902   2.262   0.680   9.325 -1.1488 -0.5576 -0.5307
    7SAPS   H9Y  903   2.231   0.726   9.163 -0.8666  1.1995 -0.8451
    7SAPS  C310  904   2.072   0.757   9.305 -0.8568 -0.5200 -0.0036
    7SAPS  H10X  905   2.019   0.808   9.222 -1.2221 -1.3351 -0.2737
    7SAPS  H10Y  906   2.063   0.823   9.394  0.2413 -0.5683  0.1539
    7SAPS  C311  907   2.018   0.621   9.331  0.0542 -0.4743  0.0691
    7SAPS  H11X  908   2.062   0.588   9.428 -2.5706  0.1931  1.5352
    7SAPS  H11Y  909   2.058   0.549   9.256 -1.8671 -0.0729 -1.3731
    7SAPS  C312  910   1.866   0.619   9.329 -0.2424 -0.1702 -0.0878
    7SAPS  H12X  911   1.839   0.520   9.371  0.9903 -1.0798 -1.4044
    7SAPS  H12Y  912   1.829   0.631   9.225  2.8579  3.2218 -0.8950
    7SAPS  C313  913   1.796   0.719   9.415  0.1452 -0.0843 -0.1755
    7SAPS  H13X  914   1.686   0.709   9.410  0.1788 -0.5018 -0.0912
    7SAPS  H13Y  915   1.817   0.821   9.376 -2.6580  0.3841 -0.5780
    7SAPS  C314  916   1.835   0.713   9.569  1.0107  0.0175 -0.2207
    7SAPS  H14X  917   1.761   0.783   9.613 -1.0425 -2.5161  0.4320
    7SAPS  H14Y  918   1.942   0.741   9.583  1.1177 -1.2543  1.7130
    7SAPS  C315  919   1.826   0.588   9.648  0.5153  0.5506 -0.9045
    7SAPS  H15X  920   1.887   0.512   9.595 -0.1934 -1.1714  0.7102
    7SAPS  H15Y  921   1.719   0.560   9.651  0.1874  1.9608  1.2671
    7SAPS  C316  922   1.883   0.597   9.794  0.2288 -0.1971  1.2706
    7SAPS  H16X  923   1.852   0.685   9.853 -0.7827 -0.7572  1.5759
    7SAPS  H16Y  924   1.993   0.607   9.780  0.3212  2.4757  3.4332
    7SAPS  C317  925   1.866   0.468   9.872  0.1077  0.5032 -0.9973
    7SAPS  H17X  926   1.925   0.393   9.813 -2.5387 -0.4357 -2.5188
    7SAPS  H17Y  927   1.760   0.436   9.868 -0.3770  2.0702 -0.9940
    7SAPS  C318  928   1.928   0.490  10.010 -0.2222  0.6722  0.4787
    7SAPS  H18X  929   1.932   0.394  10.066 -2.6251  1.5025  2.1847
    7SAPS  H18Y  930   1.876   0.566  10.073  1.2814  1.5050  0.7536
    7SAPS  H18Z  931   2.032   0.527   9.999 -0.0128  0.0672  0.3975
    8SAPS     N  932   0.102   2.869  11.388  0.2759 -0.7547  0.2344
    8SAPS   HN1  933   0.025   2.905  11.329 -0.5955  0.6048  2.1575
    8SAPS   HN2  934   0.065   2.790  11.445 -1.3018  0.1613  0.4816
    8SAPS   HN3  935   0.122   2.942  11.459 -0.7332 -1.1857  0.9714
    8SAPS   C12  936   0.232   2.850  11.311 -0.2516  0.8149 -0.4186
    8SAPS  H12A  937   0.249   2.946  11.266  1.3127  0.4760 -0.5739
    8SAPS   C13  938   0.336   2.791  11.404  0.2199  0.1766  0.3583
    8SAPS  O13A  939   0.322   2.768  11.526 -0.2579  0.4384  0.4807
    8SAPS  O13B  940   0.450   2.794  11.351  0.2288 -0.7362 -0.1107
    8SAPS   C11  941   0.200   2.747  11.196 -0.5813  0.1306 -0.4402
    8SAPS  H11A  942   0.167   2.650  11.239  0.6647 -0.4748 -0.8463
    8SAPS  H11B  943   0.290   2.709  11.143  0.6623 -0.0272  1.7248
    8SAPS     P  944   0.024   2.698  10.996  0.8991 -0.1913 -0.3327
    8SAPS   O13  945  -0.059   2.592  11.057 -0.3565 -0.3030  0.2392
    8SAPS   O14  946  -0.051   2.780  10.902  0.2887 -0.3540  0.1904
    8SAPS   O12  947   0.088   2.788  11.113 -0.5809  0.3980  0.0611
    8SAPS   O11  948   0.146   2.622  10.931  0.1665 -0.1037  0.5345
    8SAPS    C1  949   0.253   2.694  10.870 -1.0338  0.1126  0.5436
    8SAPS    HA  950   0.266   2.794  10.915 -1.9266  0.5509 -0.1518
    8SAPS    HB  951   0.350   2.641  10.881 -1.5762 -0.8654  0.7399
    8SAPS    C2  952   0.230   2.718  10.716  0.3584 -0.4174 -0.0815
    8SAPS    HS  953   0.162   2.805  10.717  0.8762 -0.0170  3.1298
    8SAPS   O21  954   0.180   2.600  10.656  0.5314 -0.0303 -0.1474
    8SAPS   C21  955   0.090   2.620  10.560  0.4209  1.0550  0.2500
    8SAPS   O22  956   0.059   2.729  10.512  0.5906 -0.4467 -0.2439
    8SAPS   C22  957   0.011   2.493  10.543 -0.8139 -0.1554 -0.7634
    8SAPS   H2R  958   0.087   2.417  10.514  1.2718  0.8494  1.8701
    8SAPS   H2S  959  -0.024   2.456  10.642  1.7971 -3.5051 -1.0002
    8SAPS    C3  960   0.361   2.771  10.647  0.0821 -0.2334 -0.1839
    8SAPS    HX  961   0.444   2.701  10.670 -1.1565 -1.2751  1.2306
    8SAPS    HY  962   0.373   2.872  10.691 -1.1208  0.0739 -0.5341
    8SAPS   O31  963   0.351   2.783  10.504  0.0473  0.1287 -0.9829
    8SAPS   C31  964   0.289   2.891  10.454  0.5699 -0.3316 -0.6915
    8SAPS   O32  965   0.243   2.983  10.517 -0.1874  0.2530 -0.1142
    8SAPS   C32  966   0.293   2.872  10.304  0.5373  0.2928 -0.0140
    8SAPS   H2X  967   0.187   2.861  10.272  0.1838  2.0326  0.5107
    8SAPS   H2Y  968   0.349   2.779  10.279 -0.5990 -0.1752 -0.8968
    8SAPS   C23  969  -0.087   2.496  10.419  0.3830  0.4216  0.5461
    8SAPS   H3R  970  -0.024   2.533  10.335  3.1015 -1.6762  1.5739
    8SAPS   H3S  971  -0.181   2.552  10.436 -1.3954 -2.6110  1.0693
    8SAPS   C24  972  -0.136   2.356  10.377 -0.0304 -0.4328 -0.6298
    8SAPS   H4R  973  -0.042   2.301  10.351  1.1890  0.8547  0.9620
    8SAPS   H4S  974  -0.200   2.371  10.288  0.5502 -2.0006 -1.3323
    8SAPS   C25  975  -0.225   2.285  10.479 -0.3852 -0.3799 -0.5248
    8SAPS   H5R  976  -0.242   2.342  10.571  1.4708  1.4582 -1.2927
    8SAPS   C26  977  -0.297   2.176  10.461  0.3101  0.0143  0.4389
    8SAPS   H6R  978  -0.365   2.139  10.539  0.0068 -1.4903 -0.5273
    8SAPS   C27  979  -0.304   2.110  10.329 -0.4625 -0.1758 -0.0737
    8SAPS   H7R  980  -0.342   2.007  10.343 -1.4789  0.3967  1.4540
    8SAPS   H7S  981  -0.199   2.097  10.294  0.2888  2.1501  1.2038
    8SAPS   C28  982  -0.387   2.163  10.215 -0.1031 -0.5222 -0.1725
    8SAPS   H8R  983  -0.478   2.220  10.238 -0.2063 -1.1904  1.0943
    8SAPS   C29  984  -0.356   2.142  10.083  0.4367 -0.2437 -0.5180
    8SAPS   H9R  985  -0.425   2.183  10.008 -0.4232 -2.5246 -1.0257
    8SAPS  C210  986  -0.242   2.064  10.024 -0.2870  0.4130 -0.1846
    8SAPS  H10R  987  -0.288   1.985   9.960  1.5775 -1.5665  0.8291
    8SAPS  H10S  988  -0.177   2.008  10.095 -0.7038 -1.4425 -1.2289
    8SAPS  C211  989  -0.175   2.175   9.943  0.0308  0.2093 -0.8796
    8SAPS  H11R  990  -0.126   2.245  10.012  0.2795  0.1144 -0.9595
    8SAPS  C212  991  -0.176   2.190   9.817  0.2591 -0.4191 -0.0101
    8SAPS  H12R  992  -0.119   2.270   9.769 -0.6721  0.7068  0.7337
    8SAPS  C213  993  -0.241   2.090   9.723  0.7996 -0.0093 -0.3541
    8SAPS  H13R  994  -0.246   1.986   9.761 -1.4749 -0.2803 -1.2712
    8SAPS  H13S  995  -0.175   2.075   9.635  1.4527 -2.2825  0.4763
    8SAPS  C214  996  -0.380   2.129   9.671 -0.1907 -0.6669 -0.1154
    8SAPS  H14R  997  -0.463   2.125   9.743  2.1925 -0.2800  2.7616
    8SAPS  C215  998  -0.411   2.181   9.547 -0.7101 -0.0760 -0.3624
    8SAPS  H15R  999  -0.517   2.203   9.526 -0.7411  1.2864  1.1233
    8SAPS  C216 1000  -0.316   2.222   9.437 -0.6715  0.2934 -0.1409
    8SAPS  H16R 1001  -0.211   2.218   9.474 -1.8426 -1.0941  3.2906
    8SAPS  H16S 1002  -0.342   2.324   9.403  1.1901  0.3436 -1.5159
    8SAPS  C217 1003  -0.324   2.147   9.302  0.1212  0.6568 -0.6732
    8SAPS  H17R 1004  -0.426   2.155   9.259 -0.7631 -1.1683  0.9638
    8SAPS  H17S 1005  -0.307   2.039   9.319 -0.1998  0.2373 -2.8441
    8SAPS  C218 1006  -0.226   2.202   9.206 -0.0721 -0.4833  0.2094
    8SAPS  H18R 1007  -0.134   2.224   9.263  0.7232 -1.3475 -0.7300
    8SAPS  H18S 1008  -0.257   2.303   9.169 -2.0458 -1.0062  0.3950
    8SAPS  C219 1009  -0.200   2.101   9.094  0.3803 -0.0366  1.1268
    8SAPS  H19R 1010  -0.289   2.079   9.031  1.1996  0.4197 -0.2034
    8SAPS  H19S 1011  -0.185   1.999   9.134 -1.1400 -0.0500  1.7114
    8SAPS  C220 1012  -0.081   2.141   9.003 -0.5272  0.1458 -0.5493
    8SAPS  H20R 1013  -0.047   2.067   8.926  1.2623  0.2864  0.0916
    8SAPS  H20S 1014   0.012   2.159   9.060 -1.3183  1.7582  0.2401
    8SAPS  H20T 1015  -0.114   2.234   8.953 -1.0635  0.0248 -0.4224
    8SAPS   C33 1016   0.347   2.983  10.221 -0.5510  0.0957  0.2660
    8SAPS   H3X 1017   0.450   3.007  10.255 -0.2261  1.4593 -1.6289
    8SAPS   H3Y 1018   0.283   3.073  10.235  0.3464  0.4193  2.3651
    8SAPS   C34 1019   0.339   2.955  10.063  0.3759  0.1760 -0.2676
    8SAPS   H4X 1020   0.235   2.925  10.036 -0.7258  1.6559  2.1535
    8SAPS   H4Y 1021   0.408   2.871  10.039  2.3117  1.6919 -0.0782
    8SAPS   C35 1022   0.381   3.075   9.985  0.8063  0.2039 -0.9451
    8SAPS   H5X 1023   0.488   3.085  10.013  1.2985 -2.5925 -1.6941
    8SAPS   H5Y 1024   0.320   3.164  10.012  0.5366 -0.1331 -0.4313
    8SAPS   C36 1025   0.381   3.054   9.832 -0.1037 -0.4363 -0.2165
    8SAPS   H6X 1026   0.456   2.974   9.810  0.2225 -0.0873 -0.3795
    8SAPS   H6Y 1027   0.421   3.145   9.783 -0.2765  0.2848  0.9739
    8SAPS   C37 1028   0.244   3.029   9.769 -0.3500 -0.1012  0.0433
    8SAPS   H7X 1029   0.176   3.114   9.789  0.0005  0.4397 -1.0467
    8SAPS   H7Y 1030   0.199   2.940   9.819  0.0029  0.2831  1.0443
    8SAPS   C38 1031   0.247   3.007   9.616 -0.0243 -0.7276 -0.7959
    8SAPS   H8X 1032   0.280   2.907   9.580 -0.6801 -2.3345  2.7803
    8SAPS   H8Y 1033   0.306   3.083   9.563  0.4350 -1.1695 -0.9219
    8SAPS   C39 1034   0.105   3.027   9.556  0.7305  0.1440  0.2056
    8SAPS   H9X 1035   0.080   3.130   9.589 -1.1590  0.7934 -3.0779
    8SAPS   H9Y 1036   0.032   2.960   9.605  2.2956 -1.1540  0.8223
    8SAPS  C310 1037   0.100   3.012   9.405 -0.4507 -0.2784 -0.1430
    8SAPS  H10X 1038   0.144   2.911   9.386 -0.4684  0.0674 -2.1168
    8SAPS  H10Y 1039   0.168   3.083   9.353  0.3122 -1.0475 -0.2122
    8SAPS  C311 1040  -0.043   3.021   9.342  0.2161 -0.6635  1.0473
    8SAPS  H11X 1041  -0.098   3.116   9.360  1.3483 -0.1194  1.6507
    8SAPS  H11Y 1042  -0.098   2.935   9.387  1.5897 -1.2552  1.6145
    8SAPS  C312 1043  -0.057   3.000   9.194  0.8410 -0.0851 -0.4355
    8SAPS  H12X 1044  -0.165   2.987   9.169 -0.0787  0.1948  3.0573
    8SAPS  H12Y 1045  -0.005   2.909   9.158  1.3166 -0.6821  1.7192
    8SAPS  C313 1046  -0.001   3.119   9.110  0.0315 -0.5145  0.9792
    8SAPS  H13X 1047   0.104   3.136   9.139  0.5449  1.2365 -1.7170
    8SAPS  H13Y 1048  -0.054   3.206   9.155 -0.7375  0.0456 -0.9528
    8SAPS  C314 1049  -0.023   3.128   8.961 -0.8036 -0.1206 -0.1400
    8SAPS  H14X 1050  -0.005   3.040   8.897 -0.6521  1.0283 -1.6942
    8SAPS  H14Y 1051   0.047   3.204   8.921  1.2585 -1.1366  1.4709
    8SAPS  C315 1052  -0.168   3.177   8.929 -0.2076 -0.7804 -0.7332
    8SAPS  H15X 1053  -0.186   3.272   8.984 -1.2279 -2.1434  1.3271
    8SAPS  H15Y 1054  -0.235   3.097   8.966  1.7556 -2.8015 -1.4224
    8SAPS  C316 1055  -0.174   3.198   8.777  0.2547 -0.3170  0.4701
    8SAPS  H16X 1056  -0.166   3.094   8.739  1.1965 -0.9244  2.2424
    8SAPS  H16Y 1057  -0.085   3.261   8.756 -0.4242  0.0997 -1.1900
    8SAPS  C317 1058  -0.305   3.257   8.719  0.1986  0.2370  0.3450
    8SAPS  H17X 1059  -0.307   3.364   8.749 -0.9199 -0.0701  1.4088
    8SAPS  H17Y 1060  -0.393   3.206   8.764 -1.4183  1.7839 -0.9904
    8SAPS  C318 1061  -0.316   3.249   8.568 -0.3987  0.2127  0.0750
    8SAPS  H18X 1062  -0.258   3.336   8.531  0.1818 -0.2691 -0.1550
    8SAPS  H18Y 1063  -0.425   3.257   8.544 -0.5198  2.1609  1.1757
    8SAPS  H18Z 1064  -0.269   3.153   8.539  0.7661 -0.0355  2.6823
    9SAPS     N 1065   2.496   5.640   6.201 -0.3202  0.3991 -0.1941
    9SAPS   HN1 1066   2.398   5.606   6.206 -0.1868  0.2855  3.4898
    9SAPS   HN2 1067   2.539   5.642   6.296 -1.5897 -0.9308  0.4277
    9SAPS   HN3 1068   2.506   5.738   6.167  0.3155  0.2479 -0.4560
    9SAPS   C12 1069   2.585   5.553   6.118  0.5573 -0.4244 -0.1582
    9SAPS  H12A 1070   2.546   5.560   6.018 -0.6396 -0.5728  0.2950
    9SAPS   C13 1071   2.729   5.600   6.104 -0.3625  0.4487 -0.3169
    9SAPS  O13A 1072   2.773   5.691   6.181 -0.1601 -0.2028 -0.6164
    9SAPS  O13B 1073   2.801   5.544   6.018 -0.6300 -0.2140 -0.1782
    9SAPS   C11 1074   2.585   5.414   6.178 -0.1492 -0.0095 -0.3775
    9SAPS  H11A 1075   2.681   5.372   6.140  1.3606  2.3130  0.6899
    9SAPS  H11B 1076   2.509   5.343   6.140  0.2999 -1.0314  0.6038
    9SAPS     P 1077   2.627   5.285   6.407 -0.1269 -0.0826  0.0456
    9SAPS   O13 1078   2.506   5.205   6.404  0.4195  0.1904  0.5416
    9SAPS   O14 1079   2.748   5.218   6.360 -0.0120 -0.3663 -0.2043
    9SAPS   O12 1080   2.595   5.413   6.320  0.3539 -0.2034 -0.5152
    9SAPS   O11 1081   2.651   5.332   6.550 -0.1003 -0.0751 -0.3767
    9SAPS    C1 1082   2.608   5.454   6.601 -0.6567 -0.0708 -0.0068
    9SAPS    HA 1083   2.660   5.535   6.545  0.1409 -2.4065 -2.7484
    9SAPS    HB 1084   2.500   5.474   6.583 -0.3069  1.8050 -0.0948
    9SAPS    C2 1085   2.626   5.473   6.755 -0.7164 -0.2884  0.7243
    9SAPS    HS 1086   2.569   5.555   6.803 -2.9251 -1.1755 -0.3198
    9SAPS   O21 1087   2.762   5.508   6.779 -0.9154 -0.5505  0.7082
    9SAPS   C21 1088   2.802   5.622   6.732 -0.4397  0.3470  0.1449
    9SAPS   O22 1089   2.734   5.710   6.689 -0.2590 -0.8592  0.0386
    9SAPS   C22 1090   2.951   5.612   6.724 -0.3179 -0.8335  0.0156
    9SAPS   H2R 1091   2.986   5.534   6.795 -2.2705 -1.5370  0.2315
    9SAPS   H2S 1092   2.982   5.565   6.628 -0.6488  0.8251 -0.9087
    9SAPS    C3 1093   2.586   5.338   6.823  0.1525  0.1542 -0.5933
    9SAPS    HX 1094   2.637   5.256   6.768 -1.1407 -0.2325 -1.2402
    9SAPS    HY 1095   2.477   5.317   6.810  0.0310  0.3817  0.0442
    9SAPS   O31 1096   2.622   5.336   6.958 -0.3407 -0.3089 -0.3440
    9SAPS   C31 1097   2.742   5.305   7.006  0.5393  0.5915 -0.1533
    9SAPS   O32 1098   2.839   5.264   6.939  0.1498 -0.1588  1.0635
    9SAPS   C32 1099   2.738   5.345   7.150 -0.4162  0.1307 -0.6487
    9SAPS   H2X 1100   2.636   5.334   7.192 -0.0344  2.8090  1.0974
    9SAPS   H2Y 1101   2.761   5.454   7.147  1.5063 -0.2154  0.7223
    9SAPS   C23 1102   3.018   5.753   6.732  0.5991  0.0199  0.5631
    9SAPS   H3R 1103   2.974   5.823   6.659  1.4260 -2.7050 -2.6829
    9SAPS   H3S 1104   3.126   5.740   6.712  0.9255 -0.3836  2.5112
    9SAPS   C24 1105   3.024   5.820   6.874 -0.3254  0.7211  0.0838
    9SAPS   H4R 1106   2.923   5.856   6.904 -0.0409 -0.0682  2.0629
    9SAPS   H4S 1107   3.088   5.910   6.871  0.9858 -0.1996  0.1622
    9SAPS   C25 1108   3.069   5.727   6.976  0.1539 -0.7510 -0.3393
    9SAPS   H5R 1109   3.157   5.666   6.949  1.2385  1.5010 -2.0140
    9SAPS   C26 1110   3.008   5.698   7.091  0.8829  0.1155 -0.3741
    9SAPS   H6R 1111   3.061   5.619   7.146 -2.0442 -0.8392  1.1592
    9SAPS   C27 1112   2.879   5.761   7.135 -0.2183  0.1991 -0.1604
    9SAPS   H7R 1113   2.831   5.696   7.211 -0.5880  0.0841 -0.4842
    9SAPS   H7S 1114   2.797   5.753   7.060  0.6459  3.1144 -1.4808
    9SAPS   C28 1115   2.896   5.899   7.192  0.7412 -0.4856 -0.3853
    9SAPS   H8R 1116   2.920   5.966   7.108  1.1256  0.1658  0.2462
    9SAPS   C29 1117   2.882   5.937   7.323  0.0281  0.7048  0.1669
    9SAPS   H9R 1118   2.887   6.043   7.353  0.5160  0.9685 -0.8380
    9SAPS  C210 1119   2.847   5.844   7.443 -0.4782  0.1664  0.2437
    9SAPS  H10R 1120   2.931   5.780   7.476  0.0030  0.7847  0.2352
    9SAPS  H10S 1121   2.773   5.773   7.402 -0.1699 -0.7675  1.2889
    9SAPS  C211 1122   2.799   5.905   7.574  0.5233 -0.3475 -0.2552
    9SAPS  H11R 1123   2.696   5.883   7.605  0.2849  0.8517 -0.1889
    9SAPS  C212 1124   2.882   5.960   7.670  0.4498  0.2873 -0.0300
    9SAPS  H12R 1125   2.819   5.990   7.755  0.0700 -1.3326  0.2919
    9SAPS  C213 1126   3.031   5.988   7.664 -0.5592  0.1696  0.1112
    9SAPS  H13R 1127   3.050   6.089   7.706  0.0590  0.0737  0.0571
    9SAPS  H13S 1128   3.054   6.003   7.557 -0.4841  1.7014  0.3224
    9SAPS  C214 1129   3.133   5.896   7.735 -0.6914 -0.0653 -0.5073
    9SAPS  H14R 1130   3.096   5.858   7.832  0.1398 -0.0258 -0.1696
    9SAPS  C215 1131   3.253   5.870   7.700  0.0925  0.1245  1.0047
    9SAPS  H15R 1132   3.318   5.804   7.759  1.6088  0.8736  0.1998
    9SAPS  C216 1133   3.327   5.921   7.575 -0.8357  0.4222 -0.7321
    9SAPS  H16R 1134   3.435   5.931   7.597 -0.6039 -4.3037  0.9161
    9SAPS  H16S 1135   3.293   6.025   7.555 -0.3149  0.6764 -0.2939
    9SAPS  C217 1136   3.303   5.821   7.460  0.0024  0.0030  0.4073
    9SAPS  H17R 1137   3.335   5.873   7.367 -0.3514  0.1375  0.3589
    9SAPS  H17S 1138   3.193   5.813   7.443 -0.0322 -2.1056  1.5043
    9SAPS  C218 1139   3.381   5.689   7.484 -0.0156 -0.2362 -0.5891
    9SAPS  H18R 1140   3.345   5.646   7.580  0.9293  0.6590  0.1782
    9SAPS  H18S 1141   3.490   5.710   7.492 -0.4398  2.7543 -2.0309
    9SAPS  C219 1142   3.355   5.590   7.372 -0.1514 -1.0616  0.1239
    9SAPS  H19R 1143   3.384   5.656   7.287  0.3054 -1.8604 -0.3446
    9SAPS  H19S 1144   3.245   5.581   7.368 -0.1364 -1.6858  0.9769
    9SAPS  C220 1145   3.425   5.452   7.361  1.1111 -0.5221 -0.3033
    9SAPS  H20R 1146   3.425   5.388   7.451  0.3425  1.1099  0.8821
    9SAPS  H20S 1147   3.532   5.480   7.346  1.6799 -1.4873  1.7599
    9SAPS  H20T 1148   3.378   5.397   7.277  0.7412  0.4735 -0.7539
    9SAPS   C33 1149   2.845   5.275   7.231 -0.5447 -0.2061  0.5763
    9SAPS   H3X 1150   2.928   5.237   7.167 -0.0472 -0.7988  1.5669
    9SAPS   H3Y 1151   2.804   5.181   7.275 -0.9575 -0.5179 -0.4407
    9SAPS   C34 1152   2.892   5.371   7.337 -0.2529 -0.2338 -0.7993
    9SAPS   H4X 1153   2.814   5.379   7.416  0.3696  0.1773 -0.2194
    9SAPS   H4Y 1154   2.926   5.473   7.307  0.1317 -0.8898 -2.6059
    9SAPS   C35 1155   3.024   5.321   7.400  0.5900  0.4319  0.0558
    9SAPS   H5X 1156   3.045   5.389   7.485  0.1998  0.7678 -0.1121
    9SAPS   H5Y 1157   3.098   5.349   7.322  0.6296  1.7826  0.5623
    9SAPS   C36 1158   3.023   5.178   7.443 -0.9625  0.1202 -0.6127
    9SAPS   H6X 1159   3.129   5.156   7.468 -0.7298 -0.5907 -2.1208
    9SAPS   H6Y 1160   2.993   5.111   7.359  0.1909 -0.2802 -0.7175
    9SAPS   C37 1161   2.927   5.147   7.560  0.4345  0.3159 -0.4701
    9SAPS   H7X 1162   2.820   5.132   7.536  0.1672 -1.1459  1.5124
    9SAPS   H7Y 1163   2.923   5.245   7.612  1.7353 -0.9695  2.1425
    9SAPS   C38 1164   2.978   5.047   7.661  0.0757  0.2448  0.1081
    9SAPS   H8X 1165   3.069   5.093   7.705  1.1726 -0.2575 -1.5818
    9SAPS   H8Y 1166   3.011   4.957   7.605  2.6213  2.4952 -2.1515
    9SAPS   C39 1167   2.880   5.011   7.777 -0.1950  0.6514  0.3131
    9SAPS   H9X 1168   2.789   4.960   7.737  0.0063  2.3989 -2.4926
    9SAPS   H9Y 1169   2.840   5.100   7.830 -0.2664  1.0318 -0.3755
    9SAPS  C310 1170   2.935   4.910   7.889 -0.7912 -0.0422  0.5275
    9SAPS  H10X 1171   3.039   4.945   7.906 -0.5102 -0.0151 -1.1198
    9SAPS  H10Y 1172   2.950   4.806   7.855  2.1955 -0.4595  2.9648
    9SAPS  C311 1173   2.870   4.919   8.033 -0.5634  0.0803 -0.2865
    9SAPS  H11X 1174   2.930   4.842   8.086  1.6069  2.5586  1.0167
    9SAPS  H11Y 1175   2.762   4.898   8.024 -0.1842 -2.3608  0.5971
    9SAPS  C312 1176   2.886   5.062   8.091 -0.1505 -0.1408  0.2044
    9SAPS  H12X 1177   2.808   5.127   8.045  0.6134  1.2322  0.8197
    9SAPS  H12Y 1178   2.982   5.105   8.056 -0.2109 -0.1594  0.0095
    9SAPS  C313 1179   2.863   5.063   8.240 -0.0320  0.9032 -0.0872
    9SAPS  H13X 1180   2.928   4.983   8.282 -0.0662  1.0510  0.2483
    9SAPS  H13Y 1181   2.764   5.013   8.248  1.3786 -1.7933  1.2220
    9SAPS  C314 1182   2.850   5.191   8.315  0.1875  0.0136  0.4194
    9SAPS  H14X 1183   2.929   5.256   8.272 -0.3278 -0.6033 -1.4770
    9SAPS  H14Y 1184   2.885   5.178   8.420 -1.5875 -0.3954  0.9766
    9SAPS  C315 1185   2.709   5.255   8.323  0.4225 -0.4981 -0.4345
    9SAPS  H15X 1186   2.724   5.358   8.361  1.8123  0.3633 -3.2151
    9SAPS  H15Y 1187   2.653   5.186   8.390 -3.4359  1.5953 -1.3756
    9SAPS  C316 1188   2.639   5.256   8.188  0.3991 -0.0734 -0.0179
    9SAPS  H16X 1189   2.631   5.153   8.147  0.9262 -0.0126 -0.2763
    9SAPS  H16Y 1190   2.704   5.310   8.115 -0.1118  0.1224 -0.3322
    9SAPS  C317 1191   2.507   5.339   8.196 -0.1509  1.1445 -0.6187
    9SAPS  H17X 1192   2.520   5.399   8.289  1.1467  0.8402 -0.5923
    9SAPS  H17Y 1193   2.419   5.274   8.219 -0.3926  0.5831 -3.0040
    9SAPS  C318 1194   2.483   5.417   8.064  0.3120  0.3190 -0.4206
    9SAPS  H18X 1195   2.405   5.492   8.089  2.3550  2.4596 -0.2437
    9SAPS  H18Y 1196   2.448   5.358   7.977 -2.6396  0.7931  0.3894
    9SAPS  H18Z 1197   2.578   5.471   8.041  0.0839  0.3773 -1.2475
   10SAPS     N 1198   3.834   4.765   6.534  0.0498 -0.3561 -0.0902
   10SAPS   HN1 1199   3.842   4.841   6.464 -1.3916  0.3344  0.4819
   10SAPS   HN2 1200   3.738   4.733   6.557 -0.3974  0.8598 -0.2463
   10SAPS   HN3 1201   3.890   4.790   6.618 -0.7262 -1.8596  0.9082
   10SAPS   C12 1202   3.915   4.652   6.483  0.8041  0.2447  0.4637
   10SAPS  H12A 1203   3.878   4.634   6.383 -0.6853  1.1837  0.8414
   10SAPS   C13 1204   4.063   4.675   6.473  0.3697  0.2229  0.6373
   10SAPS  O13A 1205   4.108   4.780   6.525  0.0509 -0.2785  0.5272
   10SAPS  O13B 1206   4.137   4.587   6.425  0.6108  0.1890  0.1894
   10SAPS   C11 1207   3.907   4.524   6.570 -0.6156 -0.4965 -0.0818
   10SAPS  H11A 1208   3.947   4.535   6.673 -2.8253 -1.2743  0.8904
   10SAPS  H11B 1209   3.961   4.437   6.526  1.3287 -0.1777  1.5783
   10SAPS     P 1210   3.669   4.415   6.486  0.1103 -0.1769 -0.0148
   10SAPS   O13 1211   3.590   4.513   6.418  0.2574  0.1414  0.1978
   10SAPS   O14 1212   3.742   4.315   6.410  0.5892 -0.2444 -0.1818
   10SAPS   O12 1213   3.765   4.484   6.585  0.0588  0.0185 -0.3411
   10SAPS   O11 1214   3.575   4.343   6.587  0.1746 -0.1028  0.0247
   10SAPS    C1 1215   3.621   4.256   6.699  0.7658  0.1043 -0.0377
   10SAPS    HA 1216   3.582   4.152   6.697 -1.4562  0.9069  0.1744
   10SAPS    HB 1217   3.731   4.239   6.706  0.8417  0.2962 -0.7635
   10SAPS    C2 1218   3.576   4.307   6.842 -0.2891  0.2324  0.2387
   10SAPS    HS 1219   3.621   4.237   6.915  2.3307  1.4773 -0.1188
   10SAPS   O21 1220   3.437   4.318   6.872 -0.0380  0.6668  0.4740
   10SAPS   C21 1221   3.374   4.197   6.879 -0.3638 -0.4084 -0.0366
   10SAPS   O22 1222   3.427   4.090   6.859 -0.6599 -0.7456 -0.8554
   10SAPS   C22 1223   3.228   4.223   6.909  0.1867 -0.0621  0.8382
   10SAPS   H2R 1224   3.217   4.302   6.986 -0.4322  0.8220 -0.1371
   10SAPS   H2S 1225   3.194   4.278   6.818 -0.4134 -0.4417  0.8385
   10SAPS    C3 1226   3.644   4.450   6.876 -0.4101  0.3632  0.0648
   10SAPS    HX 1227   3.594   4.527   6.814 -1.0518  0.0391  0.1745
   10SAPS    HY 1228   3.750   4.450   6.845 -0.4363  0.0996 -0.0243
   10SAPS   O31 1229   3.627   4.495   7.014 -0.4403 -0.1410  0.7004
   10SAPS   C31 1230   3.713   4.446   7.106  0.0292 -0.3024  0.7201
   10SAPS   O32 1231   3.776   4.342   7.089 -0.2863 -1.0351 -0.4647
   10SAPS   C32 1232   3.697   4.537   7.229 -0.4103  0.1643 -0.2197
   10SAPS   H2X 1233   3.599   4.589   7.230  0.0496  1.0335  0.6547
   10SAPS   H2Y 1234   3.780   4.611   7.227  0.8456 -1.1115  2.3569
   10SAPS   C23 1235   3.130   4.109   6.941  0.4162 -0.7495  0.4799
   10SAPS   H3R 1236   3.132   4.033   6.860 -0.0786 -0.0938 -0.1480
   10SAPS   H3S 1237   3.033   4.162   6.948  0.1102 -1.4561  1.7843
   10SAPS   C24 1238   3.160   4.044   7.084 -0.0137 -0.5773  0.8389
   10SAPS   H4R 1239   3.067   3.991   7.116  0.2556  0.4670  3.4830
   10SAPS   H4S 1240   3.156   4.133   7.151 -1.1203 -0.3965  0.5396
   10SAPS   C25 1241   3.282   3.964   7.111 -0.8095  0.7622 -0.4408
   10SAPS   H5R 1242   3.354   3.960   7.028 -0.3411 -0.4846  0.0187
   10SAPS   C26 1243   3.307   3.895   7.224 -0.9797  0.5468 -0.3286
   10SAPS   H6R 1244   3.409   3.857   7.234 -1.1754  0.1246  0.0914
   10SAPS   C27 1245   3.220   3.870   7.352  0.2152 -0.1030  0.1170
   10SAPS   H7R 1246   3.125   3.927   7.345  0.9104  0.7512 -4.5610
   10SAPS   H7S 1247   3.267   3.920   7.438  0.8936 -1.9718  0.8558
   10SAPS   C28 1248   3.199   3.727   7.380 -0.7782  0.3043 -0.3073
   10SAPS   H8R 1249   3.120   3.678   7.321 -0.4580 -0.7052  0.0911
   10SAPS   C29 1250   3.254   3.652   7.477  1.2029  0.3525 -0.3767
   10SAPS   H9R 1251   3.226   3.546   7.489  0.5229  0.5860  0.1915
   10SAPS  C210 1252   3.356   3.686   7.578 -0.1283  1.0177  0.2273
   10SAPS  H10R 1253   3.400   3.786   7.560  0.4178  0.8103  0.4006
   10SAPS  H10S 1254   3.439   3.615   7.560 -2.6220 -1.9373  0.0227
   10SAPS  C211 1255   3.294   3.663   7.713 -0.9554 -0.7543 -0.7158
   10SAPS  H11R 1256   3.325   3.572   7.766 -1.2848 -0.9155 -0.7957
   10SAPS  C212 1257   3.219   3.749   7.778  0.2134 -0.4082  0.0526
   10SAPS  H12R 1258   3.186   3.723   7.879  3.0024  0.2723  1.1900
   10SAPS  C213 1259   3.179   3.885   7.738  0.0203  0.3692 -0.2636
   10SAPS  H13R 1260   3.069   3.898   7.736 -0.1476 -0.8928  0.1130
   10SAPS  H13S 1261   3.213   3.907   7.635 -1.1621 -0.7890 -0.9062
   10SAPS  C214 1262   3.243   3.993   7.825  0.1688 -0.7831  0.5374
   10SAPS  H14R 1263   3.338   4.036   7.789 -0.4504  0.1683  0.0039
   10SAPS  C215 1264   3.191   4.035   7.944 -0.0327  0.1506 -0.5317
   10SAPS  H15R 1265   3.252   4.096   8.012 -0.3124 -0.9153  0.6839
   10SAPS  C216 1266   3.068   3.978   8.008  0.1951 -0.5716  1.0251
   10SAPS  H16R 1267   3.074   3.870   8.036 -0.4218 -1.1181 -0.8755
   10SAPS  H16S 1268   2.988   3.977   7.931  0.3633  3.9896  0.6521
   10SAPS  C217 1269   3.020   4.066   8.118 -0.6833 -0.4369  0.3063
   10SAPS  H17R 1270   2.915   4.040   8.142 -0.6198 -0.4042  0.6127
   10SAPS  H17S 1271   3.014   4.174   8.094 -0.4796 -0.0361  2.0134
   10SAPS  C218 1272   3.099   4.058   8.257  0.3365  0.4778 -0.2874
   10SAPS  H18R 1273   3.182   4.131   8.263  0.1104  0.6531  0.7986
   10SAPS  H18S 1274   3.160   3.965   8.246 -0.7343 -0.2783  0.0539
   10SAPS  C219 1275   3.006   4.074   8.375 -0.1345 -0.6090 -0.5848
   10SAPS  H19R 1276   2.940   3.987   8.398 -1.4032  0.2853 -0.8023
   10SAPS  H19S 1277   2.940   4.158   8.345 -1.3723 -1.2779  0.2020
   10SAPS  C220 1278   3.083   4.114   8.504  0.0128 -0.2366  0.4934
   10SAPS  H20R 1279   3.022   4.179   8.571 -1.2586 -1.8832  1.0096
   10SAPS  H20S 1280   3.181   4.161   8.484 -0.1955 -0.9969 -2.5144
   10SAPS  H20T 1281   3.109   4.021   8.560 -0.9824 -1.9822 -1.8423
   10SAPS   C33 1282   3.703   4.449   7.359 -1.0111  0.2239  0.1167
   10SAPS   H3X 1283   3.811   4.438   7.384 -0.8791  1.3005  0.0420
   10SAPS   H3Y 1284   3.662   4.348   7.340  1.5212 -0.8283 -0.0159
   10SAPS   C34 1285   3.636   4.517   7.473  0.1963 -0.5658  0.1590
   10SAPS   H4X 1286   3.541   4.562   7.440  0.4157 -0.7973 -0.7862
   10SAPS   H4Y 1287   3.686   4.610   7.509  0.8543  0.1782 -2.5415
   10SAPS   C35 1288   3.597   4.426   7.587  0.3177  0.1747  0.7043
   10SAPS   H5X 1289   3.690   4.398   7.640  0.0638  0.3334  1.2381
   10SAPS   H5Y 1290   3.542   4.338   7.546 -0.6795  0.7979  0.6949
   10SAPS   C36 1291   3.513   4.492   7.690  0.1704 -0.1742 -0.3177
   10SAPS   H6X 1292   3.421   4.519   7.634 -0.4083 -0.7621  0.3383
   10SAPS   H6Y 1293   3.558   4.587   7.727 -0.8385 -0.7717  2.5852
   10SAPS   C37 1294   3.485   4.403   7.809 -0.2002  0.0444 -0.1820
   10SAPS   H7X 1295   3.434   4.313   7.769 -0.3352 -0.2063  0.5394
   10SAPS   H7Y 1296   3.411   4.452   7.876  0.0435  1.1401 -0.6966
   10SAPS   C38 1297   3.615   4.353   7.879 -0.0849 -0.0975 -0.4977
   10SAPS   H8X 1298   3.682   4.298   7.810 -0.7086 -0.2502 -0.9879
   10SAPS   H8Y 1299   3.594   4.293   7.970 -0.4510  1.4836  0.4910
   10SAPS   C39 1300   3.699   4.477   7.928 -0.8583  1.0973 -0.5701
   10SAPS   H9X 1301   3.624   4.543   7.978 -0.8320  0.6788  0.0266
   10SAPS   H9Y 1302   3.740   4.529   7.840  1.4157  0.7029  0.2278
   10SAPS  C310 1303   3.810   4.454   8.031  1.0824  0.3548 -0.0470
   10SAPS  H10X 1304   3.863   4.550   8.051 -0.4565  1.5312 -1.5174
   10SAPS  H10Y 1305   3.882   4.378   7.994  0.5864 -1.3911  2.4186
   10SAPS  C311 1306   3.764   4.397   8.166 -0.4381  0.0348 -0.8422
   10SAPS  H11X 1307   3.713   4.301   8.139 -0.7663 -0.3799  1.1536
   10SAPS  H11Y 1308   3.689   4.469   8.204 -0.2469  0.2855 -0.9432
   10SAPS  C312 1309   3.877   4.372   8.272  0.4226  0.3439 -0.4445
   10SAPS  H12X 1310   3.959   4.320   8.218  0.8113  0.2579  0.2266
   10SAPS  H12Y 1311   3.834   4.313   8.355 -0.5545 -0.1973 -1.3182
   10SAPS  C313 1312   3.947   4.493   8.326 -0.4648 -0.1413 -0.4850
   10SAPS  H13X 1313   4.001   4.542   8.242 -0.1604  1.6791  0.7309
   10SAPS  H13Y 1314   4.026   4.457   8.395  0.2195  1.9468 -0.1134
   10SAPS  C314 1315   3.864   4.598   8.402  0.1186  0.3680 -0.7745
   10SAPS  H14X 1316   3.795   4.551   8.476  1.0936 -3.9535 -2.4559
   10SAPS  H14Y 1317   3.801   4.641   8.321  0.9292  2.1068 -0.5174
   10SAPS  C315 1318   3.946   4.718   8.454 -0.1072  0.1428 -0.8261
   10SAPS  H15X 1319   4.042   4.714   8.398 -0.7696 -1.2475 -1.8833
   10SAPS  H15Y 1320   3.986   4.710   8.558 -0.0559  1.2996 -0.7441
   10SAPS  C316 1321   3.880   4.860   8.442 -0.1981  0.0877  0.1145
   10SAPS  H16X 1322   3.807   4.863   8.525 -0.1065  1.3813  0.1512
   10SAPS  H16Y 1323   3.822   4.872   8.347  0.1158  0.0792 -0.0805
   10SAPS  C317 1324   3.971   4.990   8.458 -0.3917  0.8937 -0.2800
   10SAPS  H17X 1325   4.047   4.981   8.378  0.4818 -0.5802  0.6800
   10SAPS  H17Y 1326   4.032   4.980   8.551  0.4663  0.9241 -0.8311
   10SAPS  C318 1327   3.891   5.117   8.455 -0.4394 -0.5469 -0.0247
   10SAPS  H18X 1328   3.815   5.125   8.374  1.6029  0.8940 -1.8293
   10SAPS  H18Y 1329   3.942   5.214   8.437 -0.9824 -0.4041 -0.8392
   10SAPS  H18Z 1330   3.841   5.123   8.554 -2.0543  2.0359 -0.9538
   11SAPS     N 1331   4.315   6.310   5.710  0.2676 -0.9425 -0.4572
   11SAPS   HN1 1332   4.235   6.366   5.747  0.4981 -0.0047 -1.3469
   11SAPS   HN2 1333   4.281   6.221   5.668 -2.1134 -0.3192  0.0763
   11SAPS   HN3 1334   4.372   6.292   5.795  0.2235 -3.1284 -0.8795
   11SAPS   C12 1335   4.394   6.380   5.609 -0.4509  0.8035 -0.2335
   11SAPS  H12A 1336   4.494   6.341   5.619 -1.3362 -0.7416  2.8181
   11SAPS   C13 1337   4.360   6.353   5.461  1.2702 -0.1011  0.8044
   11SAPS  O13A 1338   4.261   6.286   5.423 -0.0094 -0.4110 -0.7376
   11SAPS  O13B 1339   4.439   6.392   5.373 -0.1006  0.0571  0.3401
   11SAPS   C11 1340   4.388   6.535   5.629 -0.0921  0.0729 -0.1960
   11SAPS  H11A 1341   4.297   6.575   5.580  0.2917  1.0245 -0.1368
   11SAPS  H11B 1342   4.473   6.562   5.563 -0.9424  3.2124 -0.0546
   11SAPS     P 1343   4.533   6.653   5.805  0.2482  0.0767  0.7344
   11SAPS   O13 1344   4.648   6.560   5.813 -0.2170  0.0911  0.0929
   11SAPS   O14 1345   4.549   6.778   5.718 -0.1107 -0.0413 -0.4120
   11SAPS   O12 1346   4.403   6.578   5.766  0.4840 -0.6478 -0.3439
   11SAPS   O11 1347   4.504   6.701   5.957 -0.1304 -0.2133 -0.3140
   11SAPS    C1 1348   4.464   6.597   6.050 -0.3623 -0.3206  0.1410
   11SAPS    HA 1349   4.357   6.606   6.079  0.5250 -0.2597  3.5707
   11SAPS    HB 1350   4.477   6.494   6.012  1.4881 -0.8801  2.2233
   11SAPS    C2 1351   4.547   6.603   6.179 -0.2039  0.3836  0.0543
   11SAPS    HS 1352   4.503   6.518   6.236  0.1843  0.2991  0.2296
   11SAPS   O21 1353   4.542   6.728   6.247  0.5736  1.3574  0.0495
   11SAPS   C21 1354   4.446   6.741   6.328  0.1575 -0.5187  0.2139
   11SAPS   O22 1355   4.344   6.671   6.341  0.1772 -0.1784 -0.2473
   11SAPS   C22 1356   4.457   6.877   6.406 -0.4045 -0.5661 -0.6745
   11SAPS   H2R 1357   4.532   6.935   6.348 -0.9206  0.0984 -0.6873
   11SAPS   H2S 1358   4.354   6.917   6.393  0.3699  1.6950 -0.1060
   11SAPS    C3 1359   4.696   6.569   6.139  0.0901  0.6216  0.3213
   11SAPS    HX 1360   4.730   6.650   6.070 -0.6403  1.0590  0.4685
   11SAPS    HY 1361   4.692   6.478   6.076 -0.9884  1.4351 -0.8211
   11SAPS   O31 1362   4.793   6.548   6.248 -0.1172 -0.0525  0.0575
   11SAPS   C31 1363   4.879   6.651   6.276 -0.2109  0.0675  0.2207
   11SAPS   O32 1364   4.875   6.760   6.223 -0.1058 -0.0459 -0.0480
   11SAPS   C32 1365   4.976   6.606   6.386 -0.2023 -0.6511  0.5204
   11SAPS   H2X 1366   5.057   6.548   6.337  0.8717  1.8051 -0.6901
   11SAPS   H2Y 1367   4.920   6.543   6.458  2.1012 -2.4204  0.8009
   11SAPS   C23 1368   4.495   6.858   6.555  0.1523  0.2735 -0.2918
   11SAPS   H3R 1369   4.427   6.788   6.609  0.8443 -0.6338 -0.5809
   11SAPS   H3S 1370   4.490   6.958   6.602  2.1975 -0.3102  1.1833
   11SAPS   C24 1371   4.642   6.808   6.572  0.8391 -0.0338 -0.1609
   11SAPS   H4R 1372   4.714   6.883   6.534 -0.1778 -0.0023 -2.0647
   11SAPS   H4S 1373   4.671   6.728   6.500 -1.4055  0.4247 -1.6179
   11SAPS   C25 1374   4.669   6.759   6.712 -0.0492  0.3126  0.1658
   11SAPS   H5R 1375   4.678   6.650   6.719  2.1621  0.4427 -0.2931
   11SAPS   C26 1376   4.694   6.839   6.818  0.0332 -0.1376  0.0963
   11SAPS   H6R 1377   4.718   6.801   6.918  1.7262  2.7373  0.8355
   11SAPS   C27 1378   4.690   6.988   6.819  0.1797  0.0429 -0.4614
   11SAPS   H7R 1379   4.708   7.034   6.719 -1.3512  0.5602 -0.5051
   11SAPS   H7S 1380   4.771   7.023   6.887  0.8250 -0.1293 -1.1313
   11SAPS   C28 1381   4.553   7.038   6.862 -0.0096  0.1655  0.6861
   11SAPS   H8R 1382   4.479   7.021   6.782  1.3907  0.8626 -0.7939
   11SAPS   C29 1383   4.528   7.118   6.967  0.6316 -0.3518 -0.8170
   11SAPS   H9R 1384   4.437   7.179   6.963  0.1316 -0.8529  1.9650
   11SAPS  C210 1385   4.618   7.165   7.078 -0.0278 -0.0706  0.6940
   11SAPS  H10R 1386   4.569   7.249   7.132 -1.5805  0.6473 -1.7447
   11SAPS  H10S 1387   4.711   7.199   7.029 -0.4818  2.2664  1.3766
   11SAPS  C211 1388   4.666   7.068   7.182 -0.2554  0.4191 -0.5621
   11SAPS  H11R 1389   4.729   6.984   7.150  0.0664 -0.6370  2.6531
   11SAPS  C212 1390   4.657   7.081   7.319  0.1360 -0.8662 -0.4754
   11SAPS  H12R 1391   4.717   7.019   7.388  1.2774 -0.4499 -1.0784
   11SAPS  C213 1392   4.580   7.193   7.386 -0.5586  0.0941 -0.6216
   11SAPS  H13R 1393   4.546   7.164   7.487 -0.3003 -0.2273 -0.6283
   11SAPS  H13S 1394   4.486   7.209   7.329  1.2035  2.7453 -2.8935
   11SAPS  C214 1395   4.636   7.329   7.402  0.1622 -0.4215 -0.4236
   11SAPS  H14R 1396   4.677   7.375   7.311  1.1240  0.4157  0.4114
   11SAPS  C215 1397   4.661   7.403   7.517  0.2607  0.4227  0.0384
   11SAPS  H15R 1398   4.708   7.502   7.506 -2.0105  1.6085  0.7259
   11SAPS  C216 1399   4.642   7.370   7.665 -0.2799 -0.9037 -0.8718
   11SAPS  H16R 1400   4.580   7.277   7.669  0.5211 -1.3598  2.4592
   11SAPS  H16S 1401   4.594   7.456   7.717  0.8924 -0.9797  0.3615
   11SAPS  C217 1402   4.765   7.345   7.750 -0.6951  0.8570  0.1866
   11SAPS  H17R 1403   4.811   7.254   7.706 -0.8765 -0.0176  1.7884
   11SAPS  H17S 1404   4.732   7.316   7.852 -1.4497 -1.2683 -0.6369
   11SAPS  C218 1405   4.850   7.463   7.736 -0.9509 -0.6033 -0.4582
   11SAPS  H18R 1406   4.791   7.551   7.767 -0.4095 -0.1810 -0.6182
   11SAPS  H18S 1407   4.869   7.486   7.629  0.1248  0.6746 -0.0145
   11SAPS  C219 1408   4.975   7.452   7.821 -0.1183 -0.2998 -0.4563
   11SAPS  H19R 1409   5.049   7.528   7.787 -0.2167 -0.1564 -0.3515
   11SAPS  H19S 1410   5.030   7.355   7.813  1.5846  0.3255  2.8519
   11SAPS  C220 1411   4.950   7.466   7.973 -0.0742 -0.8947 -0.2855
   11SAPS  H20R 1412   4.906   7.563   8.001 -1.2578 -0.8141 -2.3252
   11SAPS  H20S 1413   5.050   7.463   8.021  0.0585 -1.1605 -0.5771
   11SAPS  H20T 1414   4.874   7.390   8.002 -0.5352  0.3579  1.9404
   11SAPS   C33 1415   5.040   6.723   6.459  0.2282 -1.0803  0.0786
   11SAPS   H3X 1416   4.962   6.794   6.495 -0.0340 -0.8649 -0.9162
   11SAPS   H3Y 1417   5.110   6.782   6.395  0.4442 -2.0008 -0.5372
   11SAPS   C34 1418   5.134   6.676   6.573 -0.2445  0.4985 -0.2343
   11SAPS   H4X 1419   5.182   6.771   6.604 -4.1531  2.6638 -0.5300
   11SAPS   H4Y 1420   5.215   6.613   6.531 -1.1861  1.0717 -2.9698
   11SAPS   C35 1421   5.068   6.611   6.708 -0.0176 -0.0351  0.1348
   11SAPS   H5X 1422   5.034   6.508   6.683  2.2079 -0.6900 -0.2223
   11SAPS   H5Y 1423   4.970   6.656   6.735 -0.1446 -1.1150  1.5043
   11SAPS   C36 1424   5.155   6.613   6.828  1.0392  0.3649 -0.3456
   11SAPS   H6X 1425   5.176   6.716   6.865 -0.0706  0.1717  0.8399
   11SAPS   H6Y 1426   5.249   6.564   6.794 -0.4019 -2.7675 -0.0259
   11SAPS   C37 1427   5.107   6.536   6.950  0.1441  0.3542  0.9130
   11SAPS   H7X 1428   5.056   6.444   6.917  2.2340  0.6434 -3.4816
   11SAPS   H7Y 1429   5.035   6.589   7.016  0.7130  1.3487  0.7517
   11SAPS   C38 1430   5.219   6.489   7.044 -0.1534 -0.9879  0.2932
   11SAPS   H8X 1431   5.271   6.586   7.063  0.4420 -1.2848  0.1832
   11SAPS   H8Y 1432   5.282   6.418   6.986  1.3569  0.4811  0.0940
   11SAPS   C39 1433   5.162   6.441   7.179 -0.3217 -0.3971 -0.1211
   11SAPS   H9X 1434   5.240   6.389   7.238 -0.9678  1.5143  2.4916
   11SAPS   H9Y 1435   5.086   6.365   7.150  0.8460 -2.0450  1.0267
   11SAPS  C310 1436   5.113   6.552   7.276 -0.0536  0.2433 -0.0962
   11SAPS  H10X 1437   5.012   6.588   7.245 -0.0426 -0.7385 -1.3473
   11SAPS  H10Y 1438   5.181   6.639   7.267  0.3536  0.2524  2.6932
   11SAPS  C311 1439   5.115   6.513   7.421  0.4593 -0.0886  1.0414
   11SAPS  H11X 1440   5.223   6.499   7.445  0.9634  0.6826 -0.7821
   11SAPS  H11Y 1441   5.054   6.423   7.446  0.3975  0.4924  3.1026
   11SAPS  C312 1442   5.061   6.630   7.507  0.5814 -0.0627  0.3235
   11SAPS  H12X 1443   4.964   6.655   7.458  0.5325  1.0904  1.0015
   11SAPS  H12Y 1444   5.131   6.717   7.511  1.7519 -0.9395 -0.5883
   11SAPS  C313 1445   5.040   6.592   7.650  0.0605 -0.1287 -0.4193
   11SAPS  H13X 1446   5.136   6.578   7.704  0.0063  1.4196  0.1168
   11SAPS  H13Y 1447   5.001   6.488   7.648 -1.5143  0.4617 -1.7626
   11SAPS  C314 1448   4.963   6.693   7.725  0.4976  0.6424  0.0617
   11SAPS  H14X 1449   4.939   6.635   7.817  2.4284  0.3056  0.3652
   11SAPS  H14Y 1450   4.859   6.705   7.686  0.0315 -0.0598  1.0502
   11SAPS  C315 1451   5.039   6.817   7.748  1.2690 -0.2899 -0.6161
   11SAPS  H15X 1452   5.079   6.851   7.650  4.1394 -1.4789  0.0705
   11SAPS  H15Y 1453   5.121   6.793   7.820  2.6971 -0.5746 -2.3015
   11SAPS  C316 1454   4.946   6.934   7.803 -0.1262 -0.2970 -0.0143
   11SAPS  H16X 1455   4.868   6.942   7.725 -1.2023 -0.0190  1.0746
   11SAPS  H16Y 1456   5.016   7.020   7.810  4.0222 -3.5557  0.8938
   11SAPS  C317 1457   4.879   6.900   7.937  0.5030  0.4253 -0.0919
   11SAPS  H17X 1458   4.954   6.880   8.017 -0.2043  0.2005  0.5331
   11SAPS  H17Y 1459   4.816   6.813   7.907 -3.8467  2.9288  1.2276
   11SAPS  C318 1460   4.788   7.010   7.989 -0.3447  0.4982 -0.2420
   11SAPS  H18X 1461   4.715   7.033   7.908  0.5964  1.5956 -0.7894
   11SAPS  H18Y 1462   4.840   7.104   8.017 -1.2138  0.4180  1.7402
   11SAPS  H18Z 1463   4.728   6.969   8.073 -1.0608 -0.5400 -1.2386
   12SAPS     N 1464   4.775   1.123   5.745  0.3064  0.4808 -0.8582
   12SAPS   HN1 1465   4.732   1.036   5.708  2.9418 -0.8443 -0.9349
   12SAPS   HN2 1466   4.773   1.195   5.669 -0.6661  1.3831  0.0085
   12SAPS   HN3 1467   4.874   1.110   5.776  0.0431  1.0210  0.2432
   12SAPS   C12 1468   4.699   1.184   5.866 -0.4379  0.0611  0.2159
   12SAPS  H12A 1469   4.753   1.273   5.893  0.0243  0.0370 -0.6129
   12SAPS   C13 1470   4.556   1.223   5.825 -0.9719 -0.6085 -0.6503
   12SAPS  O13A 1471   4.517   1.213   5.705 -0.1811 -0.9174 -0.6738
   12SAPS  O13B 1472   4.482   1.274   5.913 -0.0620 -0.9487  0.2443
   12SAPS   C11 1473   4.690   1.083   5.987  0.0138 -0.1553 -0.6525
   12SAPS  H11A 1474   4.639   0.990   5.953  0.6028 -0.2931 -1.1731
   12SAPS  H11B 1475   4.631   1.131   6.069 -1.9707 -2.7414 -0.4911
   12SAPS     P 1476   4.870   0.900   6.084 -0.3009  0.3300 -0.1075
   12SAPS   O13 1477   4.771   0.802   6.025  0.0199  0.2936  0.3436
   12SAPS   O14 1478   5.016   0.893   6.044 -0.7552 -0.3721 -0.0028
   12SAPS   O12 1479   4.822   1.046   6.034  0.0293 -0.2072 -0.3049
   12SAPS   O11 1480   4.867   0.906   6.242  0.4158 -0.0805  0.2974
   12SAPS    C1 1481   4.757   0.960   6.311 -0.1152 -0.7327 -0.1542
   12SAPS    HA 1482   4.736   1.065   6.280  1.0162 -0.1506  1.0009
   12SAPS    HB 1483   4.670   0.893   6.298 -0.9948  0.3904 -0.1076
   12SAPS    C2 1484   4.774   0.947   6.459  0.9677  0.5413 -0.1304
   12SAPS    HS 1485   4.858   1.014   6.486  1.8214 -0.5769 -0.0051
   12SAPS   O21 1486   4.803   0.811   6.498 -0.3779 -0.5742 -0.3742
   12SAPS   C21 1487   4.897   0.798   6.595  0.2153  0.4797  0.6428
   12SAPS   O22 1488   4.965   0.889   6.635 -0.0810  0.6080  0.7130
   12SAPS   C22 1489   4.898   0.646   6.634  0.2610 -0.3306  0.4826
   12SAPS   H2R 1490   4.793   0.610   6.629 -0.5586  1.5001  3.2084
   12SAPS   H2S 1491   4.959   0.593   6.558  0.8192  0.5227  0.3241
   12SAPS    C3 1492   4.651   0.987   6.534 -0.2769  0.2998  0.7109
   12SAPS    HX 1493   4.576   0.908   6.510  0.7920 -0.3388 -0.5479
   12SAPS    HY 1494   4.613   1.086   6.502 -0.6935  0.7208  2.4279
   12SAPS   O31 1495   4.674   0.992   6.682 -0.1535  0.7139  0.2946
   12SAPS   C31 1496   4.745   1.098   6.720  0.0435  0.3176  0.2199
   12SAPS   O32 1497   4.773   1.196   6.652 -0.3682  0.1286  0.0184
   12SAPS   C32 1498   4.794   1.071   6.862  0.1774  0.4353 -0.5647
   12SAPS   H2X 1499   4.813   1.170   6.910 -0.5368 -0.0836  0.8162
   12SAPS   H2Y 1500   4.894   1.024   6.865 -0.0671 -0.0659 -0.1225
   12SAPS   C23 1501   4.946   0.608   6.768  0.0629 -0.3076 -0.4564
   12SAPS   H3R 1502   4.894   0.672   6.842  0.8006  1.5457 -1.4993
   12SAPS   H3S 1503   5.056   0.626   6.771 -0.0880  1.0919 -2.1718
   12SAPS   C24 1504   4.912   0.461   6.810 -0.2452 -0.4416  0.6048
   12SAPS   H4R 1505   4.802   0.453   6.824 -0.6639  3.0302 -0.2840
   12SAPS   H4S 1506   4.950   0.450   6.914 -2.2627 -1.3688  1.2913
   12SAPS   C25 1507   4.956   0.352   6.711 -0.2156  0.0534  0.0667
   12SAPS   H5R 1508   4.915   0.362   6.610 -0.5821  0.6639  0.2749
   12SAPS   C26 1509   5.043   0.254   6.744  0.5488 -0.5553  0.1427
   12SAPS   H6R 1510   5.053   0.171   6.674 -1.9145 -1.2387  0.5700
   12SAPS   C27 1511   5.117   0.225   6.876  0.0807  0.1235  0.2333
   12SAPS   H7R 1512   5.122   0.322   6.931  1.5491  0.7565 -1.0010
   12SAPS   H7S 1513   5.216   0.188   6.842  1.5135  2.0572  2.1682
   12SAPS   C28 1514   5.043   0.131   6.971  0.6357  0.4727  0.0923
   12SAPS   H8R 1515   4.979   0.069   6.907  1.3194  1.7832 -1.9165
   12SAPS   C29 1516   5.060   0.121   7.104  0.1252 -0.4245 -0.4214
   12SAPS   H9R 1517   5.001   0.059   7.173  0.2461  1.8657  1.8205
   12SAPS  C210 1518   5.157   0.207   7.184  0.0132 -0.3707  0.3369
   12SAPS  H10R 1519   5.116   0.305   7.217  1.4939  0.4298 -0.1636
   12SAPS  H10S 1520   5.239   0.240   7.116  0.0898  0.8499  0.9972
   12SAPS  C211 1521   5.210   0.143   7.310 -0.0461 -0.5616  0.1564
   12SAPS  H11R 1522   5.214   0.033   7.311  0.4247 -0.5714 -1.9189
   12SAPS  C212 1523   5.255   0.203   7.421  0.0160 -0.3654  0.2317
   12SAPS  H12R 1524   5.306   0.148   7.501  2.2962 -0.5487 -1.3217
   12SAPS  C213 1525   5.255   0.354   7.428  0.3276 -0.4141 -0.0032
   12SAPS  H13R 1526   5.165   0.388   7.484  0.0569  0.1332 -0.7723
   12SAPS  H13S 1527   5.260   0.403   7.329 -2.5077  1.1498  0.5685
   12SAPS  C214 1528   5.363   0.412   7.511 -0.8002  1.0199 -0.1652
   12SAPS  H14R 1529   5.454   0.443   7.457 -1.0822 -2.0307 -2.5419
   12SAPS  C215 1530   5.366   0.432   7.643  0.4594  0.2654 -0.2923
   12SAPS  H15R 1531   5.454   0.487   7.679  0.6914 -1.1951  1.4276
   12SAPS  C216 1532   5.262   0.396   7.746 -0.9672  0.0245  0.3513
   12SAPS  H16R 1533   5.166   0.373   7.695 -0.5535  0.2209 -0.5273
   12SAPS  H16S 1534   5.240   0.485   7.809 -1.7337  0.3428 -0.3520
   12SAPS  C217 1535   5.290   0.270   7.829  0.3201 -0.5254 -0.5430
   12SAPS  H17R 1536   5.323   0.186   7.764  1.2205  0.6731 -1.6385
   12SAPS  H17S 1537   5.200   0.226   7.879  1.1963 -4.4019 -2.1554
   12SAPS  C218 1538   5.413   0.277   7.925 -0.5577  0.8224 -0.1376
   12SAPS  H18R 1539   5.496   0.312   7.860  0.4719 -0.6024  0.4158
   12SAPS  H18S 1540   5.433   0.172   7.952  0.4333  1.0556  0.0275
   12SAPS  C219 1541   5.396   0.360   8.049 -0.2208  0.1652  0.4324
   12SAPS  H19R 1542   5.377   0.465   8.017  0.2440  0.2822  0.5450
   12SAPS  H19S 1543   5.488   0.357   8.110  0.6989 -3.4551 -1.0210
   12SAPS  C220 1544   5.283   0.298   8.140 -0.2009  0.7037  0.7097
   12SAPS  H20R 1545   5.296   0.189   8.159 -0.9151  0.4862  0.0024
   12SAPS  H20S 1546   5.186   0.315   8.088  0.2977 -0.9084 -0.7962
   12SAPS  H20T 1547   5.279   0.354   8.236 -0.9009  1.1221  0.4380
   12SAPS   C33 1548   4.693   0.997   6.954  0.2939  0.6768  0.5755
   12SAPS   H3X 1549   4.716   0.890   6.937 -0.5630  0.6482 -0.4758
   12SAPS   H3Y 1550   4.586   1.002   6.924  0.7767 -3.5281 -2.2727
   12SAPS   C34 1551   4.711   1.039   7.103 -0.0478  0.3585 -0.7768
   12SAPS   H4X 1552   4.672   1.143   7.110  1.3253  0.8213  0.3548
   12SAPS   H4Y 1553   4.819   1.042   7.131 -0.2736  1.0104  0.0506
   12SAPS   C35 1554   4.624   0.960   7.203 -0.2904 -0.1230 -0.1046
   12SAPS   H5X 1555   4.664   0.856   7.207  1.6886  0.4909 -2.6661
   12SAPS   H5Y 1556   4.515   0.967   7.181 -1.5098 -2.1673  4.5591
   12SAPS   C36 1557   4.640   1.009   7.346 -0.7221 -0.4849 -0.8381
   12SAPS   H6X 1558   4.628   1.119   7.350  2.3591 -0.1154 -0.4861
   12SAPS   H6Y 1559   4.739   0.974   7.383  0.0245  0.8158 -1.5846
   12SAPS   C37 1560   4.533   0.949   7.436 -0.6421 -0.0746  0.2511
   12SAPS   H7X 1561   4.561   0.843   7.451  0.6334  0.3350  0.8294
   12SAPS   H7Y 1562   4.435   0.949   7.384  0.2705 -2.4286 -1.5475
   12SAPS   C38 1563   4.506   1.014   7.567 -0.2168  0.1920 -0.2739
   12SAPS   H8X 1564   4.431   0.952   7.621  0.3237  0.5830  0.9383
   12SAPS   H8Y 1565   4.469   1.119   7.559 -0.4733  0.0592 -0.8484
   12SAPS   C39 1566   4.632   1.019   7.648  0.2942  0.5877  0.0275
   12SAPS   H9X 1567   4.699   1.102   7.616 -0.6886  1.3728 -0.0331
   12SAPS   H9Y 1568   4.677   0.918   7.644 -0.0844  0.3665  1.2564
   12SAPS  C310 1569   4.600   1.057   7.792  0.0573  0.9336  0.1176
   12SAPS  H10X 1570   4.526   0.987   7.836  0.0036  0.8734 -0.0673
   12SAPS  H10Y 1571   4.559   1.161   7.791 -0.3464  0.7889  1.6583
   12SAPS  C311 1572   4.728   1.054   7.874 -0.6752 -0.1227  0.0050
   12SAPS  H11X 1573   4.795   1.141   7.857  1.2945 -1.3224  1.3862
   12SAPS  H11Y 1574   4.785   0.959   7.861  0.4747  0.6928 -1.0564
   12SAPS  C312 1575   4.692   1.075   8.030 -0.4720 -0.1934  0.1741
   12SAPS  H12X 1576   4.622   1.161   8.036 -0.6180 -0.3589  0.8924
   12SAPS  H12Y 1577   4.792   1.088   8.076  0.2118  1.5744 -1.7301
   12SAPS  C313 1578   4.608   0.967   8.101  0.3205  0.2202 -0.2249
   12SAPS  H13X 1579   4.649   0.865   8.083  0.4592  0.3484 -0.6437
   12SAPS  H13Y 1580   4.505   0.973   8.061  0.3819  0.9874 -0.2775
   12SAPS  C314 1581   4.598   0.979   8.257  0.1108  0.2194  0.0624
   12SAPS  H14X 1582   4.558   1.081   8.277  0.6488  0.3253  0.6006
   12SAPS  H14Y 1583   4.698   0.981   8.305 -1.0376  2.3283  2.4986
   12SAPS  C315 1584   4.511   0.864   8.322  0.6033  0.7659  0.8744
   12SAPS  H15X 1585   4.565   0.768   8.311  2.0132  1.4126  2.1101
   12SAPS  H15Y 1586   4.410   0.852   8.276  1.2105 -0.0840 -0.2633
   12SAPS  C316 1587   4.484   0.886   8.475  0.2012 -0.5813  0.6901
   12SAPS  H16X 1588   4.570   0.874   8.543  2.3147 -2.8068 -2.2513
   12SAPS  H16Y 1589   4.420   0.801   8.507  0.8388 -1.1161  0.5414
   12SAPS  C317 1590   4.416   1.023   8.502  0.3074 -0.4544  0.6980
   12SAPS  H17X 1591   4.329   1.012   8.433  1.4157 -0.5549 -0.6893
   12SAPS  H17Y 1592   4.492   1.094   8.464  0.3209 -0.5269  0.5853
   12SAPS  C318 1593   4.373   1.052   8.648 -0.0644  0.1014 -0.2275
   12SAPS  H18X 1594   4.450   1.034   8.727  0.0459  2.0255  0.1397
   12SAPS  H18Y 1595   4.281   0.994   8.670 -0.4605  0.2124 -1.5697
   12SAPS  H18Z 1596   4.346   1.159   8.635  0.6050  0.1636 -1.1809
   13SAPS     N 1597   4.566   5.554   5.862  0.4145  0.2308 -0.0606
   13SAPS   HN1 1598   4.543   5.560   5.761 -0.4382 -5.7198 -0.3886
   13SAPS   HN2 1599   4.491   5.488   5.891 -1.3114  3.0723  2.1290
   13SAPS   HN3 1600   4.561   5.650   5.902  0.4563  1.5583 -3.1519
   13SAPS   C12 1601   4.690   5.473   5.886  0.4943  0.0135 -0.4823
   13SAPS  H12A 1602   4.683   5.399   5.807  0.7751  0.9787 -1.4153
   13SAPS   C13 1603   4.821   5.539   5.876 -0.1974 -0.6412  0.6197
   13SAPS  O13A 1604   4.825   5.660   5.844  0.2580 -0.2327 -0.0606
   13SAPS  O13B 1605   4.927   5.475   5.862 -0.4098 -0.1187  0.2889
   13SAPS   C11 1606   4.677   5.423   6.031  0.8962  0.5077  0.0455
   13SAPS  H11A 1607   4.665   5.507   6.102 -0.0272  0.9162 -0.5817
   13SAPS  H11B 1608   4.774   5.371   6.045  1.2833  1.2722  0.2124
   13SAPS     P 1609   4.497   5.290   6.186 -0.0031 -0.0933  0.2568
   13SAPS   O13 1610   4.380   5.382   6.200  0.0483 -0.9575 -0.3379
   13SAPS   O14 1611   4.464   5.146   6.186 -0.1388  0.2128 -0.1182
   13SAPS   O12 1612   4.570   5.322   6.049  0.0732 -0.7388  0.3401
   13SAPS   O11 1613   4.613   5.323   6.290 -1.3288 -0.1977 -0.1948
   13SAPS    C1 1614   4.702   5.218   6.340  0.4837 -0.1469  0.2996
   13SAPS    HA 1615   4.720   5.135   6.267 -0.9272 -0.0869 -0.1211
   13SAPS    HB 1616   4.805   5.258   6.353 -0.3807  1.7833  1.2426
   13SAPS    C2 1617   4.637   5.151   6.465 -0.2512 -0.6352  0.3733
   13SAPS    HS 1618   4.573   5.068   6.429  0.6826 -2.1888  2.2196
   13SAPS   O21 1619   4.565   5.242   6.551  0.1037 -0.5236  0.1396
   13SAPS   C21 1620   4.460   5.187   6.605 -0.7870  0.0435  0.4660
   13SAPS   O22 1621   4.430   5.070   6.595  0.8420 -0.1954 -0.8833
   13SAPS   C22 1622   4.387   5.296   6.676 -0.6802 -0.7414  0.8126
   13SAPS   H2R 1623   4.464   5.361   6.722 -0.5716  0.7607 -1.3992
   13SAPS   H2S 1624   4.335   5.346   6.591 -0.6594  0.4380  1.4730
   13SAPS    C3 1625   4.748   5.083   6.548  0.0554 -0.2587 -0.0152
   13SAPS    HX 1626   4.800   5.002   6.492  1.6835 -0.3917  1.6462
   13SAPS    HY 1627   4.701   5.030   6.633  0.2389 -0.0568  0.2122
   13SAPS   O31 1628   4.847   5.169   6.595 -0.2793  0.1956 -0.2278
   13SAPS   C31 1629   4.823   5.227   6.717  0.1250  0.5191  0.4050
   13SAPS   O32 1630   4.730   5.210   6.790  0.2330  0.2263  0.2141
   13SAPS   C32 1631   4.927   5.333   6.753 -0.8010 -1.3095  0.1153
   13SAPS   H2X 1632   4.966   5.368   6.655 -0.1030 -0.2105  0.7731
   13SAPS   H2Y 1633   5.007   5.280   6.810 -1.1655  0.3877  2.2570
   13SAPS   C23 1634   4.294   5.240   6.780  0.0150 -0.2965 -0.1307
   13SAPS   H3R 1635   4.215   5.171   6.741  0.4018 -1.7812  1.6472
   13SAPS   H3S 1636   4.238   5.328   6.817  2.7050  1.4010  0.0191
   13SAPS   C24 1637   4.383   5.202   6.911 -0.2082 -0.2544 -0.1679
   13SAPS   H4R 1638   4.425   5.294   6.959  1.2875 -0.1536 -1.6496
   13SAPS   H4S 1639   4.473   5.152   6.871 -1.1197 -0.6731 -1.7120
   13SAPS   C25 1640   4.320   5.097   7.001  0.3309 -0.7022 -0.7654
   13SAPS   H5R 1641   4.293   5.000   6.958  1.6180 -1.0851 -0.7229
   13SAPS   C26 1642   4.274   5.114   7.129 -0.0028  0.7860 -0.2656
   13SAPS   H6R 1643   4.230   5.025   7.177  2.3309 -0.7740 -0.9626
   13SAPS   C27 1644   4.265   5.244   7.198  0.1315 -0.3000  0.3817
   13SAPS   H7R 1645   4.320   5.325   7.145 -1.4298  0.8396  0.4588
   13SAPS   H7S 1646   4.311   5.240   7.300  1.0256  1.4407  0.0759
   13SAPS   C28 1647   4.130   5.295   7.208  0.0657  0.2633  0.5096
   13SAPS   H8R 1648   4.080   5.326   7.115  1.8879 -1.7787 -1.1790
   13SAPS   C29 1649   4.059   5.320   7.322 -0.3499 -0.5256  0.1659
   13SAPS   H9R 1650   3.955   5.357   7.314 -0.0908 -0.1657 -1.8673
   13SAPS  C210 1651   4.104   5.308   7.469 -0.7820  0.2052 -0.1610
   13SAPS  H10R 1652   4.032   5.359   7.536 -0.9587  0.4442 -0.5332
   13SAPS  H10S 1653   4.192   5.375   7.478 -1.3805  0.9696  0.0566
   13SAPS  C211 1654   4.130   5.172   7.526 -0.1402  0.3070 -0.6945
   13SAPS  H11R 1655   4.089   5.082   7.478 -1.2897 -0.0323  0.8632
   13SAPS  C212 1656   4.212   5.141   7.622 -0.1317  0.0828 -0.0765
   13SAPS  H12R 1657   4.215   5.040   7.665 -0.2989 -0.2150 -0.7586
   13SAPS  C213 1658   4.300   5.241   7.693 -0.5659 -0.0750  0.1941
   13SAPS  H13R 1659   4.240   5.265   7.784 -0.2384 -2.0538  0.9748
   13SAPS  H13S 1660   4.314   5.336   7.638 -0.4881 -0.9982 -1.4244
   13SAPS  C214 1661   4.430   5.176   7.739  0.4363  0.6653  0.5393
   13SAPS  H14R 1662   4.467   5.089   7.684 -1.5008 -1.1112  1.9572
   13SAPS  C215 1663   4.490   5.220   7.846 -0.2471 -0.1269 -0.8446
   13SAPS  H15R 1664   4.583   5.173   7.883  0.1237  0.8392 -0.5230
   13SAPS  C216 1665   4.454   5.343   7.933 -0.0796  0.0776  0.3320
   13SAPS  H16R 1666   4.419   5.419   7.861  1.2467  1.7121  1.3701
   13SAPS  H16S 1667   4.543   5.390   7.980  0.1991 -0.1904  0.0761
   13SAPS  C217 1668   4.352   5.307   8.049  0.0901 -0.6085  0.5128
   13SAPS  H17R 1669   4.259   5.259   8.012 -0.0233  0.2742 -0.4001
   13SAPS  H17S 1670   4.320   5.404   8.093  1.4039 -0.8013  1.9499
   13SAPS  C218 1671   4.417   5.227   8.165  0.6970 -0.1719 -0.7139
   13SAPS  H18R 1672   4.519   5.261   8.193  0.5943  0.2215 -0.8153
   13SAPS  H18S 1673   4.413   5.119   8.140  0.1773 -0.4302  0.4210
   13SAPS  C219 1674   4.336   5.240   8.299  0.0941 -0.4103  0.5854
   13SAPS  H19R 1675   4.227   5.229   8.279  0.3790  0.1176 -1.4260
   13SAPS  H19S 1676   4.355   5.343   8.336 -0.7438  0.6799 -1.8882
   13SAPS  C220 1677   4.373   5.146   8.416  0.2166  0.4845 -0.2039
   13SAPS  H20R 1678   4.293   5.140   8.494  1.0466 -4.2161  0.3885
   13SAPS  H20S 1679   4.467   5.182   8.463  0.0147  0.7630 -0.0042
   13SAPS  H20T 1680   4.389   5.045   8.374 -2.8776  0.1974 -0.8277
   13SAPS   C33 1681   4.874   5.453   6.833  0.1066  0.2483  0.3746
   13SAPS   H3X 1682   4.777   5.471   6.782  0.6208  1.4837 -0.1738
   13SAPS   H3Y 1683   4.948   5.533   6.813  1.9840 -2.0119 -1.9958
   13SAPS   C34 1684   4.861   5.426   6.980  0.6574  0.0277  0.7690
   13SAPS   H4X 1685   4.964   5.423   7.022  0.6047 -0.9004  0.8481
   13SAPS   H4Y 1686   4.813   5.329   7.007  2.2014 -0.9327  0.1342
   13SAPS   C35 1687   4.772   5.527   7.048 -0.6191  0.0203  0.2045
   13SAPS   H5X 1688   4.673   5.525   6.998 -0.8227  1.4790  0.5239
   13SAPS   H5Y 1689   4.813   5.630   7.041  0.2110 -0.2112  1.4141
   13SAPS   C36 1690   4.746   5.507   7.196 -0.8126 -0.7161  0.1776
   13SAPS   H6X 1691   4.666   5.576   7.231 -0.2880  0.3500 -0.7198
   13SAPS   H6Y 1692   4.849   5.525   7.234 -0.4930 -2.4010  0.1716
   13SAPS   C37 1693   4.700   5.366   7.229 -1.4622  0.4978 -0.2803
   13SAPS   H7X 1694   4.784   5.300   7.198 -0.6846  2.0894 -1.6941
   13SAPS   H7Y 1695   4.609   5.340   7.172 -0.3509 -1.9348 -1.0336
   13SAPS   C38 1696   4.681   5.353   7.382 -0.1119  0.3227  0.3800
   13SAPS   H8X 1697   4.616   5.263   7.388  0.1884  0.0141 -0.7997
   13SAPS   H8Y 1698   4.605   5.423   7.422  0.5794  1.7707 -0.7808
   13SAPS   C39 1699   4.809   5.343   7.469 -0.2848  0.4751  0.2186
   13SAPS   H9X 1700   4.870   5.433   7.446  0.9839 -0.8568 -1.7093
   13SAPS   H9Y 1701   4.868   5.257   7.432 -2.0734 -0.4604 -0.5467
   13SAPS  C310 1702   4.773   5.343   7.620 -0.1679 -0.8475 -0.1420
   13SAPS  H10X 1703   4.711   5.251   7.626  0.3581 -1.2074 -0.2014
   13SAPS  H10Y 1704   4.717   5.435   7.647 -1.3690 -1.0833 -1.7712
   13SAPS  C311 1705   4.884   5.344   7.729 -0.1611 -0.1121  0.2962
   13SAPS  H11X 1706   4.928   5.446   7.720  1.2772 -0.8609 -1.2441
   13SAPS  H11Y 1707   4.954   5.270   7.686  1.4048  1.9824 -0.8533
   13SAPS  C312 1708   4.838   5.319   7.870  1.5171 -0.4920 -0.4145
   13SAPS  H12X 1709   4.803   5.215   7.886  3.0571 -0.7291  1.6570
   13SAPS  H12Y 1710   4.754   5.390   7.886  3.1520  1.6830 -1.2511
   13SAPS  C313 1711   4.945   5.353   7.973  1.1575 -0.3667 -0.0011
   13SAPS  H13X 1712   4.956   5.464   7.977 -1.9037 -0.0527  1.1241
   13SAPS  H13Y 1713   5.039   5.297   7.955  1.4266  0.4471 -1.2210
   13SAPS  C314 1714   4.892   5.322   8.118  0.0937  0.0310 -1.2928
   13SAPS  H14X 1715   4.933   5.222   8.147  0.9257  0.7663  0.1026
   13SAPS  H14Y 1716   4.781   5.332   8.111 -0.2022 -1.2491  0.7988
   13SAPS  C315 1717   4.945   5.428   8.220 -0.5859  0.1173  0.9290
   13SAPS  H15X 1718   4.887   5.521   8.204  1.3954  0.8359 -2.5389
   13SAPS  H15Y 1719   5.050   5.460   8.207 -0.4782  0.0191  1.5720
   13SAPS  C316 1720   4.944   5.375   8.361  0.0426  0.1438  0.1578
   13SAPS  H16X 1721   4.856   5.308   8.370 -0.7101  1.1162  0.0681
   13SAPS  H16Y 1722   4.935   5.455   8.438  1.4101 -1.2921  1.8663
   13SAPS  C317 1723   5.069   5.292   8.407  0.0095  0.2502 -0.1974
   13SAPS  H17X 1724   5.163   5.347   8.385  0.3876  0.0194  0.8204
   13SAPS  H17Y 1725   5.077   5.195   8.354 -0.5346  0.0481  0.0940
   13SAPS  C318 1726   5.075   5.271   8.558 -0.3496 -0.1084  0.1621
   13SAPS  H18X 1727   5.168   5.223   8.596 -0.8592 -0.2195  1.2824
   13SAPS  H18Y 1728   4.989   5.206   8.585 -0.4490 -0.8380 -1.8233
   13SAPS  H18Z 1729   5.087   5.371   8.603  1.3195 -0.3242  0.2514
   14SAPS     N 1730   4.745   0.638   5.797 -0.2975 -0.2043  0.4110
   14SAPS   HN1 1731   4.772   0.694   5.880 -0.3179 -2.6198  2.0798
   14SAPS   HN2 1732   4.649   0.674   5.777  0.1304  0.8749  0.2196
   14SAPS   HN3 1733   4.753   0.543   5.838  2.7997 -0.6975 -1.1839
   14SAPS   C12 1734   4.849   0.674   5.692  0.8566  0.0663  0.6496
   14SAPS  H12A 1735   4.849   0.599   5.614  1.4896  1.8637 -1.1001
   14SAPS   C13 1736   4.808   0.809   5.623  0.3438  0.1385  0.9389
   14SAPS  O13A 1737   4.706   0.870   5.668  0.2754 -0.0567  0.8672
   14SAPS  O13B 1738   4.896   0.859   5.548  0.1041 -0.6420  0.1055
   14SAPS   C11 1739   4.981   0.657   5.758  0.5471  0.7755  0.3148
   14SAPS  H11A 1740   4.993   0.736   5.835 -0.1332  1.2117 -0.0243
   14SAPS  H11B 1741   5.066   0.676   5.689 -0.8510  2.3501 -1.0076
   14SAPS     P 1742   5.138   0.482   5.882  0.0607 -0.0746 -0.0368
   14SAPS   O13 1743   5.190   0.348   5.834 -0.2740 -0.2517 -0.4278
   14SAPS   O14 1744   5.233   0.591   5.866  0.1975  0.5915 -1.1459
   14SAPS   O12 1745   5.002   0.520   5.805 -0.3454 -0.5548  0.7216
   14SAPS   O11 1746   5.105   0.464   6.035 -0.0457  0.2778  0.4681
   14SAPS    C1 1747   5.022   0.565   6.097  1.1834 -0.1057  0.8984
   14SAPS    HA 1748   5.068   0.667   6.096  1.6691 -0.3287  0.0301
   14SAPS    HB 1749   4.928   0.570   6.038  1.1961 -2.0645  0.6799
   14SAPS    C2 1750   4.980   0.539   6.251 -0.3245  0.2355 -0.7967
   14SAPS    HS 1751   5.004   0.631   6.308  1.3820 -0.7642  0.1489
   14SAPS   O21 1752   5.052   0.429   6.302  0.2836 -1.0726  0.2164
   14SAPS   C21 1753   5.181   0.454   6.336 -0.1307 -0.6178 -0.1438
   14SAPS   O22 1754   5.229   0.566   6.330 -0.1986 -0.5526  0.1750
   14SAPS   C22 1755   5.241   0.337   6.413  0.4825  0.1979 -0.2462
   14SAPS   H2R 1756   5.164   0.301   6.484 -2.2609  0.3065 -3.0440
   14SAPS   H2S 1757   5.258   0.265   6.330  0.0909 -1.5304  1.1622
   14SAPS    C3 1758   4.824   0.516   6.270 -0.0940  0.0634  0.1358
   14SAPS    HX 1759   4.819   0.425   6.207 -2.3333  0.1862  0.0965
   14SAPS    HY 1760   4.769   0.600   6.222  0.5828 -0.1402 -0.9992
   14SAPS   O31 1761   4.768   0.482   6.398  0.0268  0.0271 -0.6386
   14SAPS   C31 1762   4.649   0.426   6.388  0.4600 -0.3383 -0.3277
   14SAPS   O32 1763   4.586   0.396   6.285  0.8312  0.1045 -0.1188
   14SAPS   C32 1764   4.590   0.411   6.536 -0.1652 -0.3702 -0.3306
   14SAPS   H2X 1765   4.672   0.429   6.610 -2.4117 -0.3813  2.2277
   14SAPS   H2Y 1766   4.570   0.303   6.551  0.4288 -0.7707 -2.2965
   14SAPS   C23 1767   5.378   0.374   6.479  0.0540 -1.0238 -0.6238
   14SAPS   H3R 1768   5.430   0.431   6.399 -2.4007 -0.1833 -1.6974
   14SAPS   H3S 1769   5.433   0.280   6.498  2.1683  0.7342  2.2622
   14SAPS   C24 1770   5.383   0.462   6.600  0.1925 -0.0620 -0.5357
   14SAPS   H4R 1771   5.332   0.404   6.681  2.1356  0.4773  1.1198
   14SAPS   H4S 1772   5.322   0.555   6.596  0.6896  0.5098  3.2498
   14SAPS   C25 1773   5.519   0.505   6.653  0.5854 -0.1011  0.1727
   14SAPS   H5R 1774   5.594   0.527   6.575 -0.9952  2.3395 -0.6956
   14SAPS   C26 1775   5.558   0.526   6.780 -0.0343 -0.5398 -0.5127
   14SAPS   H6R 1776   5.660   0.557   6.807  0.3268 -1.3469 -0.9346
   14SAPS   C27 1777   5.456   0.525   6.897 -0.5925  0.3366 -0.0140
   14SAPS   H7R 1778   5.478   0.452   6.978 -0.5580  0.9001  0.4963
   14SAPS   H7S 1779   5.350   0.506   6.868 -0.4173  2.6186 -2.3350
   14SAPS   C28 1780   5.450   0.666   6.959 -0.6180  0.2519 -0.4277
   14SAPS   H8R 1781   5.403   0.739   6.891 -1.3309  0.6839  0.5227
   14SAPS   C29 1782   5.491   0.708   7.078  0.7005 -0.6173 -0.0549
   14SAPS   H9R 1783   5.488   0.816   7.100 -0.7658 -0.2055 -2.1659
   14SAPS  C210 1784   5.542   0.615   7.182 -0.0805 -0.1480  0.4043
   14SAPS  H10R 1785   5.607   0.538   7.136  0.3194 -0.8991  2.1659
   14SAPS  H10S 1786   5.452   0.558   7.212  1.0157 -1.3517  1.4802
   14SAPS  C211 1787   5.611   0.670   7.306  0.2205 -0.1826 -0.4071
   14SAPS  H11R 1788   5.720   0.657   7.316  0.1105 -0.3575  0.5289
   14SAPS  C212 1789   5.552   0.744   7.403 -0.0567 -0.2288 -0.2762
   14SAPS  H12R 1790   5.611   0.785   7.486 -0.4814  1.6392 -0.8702
   14SAPS  C213 1791   5.403   0.787   7.406 -0.4238  0.9332  0.2312
   14SAPS  H13R 1792   5.334   0.716   7.456  0.5421 -0.0590  0.1732
   14SAPS  H13S 1793   5.358   0.797   7.305 -1.3647  0.2840  0.5679
   14SAPS  C214 1794   5.374   0.918   7.472 -0.2950 -0.0459  0.3487
   14SAPS  H14R 1795   5.290   0.914   7.542 -0.4903  0.7499  0.1603
   14SAPS  C215 1796   5.424   1.042   7.438 -0.5426 -0.0103 -0.1857
   14SAPS  H15R 1797   5.385   1.125   7.498  0.9708  0.6012 -0.0370
   14SAPS  C216 1798   5.524   1.074   7.332  0.4750  0.7121  0.4728
   14SAPS  H16R 1799   5.463   1.104   7.245 -0.1481  0.5099  0.8426
   14SAPS  H16S 1800   5.590   0.989   7.302 -1.3255 -0.1802 -1.0240
   14SAPS  C217 1801   5.614   1.184   7.371 -0.9347 -0.2303  0.5881
   14SAPS  H17R 1802   5.559   1.280   7.383 -0.5966  0.2198 -1.3149
   14SAPS  H17S 1803   5.692   1.194   7.293  0.1565  0.0460  1.7065
   14SAPS  C218 1804   5.682   1.183   7.506  0.2234  0.2162  0.1098
   14SAPS  H18R 1805   5.748   1.094   7.515 -1.3300 -0.9875 -0.2451
   14SAPS  H18S 1806   5.608   1.188   7.588  0.9497 -0.5668  0.8258
   14SAPS  C219 1807   5.777   1.300   7.525  0.3702  0.1881  0.1464
   14SAPS  H19R 1808   5.786   1.322   7.633  1.7145 -1.6295  0.4335
   14SAPS  H19S 1809   5.743   1.395   7.479 -0.3737  0.6381  1.6313
   14SAPS  C220 1810   5.923   1.279   7.475 -0.0198  0.3067 -0.6821
   14SAPS  H20R 1811   5.925   1.271   7.364  0.0898  0.8785 -0.7221
   14SAPS  H20S 1812   5.963   1.184   7.517  2.0378  1.6166  0.4221
   14SAPS  H20T 1813   5.990   1.360   7.510 -0.8458 -0.5375  3.1053
   14SAPS   C33 1814   4.465   0.494   6.564 -0.3110  0.2834  0.1469
   14SAPS   H3X 1815   4.389   0.437   6.620  0.3190  1.2281  2.0042
   14SAPS   H3Y 1816   4.418   0.521   6.467 -0.0963 -3.3507 -1.0599
   14SAPS   C34 1817   4.503   0.623   6.632 -0.2466 -0.5245  0.2466
   14SAPS   H4X 1818   4.575   0.672   6.562 -2.1500  0.0585 -1.3489
   14SAPS   H4Y 1819   4.561   0.605   6.725 -0.1321  1.4770  0.5864
   14SAPS   C35 1820   4.388   0.713   6.646 -0.4061 -1.0011 -0.2812
   14SAPS   H5X 1821   4.354   0.731   6.542  0.1022 -3.1931 -0.8305
   14SAPS   H5Y 1822   4.417   0.815   6.678  1.3743 -1.7159  0.4475
   14SAPS   C36 1823   4.270   0.659   6.736 -0.2411  0.8403 -0.8098
   14SAPS   H6X 1824   4.266   0.548   6.728 -0.0902  0.8933 -1.6339
   14SAPS   H6Y 1825   4.176   0.697   6.691 -2.4332  0.2403  3.0362
   14SAPS   C37 1826   4.266   0.702   6.886 -0.1944 -0.8784  0.4349
   14SAPS   H7X 1827   4.198   0.788   6.902  0.1580 -0.8095  1.5845
   14SAPS   H7Y 1828   4.362   0.745   6.922  0.9497 -1.1878 -2.1501
   14SAPS   C38 1829   4.213   0.592   6.979 -0.3851  0.2608 -0.5281
   14SAPS   H8X 1830   4.282   0.505   6.980  1.2140  1.4821  3.1072
   14SAPS   H8Y 1831   4.113   0.561   6.942 -0.7055 -0.9083  1.2343
   14SAPS   C39 1832   4.187   0.639   7.124 -0.8156  0.2900 -0.2280
   14SAPS   H9X 1833   4.157   0.549   7.182  0.2693  1.2462  1.8497
   14SAPS   H9Y 1834   4.103   0.711   7.121 -0.4043  0.7348 -1.2128
   14SAPS  C310 1835   4.306   0.700   7.198  0.3682  0.0133  0.2690
   14SAPS  H10X 1836   4.321   0.806   7.170 -2.8766 -0.3923 -3.4454
   14SAPS  H10Y 1837   4.403   0.650   7.175  0.9465  1.2276  0.0284
   14SAPS  C311 1838   4.283   0.686   7.351  0.2797 -0.4467  0.3769
   14SAPS  H11X 1839   4.371   0.723   7.408  0.6150  1.4603 -1.2943
   14SAPS  H11Y 1840   4.278   0.579   7.378 -0.0142 -0.8648 -1.2516
   14SAPS  C312 1841   4.153   0.757   7.388 -0.2246 -0.7728  0.7961
   14SAPS  H12X 1842   4.071   0.722   7.322  3.1691 -0.4355 -3.8620
   14SAPS  H12Y 1843   4.158   0.866   7.370  0.8320 -0.5688  2.1631
   14SAPS  C313 1844   4.098   0.728   7.527  0.1220  0.1079 -0.1330
   14SAPS  H13X 1845   4.105   0.617   7.537  0.4332  0.2398  1.0969
   14SAPS  H13Y 1846   3.994   0.767   7.530 -0.3541 -1.2505  1.2464
   14SAPS  C314 1847   4.195   0.802   7.634 -0.1706  0.1859  0.5220
   14SAPS  H14X 1848   4.213   0.909   7.606  0.1032 -0.3275 -1.3769
   14SAPS  H14Y 1849   4.294   0.753   7.643  0.0063 -0.0558 -2.2466
   14SAPS  C315 1850   4.138   0.799   7.775 -0.3225  0.3869  0.1602
   14SAPS  H15X 1851   4.126   0.698   7.818 -3.5314  0.4201 -0.5519
   14SAPS  H15Y 1852   4.041   0.852   7.771  0.0333  0.9240 -2.1245
   14SAPS  C316 1853   4.228   0.868   7.882  0.1345 -0.1162  0.5306
   14SAPS  H16X 1854   4.285   0.953   7.839  0.5567 -0.2752  0.7685
   14SAPS  H16Y 1855   4.305   0.791   7.905 -2.5067 -2.5954  1.3899
   14SAPS  C317 1856   4.155   0.899   8.007  0.0543  0.9527 -0.0564
   14SAPS  H17X 1857   4.094   0.989   7.985 -0.9299  0.2773 -0.1528
   14SAPS  H17Y 1858   4.216   0.930   8.095  0.4185 -0.2346  0.1293
   14SAPS  C318 1859   4.063   0.782   8.061  0.3754 -0.0602 -0.1177
   14SAPS  H18X 1860   3.975   0.760   7.997 -0.3948  2.0054  0.1902
   14SAPS  H18Y 1861   4.017   0.809   8.159 -1.0253 -2.8287  0.0472
   14SAPS  H18Z 1862   4.121   0.691   8.084  2.0969  1.3311  1.1995
   15SAPS     N 1863   5.751   0.406   5.822  0.0915  0.1082  0.2442
   15SAPS   HN1 1864   5.782   0.308   5.808 -0.2864 -0.1367  1.0483
   15SAPS   HN2 1865   5.698   0.424   5.910 -1.5682 -0.6864 -0.5738
   15SAPS   HN3 1866   5.686   0.418   5.741 -3.5835 -0.7199  2.9105
   15SAPS   C12 1867   5.851   0.510   5.807 -0.6755  0.0559 -0.0297
   15SAPS  H12A 1868   5.904   0.488   5.715  0.3745 -0.6470  0.7269
   15SAPS   C13 1869   5.804   0.657   5.797 -0.4182  0.1763 -0.0833
   15SAPS  O13A 1870   5.675   0.665   5.793 -0.3268 -0.1472 -0.2183
   15SAPS  O13B 1871   5.879   0.755   5.806 -0.2106 -0.2323  0.1616
   15SAPS   C11 1872   5.954   0.491   5.926  0.1084  0.8345  0.2281
   15SAPS  H11A 1873   5.890   0.502   6.016  1.9042  2.3325  1.3561
   15SAPS  H11B 1874   6.026   0.576   5.929  1.0526  0.0741 -0.4351
   15SAPS     P 1875   6.006   0.235   5.965  0.5218  0.1888 -0.5189
   15SAPS   O13 1876   5.895   0.181   5.876  0.3787 -0.3356 -0.3788
   15SAPS   O14 1877   6.130   0.156   5.977 -0.6246  0.1364 -0.1247
   15SAPS   O12 1878   6.037   0.384   5.926 -0.3359  0.2458  0.7619
   15SAPS   O11 1879   5.947   0.252   6.112  0.5428 -0.7370 -0.5469
   15SAPS    C1 1880   6.030   0.298   6.218  0.1623  0.2541  0.6472
   15SAPS    HA 1881   6.107   0.370   6.183 -0.0635 -0.5301 -1.5339
   15SAPS    HB 1882   5.968   0.356   6.290  0.9564  1.2477  0.5390
   15SAPS    C2 1883   6.082   0.173   6.290 -0.2954 -0.3564 -0.0889
   15SAPS    HS 1884   6.155   0.126   6.221  1.8374 -1.9374  3.1401
   15SAPS   O21 1885   5.968   0.084   6.318  0.3717 -0.2498  0.1514
   15SAPS   C21 1886   6.000  -0.051   6.318 -0.9863 -0.4339  0.5105
   15SAPS   O22 1887   6.112  -0.097   6.311  0.1765  0.2994  0.3417
   15SAPS   C22 1888   5.880  -0.142   6.339 -0.4509  0.1872 -0.4432
   15SAPS   H2R 1889   5.794  -0.077   6.311  0.4937  0.9478 -1.6387
   15SAPS   H2S 1890   5.895  -0.230   6.273 -1.7342 -1.3958  1.3374
   15SAPS    C3 1891   6.163   0.209   6.419 -0.5018 -0.4044 -0.0959
   15SAPS    HX 1892   6.214   0.304   6.390 -1.1363  0.4782  1.5970
   15SAPS    HY 1893   6.235   0.126   6.437  2.0704  1.5953 -0.8467
   15SAPS   O31 1894   6.065   0.220   6.523 -0.3876 -0.0075  0.4261
   15SAPS   C31 1895   6.012   0.334   6.547  0.8002  0.0709 -0.7259
   15SAPS   O32 1896   6.066   0.444   6.531  0.1621 -0.3750  0.1094
   15SAPS   C32 1897   5.874   0.318   6.596 -0.0875  0.6715 -0.5528
   15SAPS   H2X 1898   5.820   0.266   6.514 -0.2680  0.2051 -0.1377
   15SAPS   H2Y 1899   5.834   0.421   6.596  1.6855  1.3953  0.6021
   15SAPS   C23 1900   5.855  -0.194   6.484  0.0901 -0.5151 -0.4565
   15SAPS   H3R 1901   5.938  -0.258   6.520  1.4268  1.0201 -0.7879
   15SAPS   H3S 1902   5.766  -0.261   6.477 -0.0890 -0.6377  2.6092
   15SAPS   C24 1903   5.840  -0.074   6.583 -0.4003  0.5345  0.2673
   15SAPS   H4R 1904   5.758  -0.007   6.550  0.7310  0.8188 -2.0176
   15SAPS   H4S 1905   5.935  -0.019   6.597  1.1104 -1.8975 -0.2090
   15SAPS   C25 1906   5.809  -0.107   6.724  0.3750 -0.4486 -0.7806
   15SAPS   H5R 1907   5.890  -0.157   6.779 -0.0313  0.9278  1.1048
   15SAPS   C26 1908   5.686  -0.080   6.776 -0.6376 -0.4532  0.5989
   15SAPS   H6R 1909   5.675  -0.102   6.884 -0.3147 -0.9304  0.5384
   15SAPS   C27 1910   5.553  -0.021   6.730  0.4547  0.0821 -0.8596
   15SAPS   H7R 1911   5.476  -0.101   6.738  0.2199  0.4785  1.4125
   15SAPS   H7S 1912   5.558   0.000   6.622  0.0333 -1.5585 -1.2123
   15SAPS   C28 1913   5.502   0.099   6.809 -0.1041  0.3084 -0.5061
   15SAPS   H8R 1914   5.500   0.193   6.751 -0.7451 -0.7298 -2.1942
   15SAPS   C29 1915   5.473   0.107   6.941  0.7926  0.6082 -0.0549
   15SAPS   H9R 1916   5.448   0.209   6.974 -1.1428  0.7716 -1.9006
   15SAPS  C210 1917   5.475  -0.006   7.048 -0.0919 -0.0972 -0.4987
   15SAPS  H10R 1918   5.485  -0.101   6.991  0.4358 -0.2530 -0.1534
   15SAPS  H10S 1919   5.382  -0.022   7.106  0.8683  0.9031  1.3968
   15SAPS  C211 1920   5.596   0.003   7.127  0.6178  0.7709 -0.1192
   15SAPS  H11R 1921   5.678   0.051   7.072  1.7900 -0.7807  0.2500
   15SAPS  C212 1922   5.616  -0.035   7.254 -0.4534  0.2266  0.1494
   15SAPS  H12R 1923   5.720  -0.024   7.288  0.3198 -1.2215 -1.6218
   15SAPS  C213 1924   5.512  -0.099   7.342 -0.5120 -0.2556 -0.4240
   15SAPS  H13R 1925   5.419  -0.127   7.287 -1.9906  1.6043  1.0724
   15SAPS  H13S 1926   5.484  -0.021   7.416  1.6731  0.6077 -0.4594
   15SAPS  C214 1927   5.546  -0.228   7.412 -0.4663 -0.2865  0.1233
   15SAPS  H14R 1928   5.605  -0.301   7.355 -2.4161 -1.4021 -0.5121
   15SAPS  C215 1929   5.503  -0.263   7.539  0.0070  0.1504  0.3554
   15SAPS  H15R 1930   5.536  -0.359   7.581  0.0413  0.2110  0.4630
   15SAPS  C216 1931   5.404  -0.180   7.613  0.1971  0.2116 -0.1514
   15SAPS  H16R 1932   5.349  -0.246   7.684  1.1385 -0.9281 -0.4628
   15SAPS  H16S 1933   5.328  -0.150   7.538 -0.5160  0.8367  0.8107
   15SAPS  C217 1934   5.475  -0.065   7.683 -0.1092  0.1539 -0.1156
   15SAPS  H17R 1935   5.405   0.021   7.690  1.8842  1.8075 -0.0519
   15SAPS  H17S 1936   5.558  -0.017   7.626 -0.5238  0.0030 -0.8580
   15SAPS  C218 1937   5.521  -0.103   7.833 -0.3261 -0.4563  0.0146
   15SAPS  H18R 1938   5.561  -0.005   7.869 -1.8117  1.2144 -2.6907
   15SAPS  H18S 1939   5.606  -0.173   7.817 -1.3671 -1.2664 -2.2316
   15SAPS  C219 1940   5.419  -0.150   7.937 -0.1246  0.8263  0.7986
   15SAPS  H19R 1941   5.368  -0.245   7.909  0.2260  0.4528  1.4087
   15SAPS  H19S 1942   5.343  -0.071   7.954 -2.0507 -0.6415 -0.8168
   15SAPS  C220 1943   5.471  -0.173   8.077  0.0472 -0.6002 -0.4695
   15SAPS  H20R 1944   5.475  -0.074   8.127 -1.8082 -0.9420  0.3614
   15SAPS  H20S 1945   5.571  -0.222   8.086 -0.2165 -0.9828  0.4091
   15SAPS  H20T 1946   5.402  -0.237   8.135 -0.6859  0.5753 -0.0334
   15SAPS   C33 1947   5.861   0.249   6.732 -0.7109  0.2171 -0.1486
   15SAPS   H3X 1948   5.922   0.156   6.736  0.8622  1.2205 -0.2232
   15SAPS   H3Y 1949   5.755   0.227   6.756 -0.3112  1.7698  3.3431
   15SAPS   C34 1950   5.910   0.349   6.842  0.3249  0.8118 -0.3623
   15SAPS   H4X 1951   5.846   0.440   6.848 -0.9510 -0.1438  1.0606
   15SAPS   H4Y 1952   6.016   0.377   6.824  1.3162 -2.7434 -0.4874
   15SAPS   C35 1953   5.895   0.280   6.983 -0.3456  0.6528  0.1893
   15SAPS   H5X 1954   5.976   0.204   6.977  0.2190  1.2859 -0.3543
   15SAPS   H5Y 1955   5.793   0.237   6.989  0.1449 -0.5053  0.4667
   15SAPS   C36 1956   5.921   0.373   7.105  0.1451 -0.0921  0.4448
   15SAPS   H6X 1957   5.840   0.449   7.097 -0.8988 -0.9526  2.3621
   15SAPS   H6Y 1958   6.013   0.433   7.094  0.3303 -0.2990  0.8685
   15SAPS   C37 1959   5.908   0.287   7.230  0.0168 -0.1075  0.7474
   15SAPS   H7X 1960   6.005   0.234   7.228 -0.4797 -0.9501 -1.2437
   15SAPS   H7Y 1961   5.822   0.217   7.224  0.1245 -0.2839  1.2215
   15SAPS   C38 1962   5.901   0.375   7.353 -0.0620  0.0781 -0.6157
   15SAPS   H8X 1963   5.798   0.417   7.352  0.0378  0.4561  1.8488
   15SAPS   H8Y 1964   5.985   0.448   7.346 -0.5670  0.5749 -1.7745
   15SAPS   C39 1965   5.912   0.297   7.487  0.1924  0.2657 -0.8140
   15SAPS   H9X 1966   6.013   0.253   7.500 -0.0939 -0.6552 -1.6263
   15SAPS   H9Y 1967   5.837   0.216   7.482 -0.9582  1.3150 -0.7274
   15SAPS  C310 1968   5.881   0.398   7.603  0.5468  0.2090 -0.3226
   15SAPS  H10X 1969   5.790   0.460   7.583 -0.7382 -0.9202  1.8374
   15SAPS  H10Y 1970   5.973   0.459   7.594 -0.9957  2.4406 -1.6391
   15SAPS  C311 1971   5.881   0.331   7.747  0.4681  0.3596 -0.0107
   15SAPS  H11X 1972   5.973   0.268   7.755  1.1644  1.5107  1.1554
   15SAPS  H11Y 1973   5.793   0.263   7.747 -0.2080  1.2303  0.4866
   15SAPS  C312 1974   5.871   0.432   7.851  0.2930  0.2828 -0.1929
   15SAPS  H12X 1975   5.770   0.476   7.859  0.4071  0.7065 -1.0592
   15SAPS  H12Y 1976   5.935   0.520   7.830  0.5869  0.6305  2.0283
   15SAPS  C313 1977   5.912   0.357   7.979  0.0697 -0.4902  0.4909
   15SAPS  H13X 1978   6.004   0.295   7.966  0.1903  0.2184 -2.2708
   15SAPS  H13Y 1979   5.841   0.284   8.024 -0.2329 -0.8057 -0.4908
   15SAPS  C314 1980   5.932   0.483   8.073 -0.6239 -0.1654  0.1813
   15SAPS  H14X 1981   5.864   0.566   8.046  0.0470  0.0713 -0.7973
   15SAPS  H14Y 1982   6.035   0.520   8.053  0.8635 -3.5046  1.2609
   15SAPS  C315 1983   5.918   0.446   8.219  0.1028  0.0568 -0.0942
   15SAPS  H15X 1984   6.004   0.389   8.259 -0.6078 -0.9312  0.0465
   15SAPS  H15Y 1985   5.820   0.394   8.228 -0.2245  0.6568 -0.1865
   15SAPS  C316 1986   5.900   0.567   8.316 -0.0175  0.2844 -0.3056
   15SAPS  H16X 1987   5.834   0.639   8.263 -1.4196 -1.5066 -1.0295
   15SAPS  H16Y 1988   5.998   0.620   8.325 -0.6947  1.5098  0.0353
   15SAPS  C317 1989   5.856   0.537   8.457 -0.5797  0.3319  0.0065
   15SAPS  H17X 1990   5.908   0.444   8.487 -2.1259 -1.3596 -2.4016
   15SAPS  H17Y 1991   5.747   0.516   8.456 -0.7071  0.9805 -1.2920
   15SAPS  C318 1992   5.894   0.651   8.551 -0.3103 -0.0264 -0.4652
   15SAPS  H18X 1993   5.875   0.630   8.658 -0.0656  0.7709 -0.2582
   15SAPS  H18Y 1994   5.834   0.743   8.531  1.7377  0.8829 -2.5750
   15SAPS  H18Z 1995   5.994   0.697   8.535 -1.1359  1.7303 -0.7652
   16SAPS     N 1996   0.401   2.559   6.313 -0.2840 -0.0504  0.3859
   16SAPS   HN1 1997   0.341   2.476   6.295 -1.6455  0.5344  2.1882
   16SAPS   HN2 1998   0.365   2.615   6.392  2.2357 -0.5646  1.9384
   16SAPS   HN3 1999   0.402   2.620   6.228 -0.7577  1.9658  1.7840
   16SAPS   C12 2000   0.545   2.516   6.321  0.7073 -0.2340  0.3446
   16SAPS  H12A 2001   0.557   2.413   6.292 -0.9578 -0.4118  0.2362
   16SAPS   C13 2002   0.639   2.601   6.233 -0.9688  0.5818  0.5838
   16SAPS  O13A 2003   0.595   2.693   6.159  0.0924  0.3932  0.5896
   16SAPS  O13B 2004   0.758   2.560   6.222 -0.0037  0.2081  0.1077
   16SAPS   C11 2005   0.584   2.519   6.474  0.2175  0.3455 -0.0239
   16SAPS  H11A 2006   0.694   2.505   6.477  0.2724  1.0687  2.1129
   16SAPS  H11B 2007   0.532   2.432   6.520  1.5675 -0.7358 -0.5222
   16SAPS     P 2008   0.616   2.706   6.659 -0.0153 -0.3005 -0.0337
   16SAPS   O13 2009   0.760   2.680   6.661 -0.3027  0.0192  0.0253
   16SAPS   O14 2010   0.567   2.845   6.651  0.1876 -0.4685  0.4586
   16SAPS   O12 2011   0.555   2.647   6.529 -0.1467  0.4076  0.2269
   16SAPS   O11 2012   0.553   2.621   6.779  0.3593 -0.0593 -0.0386
   16SAPS    C1 2013   0.430   2.551   6.760 -0.9529  0.4668  0.3948
   16SAPS    HA 2014   0.359   2.611   6.700 -1.4028 -2.5323 -2.1874
   16SAPS    HB 2015   0.443   2.451   6.715 -1.5293  0.8302 -0.5900
   16SAPS    C2 2016   0.370   2.518   6.898  0.0561 -0.5454 -0.0714
   16SAPS    HS 2017   0.265   2.484   6.883 -0.4195  0.1420  1.5646
   16SAPS   O21 2018   0.370   2.629   6.996 -0.7441  0.1583 -0.4657
   16SAPS   C21 2019   0.302   2.732   6.956 -0.5349 -0.2356  0.0964
   16SAPS   O22 2020   0.221   2.728   6.862 -0.4895  0.2998 -0.2673
   16SAPS   C22 2021   0.326   2.852   7.045 -0.0237  0.1639 -0.2169
   16SAPS   H2R 2022   0.366   2.809   7.140  0.4572  0.7839 -0.1370
   16SAPS   H2S 2023   0.413   2.901   6.997  0.0913 -0.4368 -0.6196
   16SAPS    C3 2024   0.447   2.401   6.962 -0.1849 -0.6699  0.2014
   16SAPS    HX 2025   0.544   2.445   6.995 -1.3538  4.0639 -2.3365
   16SAPS    HY 2026   0.483   2.329   6.885 -0.9330 -0.4255 -0.3814
   16SAPS   O31 2027   0.374   2.324   7.064 -0.7274 -0.0474  0.4951
   16SAPS   C31 2028   0.412   2.341   7.189  0.6207  0.6634  0.4217
   16SAPS   O32 2029   0.499   2.416   7.226  0.6024 -0.3352  0.0739
   16SAPS   C32 2030   0.324   2.258   7.282 -0.0996 -0.0842  0.5437
   16SAPS   H2X 2031   0.342   2.156   7.240  1.2933 -0.4583  1.9852
   16SAPS   H2Y 2032   0.217   2.284   7.269 -0.2343  0.0678  1.8408
   16SAPS   C23 2033   0.200   2.937   7.069 -0.6431  0.0985  0.2656
   16SAPS   H3R 2034   0.106   2.878   7.061 -1.2288  0.9665  0.6795
   16SAPS   H3S 2035   0.207   3.017   6.992  1.2222  0.9577  1.2958
   16SAPS   C24 2036   0.188   2.994   7.211 -0.0247  0.0857 -0.1652
   16SAPS   H4R 2037   0.182   2.913   7.288 -0.5777  1.8153  1.6403
   16SAPS   H4S 2038   0.096   3.056   7.214 -0.0078  0.1381 -0.7864
   16SAPS   C25 2039   0.312   3.072   7.238 -0.3308 -0.1931  0.3111
   16SAPS   H5R 2040   0.384   3.072   7.155 -0.7833  0.0648 -0.0803
   16SAPS   C26 2041   0.350   3.126   7.353 -0.0706  0.8945 -0.3034
   16SAPS   H6R 2042   0.444   3.182   7.352  0.6683 -0.3225 -0.6242
   16SAPS   C27 2043   0.270   3.127   7.481 -1.1989 -0.4923 -0.0035
   16SAPS   H7R 2044   0.199   3.041   7.475 -2.3666  0.5164 -1.0512
   16SAPS   H7S 2045   0.215   3.224   7.475  0.0291  0.1312 -1.3970
   16SAPS   C28 2046   0.340   3.127   7.611 -0.3225  0.2317 -1.0683
   16SAPS   H8R 2047   0.437   3.076   7.613  0.1684  1.1733 -0.0381
   16SAPS   C29 2048   0.282   3.166   7.728 -0.2487  0.4576 -0.0017
   16SAPS   H9R 2049   0.337   3.152   7.822 -0.5980  2.6539  0.5507
   16SAPS  C210 2050   0.144   3.216   7.747  0.3229 -0.4225 -0.0198
   16SAPS  H10R 2051   0.105   3.241   7.645  1.5814  0.5607 -0.2712
   16SAPS  H10S 2052   0.142   3.304   7.814 -1.3760 -0.5617  0.1309
   16SAPS  C211 2053   0.054   3.117   7.806 -0.2980  0.5787 -0.4243
   16SAPS  H11R 2054   0.096   3.016   7.819 -0.0028  0.9266  1.4553
   16SAPS  C212 2055  -0.076   3.142   7.844 -0.1098 -0.5785 -0.2599
   16SAPS  H12R 2056  -0.127   3.063   7.900 -0.2570  0.9826  1.8557
   16SAPS  C213 2057  -0.142   3.279   7.859  0.3992 -0.3057  0.2101
   16SAPS  H13R 2058  -0.147   3.336   7.764 -1.2686 -2.5540 -1.0956
   16SAPS  H13S 2059  -0.083   3.342   7.929  0.4473 -0.3623  0.2205
   16SAPS  C214 2060  -0.286   3.263   7.912  0.6824  0.0516  0.0623
   16SAPS  H14R 2061  -0.339   3.169   7.890  1.1319 -0.1238 -0.2640
   16SAPS  C215 2062  -0.355   3.348   7.997  1.0083 -0.2951  0.4707
   16SAPS  H15R 2063  -0.461   3.333   8.022  0.5709  1.3419 -0.3242
   16SAPS  C216 2064  -0.304   3.488   8.038 -0.4603  0.2605 -0.7115
   16SAPS  H16R 2065  -0.196   3.505   8.015  0.0995 -2.3873 -0.1619
   16SAPS  H16S 2066  -0.313   3.495   8.149 -3.3542  1.6058 -0.9763
   16SAPS  C217 2067  -0.389   3.600   7.979  0.3653  0.2974 -0.2400
   16SAPS  H17R 2068  -0.361   3.700   8.019 -1.4123  0.0789  1.6276
   16SAPS  H17S 2069  -0.497   3.583   7.996  0.3513 -0.2373 -0.8517
   16SAPS  C218 2070  -0.365   3.619   7.828 -0.1515  0.5797  0.1822
   16SAPS  H18R 2071  -0.392   3.522   7.781  1.2813  0.9962 -1.5729
   16SAPS  H18S 2072  -0.256   3.637   7.820  0.0980 -1.6933 -2.4678
   16SAPS  C219 2073  -0.450   3.736   7.773  0.2190  0.2826  0.2267
   16SAPS  H19R 2074  -0.493   3.803   7.851 -1.4158 -1.2146  0.6270
   16SAPS  H19S 2075  -0.535   3.689   7.720  2.2987 -2.0694 -1.1453
   16SAPS  C220 2076  -0.369   3.826   7.679  0.2306  0.4543 -0.8879
   16SAPS  H20R 2077  -0.323   3.907   7.740  0.1500  0.6638 -1.1043
   16SAPS  H20S 2078  -0.434   3.854   7.593 -0.9055  1.9733  0.4338
   16SAPS  H20T 2079  -0.281   3.774   7.635  0.9052  1.5676 -0.8763
   16SAPS   C33 2080   0.365   2.269   7.431  0.5375  0.6401 -0.3254
   16SAPS   H3X 2081   0.377   2.376   7.457  4.7937 -0.0284  0.8403
   16SAPS   H3Y 2082   0.462   2.216   7.440  0.6196  0.5396 -1.6899
   16SAPS   C34 2083   0.263   2.213   7.534  0.4055  0.1681 -0.1357
   16SAPS   H4X 2084   0.270   2.103   7.518 -0.0536  0.3078 -1.3475
   16SAPS   H4Y 2085   0.157   2.245   7.530 -0.6931 -3.2842 -0.5649
   16SAPS   C35 2086   0.309   2.242   7.683  0.0948  0.5031  0.7149
   16SAPS   H5X 2087   0.282   2.348   7.697  0.2482  0.7916 -1.0194
   16SAPS   H5Y 2088   0.420   2.236   7.689  0.0765 -2.5729 -0.8395
   16SAPS   C36 2089   0.237   2.154   7.785  0.6485  0.1600  0.0391
   16SAPS   H6X 2090   0.276   2.051   7.780 -2.2000 -1.0638  1.8972
   16SAPS   H6Y 2091   0.133   2.155   7.746  0.4996 -1.5894  0.3832
   16SAPS   C37 2092   0.251   2.199   7.929 -0.0300 -1.2974  0.1662
   16SAPS   H7X 2093   0.241   2.310   7.924 -0.9892 -1.4740 -2.4724
   16SAPS   H7Y 2094   0.346   2.177   7.983 -0.8968 -1.2334  1.7476
   16SAPS   C38 2095   0.152   2.123   8.032  0.2740  0.3448 -0.1818
   16SAPS   H8X 2096   0.180   2.016   8.034 -1.0348 -0.0527 -1.7659
   16SAPS   H8Y 2097   0.048   2.121   7.991 -0.7233  1.3016  2.1837
   16SAPS   C39 2098   0.160   2.186   8.171  0.5889 -0.5534  0.0242
   16SAPS   H9X 2099   0.126   2.292   8.171 -0.4109 -0.8626  1.1201
   16SAPS   H9Y 2100   0.265   2.178   8.208  1.4479 -0.4847 -2.3299
   16SAPS  C310 2101   0.072   2.118   8.274 -0.0437  0.0073  0.4015
   16SAPS  H10X 2102   0.084   2.008   8.273  1.9798  0.2117  0.3629
   16SAPS  H10Y 2103  -0.034   2.135   8.246 -0.2195  0.0699  1.0983
   16SAPS  C311 2104   0.095   2.163   8.416  0.2773  0.3485 -0.2094
   16SAPS  H11X 2105   0.195   2.128   8.452  0.4036 -0.5496 -1.3705
   16SAPS  H11Y 2106   0.018   2.126   8.486 -1.3975 -1.4950 -2.9354
   16SAPS  C312 2107   0.094   2.312   8.430  0.9308 -0.1459 -0.0573
   16SAPS  H12X 2108   0.002   2.366   8.399  0.1689 -0.6864  1.2440
   16SAPS  H12Y 2109   0.168   2.349   8.356  0.0625 -0.3629 -1.0481
   16SAPS  C313 2110   0.133   2.343   8.576  0.0139 -0.2169  0.5831
   16SAPS  H13X 2111   0.238   2.320   8.601  0.2500 -1.2063 -1.2094
   16SAPS  H13Y 2112   0.059   2.296   8.643 -1.6001  0.8522 -0.4018
   16SAPS  C314 2113   0.117   2.495   8.619  0.2522 -1.0286  0.1661
   16SAPS  H14X 2114   0.117   2.511   8.729 -3.9623  1.9902 -0.1537
   16SAPS  H14Y 2115   0.020   2.532   8.580 -0.0406 -1.3650  0.5826
   16SAPS  C315 2116   0.233   2.586   8.558 -0.5753 -0.2564 -0.2308
   16SAPS  H15X 2117   0.204   2.605   8.453  0.2134 -1.9559 -0.7772
   16SAPS  H15Y 2118   0.328   2.529   8.572 -0.9224 -0.7065  0.3411
   16SAPS  C316 2119   0.242   2.727   8.631  0.2727 -0.0265  0.7711
   16SAPS  H16X 2120   0.225   2.718   8.740  0.3281  0.9515  0.8730
   16SAPS  H16Y 2121   0.149   2.778   8.599  0.2761 -0.6904 -0.3235
   16SAPS  C317 2122   0.366   2.817   8.600  0.1727 -0.3264 -0.6100
   16SAPS  H17X 2123   0.389   2.820   8.492 -1.0521  0.1725 -0.8667
   16SAPS  H17Y 2124   0.452   2.773   8.655 -0.1269 -1.3110 -0.9182
   16SAPS  C318 2125   0.355   2.963   8.645 -0.2301  0.2002  0.6603
   16SAPS  H18X 2126   0.434   3.025   8.598 -0.7657 -0.0550 -0.6137
   16SAPS  H18Y 2127   0.357   2.966   8.756  2.1410  3.0757  0.5883
   16SAPS  H18Z 2128   0.261   3.010   8.608 -0.6889 -3.3386 -3.0493
   17SAPC     N 2129   5.160   6.694  10.291  0.0109 -0.0400  0.1137
   17SAPC   C12 2130   5.177   6.606  10.170  0.0018  0.0277  0.7275
   17SAPC  H12A 2131   5.210   6.666  10.085  0.2558  0.6101  1.2325
   17SAPC  H12B 2132   5.082   6.571  10.132 -0.8105  1.6292  1.2329
   17SAPC   C13 2133   5.091   6.618  10.400  0.8117 -0.3947 -0.2243
   17SAPC  H13A 2134   5.167   6.547  10.428  0.1178 -0.7526  0.7900
   17SAPC  H13B 2135   5.057   6.688  10.476  0.2512 -1.2062  0.2846
   17SAPC  H13C 2136   4.998   6.579  10.361  1.1106  1.3214 -2.7331
   17SAPC   C14 2137   5.287   6.755  10.336 -0.2970 -0.2632  0.6086
   17SAPC  H14A 2138   5.344   6.815  10.267  1.0707 -1.1610  0.9253
   17SAPC  H14B 2139   5.262   6.814  10.423 -0.0227 -0.1505  0.6115
   17SAPC  H14C 2140   5.360   6.681  10.367  0.4279  0.6421  1.0951
   17SAPC   C15 2141   5.058   6.805  10.264  0.2692 -0.3674 -0.6034
   17SAPC  H15A 2142   5.094   6.884  10.199 -0.9508  1.4682  0.8915
   17SAPC  H15B 2143   4.974   6.758  10.215 -1.8321  2.1312  0.5033
   17SAPC  H15C 2144   5.022   6.853  10.354 -0.4754 -1.0574 -0.5284
   17SAPC   C11 2145   5.264   6.481  10.192  0.1631 -0.7834 -0.5088
   17SAPC  H11A 2146   5.358   6.503  10.247  0.0853 -0.1220 -0.6455
   17SAPC  H11B 2147   5.289   6.436  10.093 -0.4564  0.1698 -1.1096
   17SAPC     P 2148   5.260   6.265  10.324 -0.4521  0.1055 -0.0073
   17SAPC   O13 2149   5.371   6.224  10.236 -0.1592  0.2896  0.1261
   17SAPC   O14 2150   5.294   6.310  10.460 -0.2293 -0.1693  0.5273
   17SAPC   O12 2151   5.186   6.385  10.264  0.5858 -0.7292  0.4803
   17SAPC   O11 2152   5.147   6.150  10.324  0.6530  0.0609 -0.5320
   17SAPC    C1 2153   5.006   6.180  10.346  0.5226 -0.3674 -0.2261
   17SAPC    HA 2154   4.971   6.107  10.422  1.8125  1.0032  1.7451
   17SAPC    HB 2155   4.989   6.280  10.391  1.0046 -1.4545  2.4613
   17SAPC    C2 2156   4.925   6.156  10.214 -0.2686  0.3273 -0.0735
   17SAPC    HS 2157   4.816   6.158  10.237 -0.3492 -1.7910 -0.1247
   17SAPC   O21 2158   4.941   6.019  10.161  0.4581  0.6093 -0.3535
   17SAPC   C21 2159   4.905   5.916  10.234  0.3818 -0.0179 -0.2058
   17SAPC   O22 2160   4.857   5.918  10.346  0.0548 -0.3077  0.5141
   17SAPC   C22 2161   4.951   5.789  10.151  0.2099  0.5479  0.3072
   17SAPC   H2R 2162   4.889   5.807  10.060 -0.1490  0.2769  0.5000
   17SAPC   H2S 2163   5.058   5.814  10.131  0.1987  0.7143  0.4568
   17SAPC    C3 2164   4.950   6.272  10.106  0.7339 -0.1213  0.1612
   17SAPC    HX 2165   5.056   6.282  10.076  0.8268  0.9747  0.8094
   17SAPC    HY 2166   4.931   6.366  10.162  0.3449  1.0414 -1.8845
   17SAPC   O31 2167   4.861   6.262   9.989  0.6490 -0.6530  0.6386
   17SAPC   C31 2168   4.830   6.385   9.939 -0.1143  0.6218 -0.1907
   17SAPC   O32 2169   4.903   6.485   9.948  0.0337 -0.7328  0.0731
   17SAPC   C32 2170   4.700   6.378   9.872 -0.0190  0.2392  0.7379
   17SAPC   H2X 2171   4.694   6.468   9.808  0.4123 -0.2995 -0.0663
   17SAPC   H2Y 2172   4.619   6.378   9.948 -0.1943  0.1941  0.5498
   17SAPC   C23 2173   4.933   5.663  10.232 -0.0164  0.5680 -0.0561
   17SAPC   H3R 2174   4.829   5.651  10.272  0.2462  1.1173  0.8083
   17SAPC   H3S 2175   5.003   5.658  10.318 -1.9042 -0.2294  1.4766
   17SAPC   C24 2176   4.953   5.544  10.138  0.6631  0.5746 -0.2331
   17SAPC   H4R 2177   4.888   5.548  10.049 -1.8501 -1.0409  1.4649
   17SAPC   H4S 2178   4.918   5.458  10.198 -0.9268  0.7402 -0.9010
   17SAPC   C25 2179   5.094   5.534  10.086  0.2678  0.0068 -0.0117
   17SAPC   H5R 2180   5.171   5.511  10.161 -0.1615  0.1712  0.4784
   17SAPC   C26 2181   5.132   5.561   9.960 -1.1708 -0.0213 -0.1084
   17SAPC   H6R 2182   5.241   5.562   9.941 -0.9499  0.8861  1.1298
   17SAPC   C27 2183   5.047   5.599   9.838  0.0503 -0.7714 -0.1542
   17SAPC   H7R 2184   5.016   5.705   9.850  0.9725 -0.5654  0.5131
   17SAPC   H7S 2185   4.953   5.539   9.833 -1.4148  1.4255  0.4138
   17SAPC   C28 2186   5.131   5.583   9.713  0.2182 -0.1030 -0.4896
   17SAPC   H8R 2187   5.203   5.500   9.723  0.1826  0.1561  2.3514
   17SAPC   C29 2188   5.117   5.646   9.599  0.0546 -0.1558  0.1095
   17SAPC   H9R 2189   5.180   5.612   9.516  3.3781 -2.5085  3.4907
   17SAPC  C210 2190   5.018   5.759   9.576 -0.5207 -0.0684 -0.5613
   17SAPC  H10R 2191   5.008   5.821   9.668  1.7507  0.3238 -0.5637
   17SAPC  H10S 2192   4.921   5.712   9.550  0.3363 -1.5585 -1.1002
   17SAPC  C211 2193   5.072   5.849   9.462 -0.0804  0.9576  0.8116
   17SAPC  H11R 2194   5.153   5.919   9.487 -0.0760  1.9082 -1.7065
   17SAPC  C212 2195   5.024   5.852   9.336 -0.1131  0.0347 -0.4483
   17SAPC  H12R 2196   5.075   5.917   9.264  2.2843 -1.6524 -0.3153
   17SAPC  C213 2197   4.925   5.750   9.281 -0.9409  0.4188 -0.0236
   17SAPC  H13R 2198   4.843   5.804   9.230 -0.1194  1.8415  0.1341
   17SAPC  H13S 2199   4.877   5.701   9.369  0.9168 -2.7308 -0.6791
   17SAPC  C214 2200   4.999   5.646   9.196  0.6705 -0.1184 -0.2189
   17SAPC  H14R 2201   5.099   5.604   9.213  0.5934 -1.9271 -3.7603
   17SAPC  C215 2202   4.951   5.591   9.081 -0.2377 -0.0377  0.5105
   17SAPC  H15R 2203   5.008   5.522   9.017 -2.3246 -0.5926 -0.8177
   17SAPC  C216 2204   4.823   5.629   9.015  0.0290 -0.7881 -0.4177
   17SAPC  H16R 2205   4.813   5.739   9.006  0.7431 -0.7118 -0.2984
   17SAPC  H16S 2206   4.742   5.612   9.089  0.4550  0.4280  0.3387
   17SAPC  C217 2207   4.811   5.551   8.882  0.0462 -0.1792  0.0327
   17SAPC  H17R 2208   4.813   5.443   8.908  1.1244 -0.0825  0.3875
   17SAPC  H17S 2209   4.898   5.570   8.815  0.8004 -1.0467  0.7534
   17SAPC  C218 2210   4.674   5.576   8.815 -0.5540  0.1471  0.7371
   17SAPC  H18R 2211   4.661   5.686   8.822 -0.4728  0.5198 -3.5329
   17SAPC  H18S 2212   4.595   5.533   8.880  0.4378 -0.7933  1.3370
   17SAPC  C219 2213   4.665   5.508   8.675  0.1634 -0.1750 -0.1821
   17SAPC  H19R 2214   4.707   5.406   8.692 -1.1221 -0.6688  0.1124
   17SAPC  H19S 2215   4.730   5.568   8.608 -0.8820 -0.4538 -1.4479
   17SAPC  C220 2216   4.528   5.498   8.626  0.2381 -0.0272 -0.6902
   17SAPC  H20R 2217   4.466   5.432   8.690 -0.1502 -0.8669 -1.9170
   17SAPC  H20S 2218   4.526   5.464   8.520  2.4993 -1.6941 -0.2383
   17SAPC  H20T 2219   4.484   5.600   8.615 -0.4452 -0.4705 -2.3515
   17SAPC   C33 2220   4.668   6.256   9.782  0.1582  0.3947  0.3993
   17SAPC   H3X 2221   4.558   6.237   9.776  0.0427  1.2362 -0.2073
   17SAPC   H3Y 2222   4.704   6.160   9.825 -1.3369  0.0694  0.9702
   17SAPC   C34 2223   4.730   6.265   9.645 -0.3293  0.8320 -0.2199
   17SAPC   H4X 2224   4.836   6.293   9.663  0.1221 -1.1807  0.4585
   17SAPC   H4Y 2225   4.685   6.350   9.590 -0.4260 -1.2250 -3.4212
   17SAPC   C35 2226   4.696   6.134   9.573 -0.2729  0.1270 -0.2182
   17SAPC   H5X 2227   4.586   6.119   9.569 -0.0109 -1.5136 -2.6858
   17SAPC   H5Y 2228   4.745   6.053   9.631 -0.5168  0.2650  0.1842
   17SAPC   C36 2229   4.743   6.126   9.430  0.4525  0.2518  0.2956
   17SAPC   H6X 2230   4.740   6.020   9.397 -3.6100  0.1443  0.7530
   17SAPC   H6Y 2231   4.849   6.160   9.426  0.1932  1.1168  0.6968
   17SAPC   C37 2232   4.668   6.221   9.341 -0.2442  0.1122  0.6144
   17SAPC   H7X 2233   4.671   6.322   9.385  2.0732  0.4837 -0.3183
   17SAPC   H7Y 2234   4.562   6.193   9.319  0.2573 -2.5391  1.3826
   17SAPC   C38 2235   4.732   6.238   9.200  0.0204  0.4275  0.4319
   17SAPC   H8X 2236   4.740   6.140   9.148  0.4364  0.9270 -0.4478
   17SAPC   H8Y 2237   4.841   6.249   9.219  0.2149  0.0474 -0.4663
   17SAPC   C39 2238   4.671   6.349   9.107 -0.2864 -0.1364  0.6586
   17SAPC   H9X 2239   4.704   6.448   9.146 -2.6036  0.5240  1.0270
   17SAPC   H9Y 2240   4.561   6.342   9.115 -0.1897 -1.1458  1.1939
   17SAPC  C310 2241   4.697   6.322   8.960 -0.7265 -0.2851  1.0022
   17SAPC  H10X 2242   4.601   6.284   8.920  0.1654 -0.2762 -1.2110
   17SAPC  H10Y 2243   4.769   6.239   8.946 -0.1216  0.3692  0.0957
   17SAPC  C311 2244   4.733   6.447   8.873 -0.0480  1.2741  0.3894
   17SAPC  H11X 2245   4.828   6.494   8.906  0.0365  0.7006  0.9779
   17SAPC  H11Y 2246   4.653   6.524   8.875 -1.6427 -0.3119 -0.5787
   17SAPC  C312 2247   4.727   6.404   8.725  0.4841 -0.4065  0.4275
   17SAPC  H12X 2248   4.622   6.398   8.689 -0.3106  0.5694  2.5275
   17SAPC  H12Y 2249   4.775   6.306   8.705 -1.0874 -0.2600 -5.0196
   17SAPC  C313 2250   4.801   6.493   8.624 -0.6195 -0.5656  0.2593
   17SAPC  H13X 2251   4.816   6.453   8.522  2.4660  0.0597  0.4284
   17SAPC  H13Y 2252   4.899   6.495   8.677 -1.7019 -0.4601  2.3102
   17SAPC  C314 2253   4.731   6.624   8.611  0.3256  0.2644  0.1998
   17SAPC  H14X 2254   4.690   6.661   8.708  0.8302 -1.4613  1.0956
   17SAPC  H14Y 2255   4.639   6.622   8.549 -0.5840 -2.3131  1.5568
   17SAPC  C315 2256   4.823   6.734   8.559  0.4528  0.6495 -0.4268
   17SAPC  H15X 2257   4.906   6.758   8.629  0.1518 -1.0856  0.5639
   17SAPC  H15Y 2258   4.768   6.830   8.551  0.4106  0.6725  0.0950
   17SAPC  C316 2259   4.878   6.697   8.419  0.1447  0.0733 -0.5165
   17SAPC  H16X 2260   4.795   6.690   8.345  1.2098  1.0097 -1.8242
   17SAPC  H16Y 2261   4.921   6.594   8.415 -0.2595 -0.0861 -0.8077
   17SAPC  C317 2262   4.981   6.791   8.358 -0.0549  0.0082 -0.0293
   17SAPC  H17X 2263   5.050   6.802   8.445 -0.1297  1.7694 -0.1674
   17SAPC  H17Y 2264   4.950   6.897   8.349 -1.9834 -0.3082  2.2616
   17SAPC  C318 2265   5.054   6.749   8.238  0.5335  0.2132  0.1416
   17SAPC  H18X 2266   5.106   6.653   8.259  1.1941  0.7559  1.0138
   17SAPC  H18Y 2267   4.996   6.720   8.148  1.0827 -0.4821  0.0026
   17SAPC  H18Z 2268   5.136   6.817   8.204 -0.0045  1.1820  0.7713
   18SAPC     N 2269   5.491   5.928  10.686 -0.4346 -0.2788 -0.1234
   18SAPC   C12 2270   5.620   5.946  10.607 -0.3351 -0.1539  0.5845
   18SAPC  H12A 2271   5.657   6.044  10.630 -0.6239 -0.0301  0.5159
   18SAPC  H12B 2272   5.602   5.930  10.502 -2.1361  0.1103  0.8429
   18SAPC   C13 2273   5.433   5.789  10.669 -0.0353 -0.2244 -0.2441
   18SAPC  H13A 2274   5.361   5.754  10.741  0.3615  1.0955  0.8115
   18SAPC  H13B 2275   5.380   5.783  10.575 -2.6074  3.0303  0.8948
   18SAPC  H13C 2276   5.516   5.721  10.667 -0.2820 -0.5110 -0.8407
   18SAPC   C14 2277   5.526   5.943  10.828  0.2167  0.3622 -0.0752
   18SAPC  H14A 2278   5.605   5.874  10.855 -1.3907 -1.4046  0.2458
   18SAPC  H14B 2279   5.540   6.047  10.854 -0.7465  0.9171 -1.6930
   18SAPC  H14C 2280   5.438   5.911  10.881 -0.1241 -0.6735 -1.2286
   18SAPC   C15 2281   5.390   6.030  10.654  0.7485 -0.5436 -0.6859
   18SAPC  H15A 2282   5.327   5.986  10.578 -0.3723 -0.4861  0.1823
   18SAPC  H15B 2283   5.323   6.048  10.737 -1.5117  0.2924 -2.6233
   18SAPC  H15C 2284   5.437   6.118  10.613  3.5014 -1.1069  1.1224
   18SAPC   C11 2285   5.736   5.848  10.629 -0.2291  0.1835 -0.3109
   18SAPC  H11A 2286   5.784   5.847  10.730 -2.6682 -1.9581  0.8833
   18SAPC  H11B 2287   5.811   5.877  10.552  0.3981 -0.3206  0.0962
   18SAPC     P 2288   5.759   5.585  10.641 -0.0880  0.2677  0.2923
   18SAPC   O13 2289   5.884   5.606  10.720  0.5758  0.9592  0.5828
   18SAPC   O14 2290   5.649   5.511  10.707  0.2246  0.3232  0.0659
   18SAPC   O12 2291   5.699   5.720  10.589 -0.7304 -0.2858 -0.1553
   18SAPC   O11 2292   5.797   5.504  10.508 -0.0725  0.5240  0.5786
   18SAPC    C1 2293   5.809   5.576  10.386  0.8272 -0.1727  0.2702
   18SAPC    HA 2294   5.842   5.680  10.404  0.4616  0.5464 -2.9487
   18SAPC    HB 2295   5.874   5.519  10.316  0.9286  1.2327 -0.7965
   18SAPC    C2 2296   5.667   5.594  10.313 -0.3493 -0.4152  0.0569
   18SAPC    HS 2297   5.591   5.598  10.393 -0.2953  0.3837  0.0703
   18SAPC   O21 2298   5.634   5.479  10.235 -0.0689  0.1575 -0.3192
   18SAPC   C21 2299   5.510   5.469  10.186  0.3895  0.3026  0.5195
   18SAPC   O22 2300   5.412   5.530  10.223 -0.2394  0.0653 -0.6010
   18SAPC   C22 2301   5.502   5.354  10.086 -0.5587  0.4178 -0.7173
   18SAPC   H2R 2302   5.527   5.258  10.137  1.9671  0.2765 -2.1702
   18SAPC   H2S 2303   5.393   5.353  10.064 -0.6012 -2.7496 -0.5983
   18SAPC    C3 2304   5.661   5.730  10.233  0.3341 -0.1020 -0.4265
   18SAPC    HX 2305   5.683   5.813  10.303  1.2313  2.2956 -3.4420
   18SAPC    HY 2306   5.559   5.740  10.190  0.0851  0.0829  0.2110
   18SAPC   O31 2307   5.777   5.722  10.139 -0.3947 -0.7370  0.0836
   18SAPC   C31 2308   5.734   5.715  10.017  0.5015 -0.0346  0.5974
   18SAPC   O32 2309   5.621   5.731   9.980 -0.3564 -0.5135 -0.2047
   18SAPC   C32 2310   5.843   5.663   9.924  0.9961 -0.4639  0.2831
   18SAPC   H2X 2311   5.880   5.565   9.959 -0.3062 -0.4372  1.8034
   18SAPC   H2Y 2312   5.933   5.728   9.924  1.8211 -1.5524  2.6126
   18SAPC   C23 2313   5.596   5.366   9.964 -0.3918  0.0225  0.4203
   18SAPC   H3R 2314   5.700   5.340   9.993  0.2186  3.1092  1.1443
   18SAPC   H3S 2315   5.592   5.464   9.912 -0.0915 -0.7404 -1.0772
   18SAPC   C24 2316   5.551   5.278   9.842  0.0693  0.5535 -0.5804
   18SAPC   H4R 2317   5.549   5.172   9.875 -1.2940  0.9727  0.7158
   18SAPC   H4S 2318   5.636   5.295   9.772  1.7768  0.1476  1.3510
   18SAPC   C25 2319   5.414   5.310   9.776  0.2922 -0.3091 -0.0756
   18SAPC   H5R 2320   5.323   5.325   9.835  0.2592 -1.4553  0.1741
   18SAPC   C26 2321   5.399   5.328   9.645 -0.7354  0.0490  0.9068
   18SAPC   H6R 2322   5.299   5.356   9.607 -0.2075 -1.0170 -1.3875
   18SAPC   C27 2323   5.506   5.316   9.538  0.4023  0.4982  0.4896
   18SAPC   H7R 2324   5.604   5.294   9.585  0.1467 -0.0549  0.7704
   18SAPC   H7S 2325   5.513   5.411   9.481  0.6310  1.2234  1.6969
   18SAPC   C28 2326   5.483   5.209   9.443  0.2653  0.1295  0.9345
   18SAPC   H8R 2327   5.548   5.121   9.455  2.4467  1.1772 -2.2626
   18SAPC   C29 2328   5.389   5.211   9.343 -0.3064 -0.2598  0.4215
   18SAPC   H9R 2329   5.381   5.125   9.275  1.4191 -1.9484  2.2919
   18SAPC  C210 2330   5.287   5.320   9.305  0.5987  0.4447 -0.3301
   18SAPC  H10R 2331   5.318   5.419   9.346  1.2796  0.3666 -0.6508
   18SAPC  H10S 2332   5.193   5.303   9.360  1.4881  0.0168  1.0831
   18SAPC  C211 2333   5.261   5.325   9.155  0.8796  0.2572 -0.2187
   18SAPC  H11R 2334   5.190   5.244   9.129  0.5441  0.8251 -1.0796
   18SAPC  C212 2335   5.299   5.416   9.063 -0.0241  0.6153 -0.3387
   18SAPC  H12R 2336   5.267   5.409   8.958 -0.3233  1.5987 -0.3192
   18SAPC  C213 2337   5.377   5.530   9.101 -0.1981  0.5670  0.2067
   18SAPC  H13R 2338   5.471   5.528   9.042 -0.2625 -1.5815  0.1546
   18SAPC  H13S 2339   5.412   5.522   9.206 -1.9086  1.4897  0.8587
   18SAPC  C214 2340   5.312   5.661   9.072  0.0620 -0.1443  0.2927
   18SAPC  H14R 2341   5.230   5.662   9.000 -0.5167 -0.8724  0.9240
   18SAPC  C215 2342   5.370   5.781   9.112 -0.5582 -0.2556 -0.6201
   18SAPC  H15R 2343   5.315   5.875   9.098  1.0503  0.5859 -1.4291
   18SAPC  C216 2344   5.498   5.793   9.200  0.2452 -0.2652  0.4789
   18SAPC  H16R 2345   5.568   5.866   9.153 -0.6397 -0.2362 -0.8331
   18SAPC  H16S 2346   5.553   5.698   9.213  0.8697  0.1490  0.8993
   18SAPC  C217 2347   5.451   5.827   9.340  0.0853 -0.0070  1.0243
   18SAPC  H17R 2348   5.382   5.748   9.376 -1.5726  1.5482  1.3715
   18SAPC  H17S 2349   5.396   5.924   9.340 -2.8308 -1.6072  0.0004
   18SAPC  C218 2350   5.573   5.823   9.435  1.2442 -0.7314 -0.0657
   18SAPC  H18R 2351   5.644   5.899   9.397 -0.4810  2.1334  2.1967
   18SAPC  H18S 2352   5.615   5.722   9.414 -1.0377 -1.3360 -1.9253
   18SAPC  C219 2353   5.546   5.844   9.580  0.1753 -0.3741 -0.1655
   18SAPC  H19R 2354   5.481   5.933   9.593 -0.0751 -0.3866 -1.3133
   18SAPC  H19S 2355   5.629   5.876   9.646 -1.1579  2.1400  0.3492
   18SAPC  C220 2356   5.466   5.734   9.640  0.0041 -0.1932  0.7142
   18SAPC  H20R 2357   5.367   5.705   9.599  0.0927  1.0581 -0.4226
   18SAPC  H20S 2358   5.447   5.741   9.749  1.6056  0.3427  0.9810
   18SAPC  H20T 2359   5.529   5.643   9.628 -0.5707 -0.3322 -1.4774
   18SAPC   C33 2360   5.806   5.666   9.777 -0.5579  0.7938 -0.4161
   18SAPC   H3X 2361   5.829   5.768   9.739  1.9451  0.2898 -0.3368
   18SAPC   H3Y 2362   5.696   5.652   9.769 -0.3875  0.2611 -1.9384
   18SAPC   C34 2363   5.883   5.570   9.685  0.2512 -0.1805  0.2091
   18SAPC   H4X 2364   5.894   5.475   9.743  3.0149 -0.9818 -1.5160
   18SAPC   H4Y 2365   5.985   5.606   9.662 -0.5185  1.6006 -0.4625
   18SAPC   C35 2366   5.815   5.563   9.547 -0.3644  0.0316 -0.1631
   18SAPC   H5X 2367   5.836   5.668   9.516  0.5580  0.4748  1.8331
   18SAPC   H5Y 2368   5.709   5.536   9.560 -0.5479  0.6814 -0.2931
   18SAPC   C36 2369   5.891   5.465   9.459 -0.1702  0.6668 -0.2352
   18SAPC   H6X 2370   5.847   5.364   9.472  0.7212 -0.1694 -3.4013
   18SAPC   H6Y 2371   6.000   5.460   9.478 -0.0546  0.8374 -0.8395
   18SAPC   C37 2372   5.870   5.512   9.317  0.1252  0.2548  0.0286
   18SAPC   H7X 2373   5.938   5.599   9.306  0.6351 -0.1164  0.2289
   18SAPC   H7Y 2374   5.772   5.556   9.287  0.0440 -0.1325 -0.2894
   18SAPC   C38 2375   5.918   5.414   9.207  0.1695 -0.3118 -0.3795
   18SAPC   H8X 2376   5.843   5.333   9.194 -0.2603  0.0113  0.0764
   18SAPC   H8Y 2377   6.016   5.379   9.245  0.4466  1.9766  1.1748
   18SAPC   C39 2378   5.947   5.491   9.080  0.3361 -0.2772  0.3024
   18SAPC   H9X 2379   6.005   5.413   9.026  0.8104 -0.0931  0.5447
   18SAPC   H9Y 2380   6.023   5.572   9.080 -0.0429  0.0775 -0.4447
   18SAPC  C310 2381   5.823   5.533   9.002  0.4718  0.2929 -0.0560
   18SAPC  H10X 2382   5.765   5.580   9.084  1.3864 -0.2374  0.9095
   18SAPC  H10Y 2383   5.755   5.452   8.967  1.1088 -0.3403  0.1685
   18SAPC  C311 2384   5.846   5.627   8.883  0.3194 -0.8260 -0.2004
   18SAPC  H11X 2385   5.926   5.694   8.921  0.2726 -0.2468 -1.1090
   18SAPC  H11Y 2386   5.749   5.680   8.870  0.8847  0.4593  0.6735
   18SAPC  C312 2387   5.899   5.554   8.763  0.6080 -0.1588 -0.3029
   18SAPC  H12X 2388   5.857   5.452   8.753 -0.0590  0.2266 -1.5479
   18SAPC  H12Y 2389   6.007   5.533   8.778  0.4407 -1.2197 -0.5924
   18SAPC  C313 2390   5.893   5.642   8.636  0.3339 -0.2487  0.4063
   18SAPC  H13X 2391   5.933   5.743   8.660 -0.6373  0.3839 -0.5686
   18SAPC  H13Y 2392   5.786   5.653   8.612  0.4265  1.2869  0.6279
   18SAPC  C314 2393   5.976   5.594   8.517 -0.7768 -0.1298  0.7318
   18SAPC  H14X 2394   6.084   5.610   8.537 -0.4956 -1.8679  0.6275
   18SAPC  H14Y 2395   5.939   5.655   8.432 -1.0067 -0.5228  0.5524
   18SAPC  C315 2396   5.953   5.448   8.484 -0.8386  0.2294 -0.2845
   18SAPC  H15X 2397   5.846   5.424   8.466 -0.4338  0.0165 -2.7009
   18SAPC  H15Y 2398   5.985   5.387   8.571 -2.3681 -3.1215 -1.9241
   18SAPC  C316 2399   6.035   5.390   8.361  0.6689 -0.5726 -0.2937
   18SAPC  H16X 2400   6.144   5.380   8.381  0.8091 -1.3895 -1.4098
   18SAPC  H16Y 2401   6.032   5.459   8.274  0.0984 -0.0394  0.1503
   18SAPC  C317 2402   5.978   5.249   8.319  0.8630  0.6949 -0.3034
   18SAPC  H17X 2403   6.025   5.225   8.221  1.0769  0.3208 -0.1088
   18SAPC  H17Y 2404   5.868   5.259   8.309  0.2071 -3.5178  1.5821
   18SAPC  C318 2405   6.014   5.144   8.426  0.3166  0.1732  0.6073
   18SAPC  H18X 2406   5.945   5.057   8.429 -0.3056  0.7268  3.2099
   18SAPC  H18Y 2407   6.004   5.192   8.525 -1.5048 -1.7850  1.4082
   18SAPC  H18Z 2408   6.117   5.102   8.416  0.6642  1.1746 -0.0334
   19SAPC     N 2409   4.518   1.066  10.817 -0.0147 -1.6067 -0.1524
   19SAPC   C12 2410   4.469   1.149  10.693 -0.6042  0.2841  0.3109
   19SAPC  H12A 2411   4.530   1.237  10.683 -0.5259  0.7551  4.1585
   19SAPC  H12B 2412   4.368   1.178  10.718 -0.8260  0.4123 -0.7192
   19SAPC   C13 2413   4.428   0.954  10.829 -0.1004  0.3454  0.8588
   19SAPC  H13A 2414   4.425   0.905  10.733 -1.3414 -1.7067  1.9081
   19SAPC  H13B 2415   4.472   0.893  10.906  1.6421 -1.3453 -1.4080
   19SAPC  H13C 2416   4.325   0.976  10.853 -0.8377 -2.0033  0.0098
   19SAPC   C14 2417   4.659   1.013  10.811 -0.1395  0.2076 -0.7077
   19SAPC  H14A 2418   4.690   0.980  10.712  2.2963 -0.7785  0.3501
   19SAPC  H14B 2419   4.725   1.097  10.827  1.3009 -0.9806 -0.2593
   19SAPC  H14C 2420   4.676   0.932  10.880 -1.5017  1.1950  0.7925
   19SAPC   C15 2421   4.507   1.151  10.938 -0.4140  0.0812 -0.0793
   19SAPC  H15A 2422   4.541   1.087  11.019  2.5027  2.5604  0.7680
   19SAPC  H15B 2423   4.573   1.237  10.936 -0.9205  0.4587 -0.5417
   19SAPC  H15C 2424   4.407   1.178  10.967 -0.0710  1.8192 -0.4094
   19SAPC   C11 2425   4.480   1.074  10.555 -0.4362 -0.4402 -1.0921
   19SAPC  H11A 2426   4.586   1.059  10.525  0.5789  2.6458  0.6660
   19SAPC  H11B 2427   4.443   1.152  10.484  1.1040 -0.1954 -1.6371
   19SAPC     P 2428   4.245   0.979  10.537  0.1313 -0.1017 -0.3055
   19SAPC   O13 2429   4.177   0.873  10.610 -0.8002  0.5621 -0.4569
   19SAPC   O14 2430   4.211   1.115  10.571 -0.0244  0.0472 -0.4388
   19SAPC   O12 2431   4.401   0.958  10.551  0.6251  0.4985 -0.0319
   19SAPC   O11 2432   4.230   0.967  10.384 -0.2118  0.0663  0.3978
   19SAPC    C1 2433   4.309   0.901  10.291 -0.6431 -0.0645 -0.2935
   19SAPC    HA 2434   4.361   0.813  10.336  0.8978  0.1723 -1.5467
   19SAPC    HB 2435   4.244   0.842  10.223 -0.8940 -0.9361  0.6785
   19SAPC    C2 2436   4.408   0.987  10.204  0.8855 -0.2503  0.4026
   19SAPC    HS 2437   4.466   1.068  10.254  0.7823  0.6175 -0.8448
   19SAPC   O21 2438   4.335   1.045  10.093 -0.0197 -0.3540  0.3111
   19SAPC   C21 2439   4.275   1.152  10.122 -0.0750 -0.0225  0.6785
   19SAPC   O22 2440   4.290   1.227  10.219 -0.6012 -0.6220 -0.5239
   19SAPC   C22 2441   4.175   1.175  10.005 -0.5886 -0.2064 -0.3851
   19SAPC   H2R 2442   4.185   1.096   9.928 -1.6658 -0.4324 -0.3096
   19SAPC   H2S 2443   4.069   1.181  10.039  0.4632  1.4718  2.7424
   19SAPC    C3 2444   4.522   0.895  10.155 -0.1850  0.2360 -0.0475
   19SAPC    HX 2445   4.467   0.807  10.116 -0.0635  0.1911 -0.1185
   19SAPC    HY 2446   4.587   0.858  10.237  0.0014  1.3374  0.3148
   19SAPC   O31 2447   4.605   0.955  10.058  0.0168 -0.0524 -0.1678
   19SAPC   C31 2448   4.608   0.890   9.939 -0.0618  0.1244 -0.2381
   19SAPC   O32 2449   4.542   0.792   9.911 -0.4976 -0.0853  0.2769
   19SAPC   C32 2450   4.710   0.963   9.854 -0.0110 -0.0579  0.5650
   19SAPC   H2X 2451   4.803   0.977   9.913 -0.5707  3.9302  0.6645
   19SAPC   H2Y 2452   4.675   1.068   9.840 -1.2983 -0.7866 -1.9164
   19SAPC   C23 2453   4.208   1.318   9.938  0.3847 -0.5428  0.2204
   19SAPC   H3R 2454   4.297   1.310   9.873 -1.3670  1.2673 -2.5240
   19SAPC   H3S 2455   4.234   1.392  10.017  2.5082  0.2556 -1.1870
   19SAPC   C24 2456   4.087   1.355   9.851 -0.0122 -0.5226 -0.1195
   19SAPC   H4R 2457   4.089   1.464   9.828 -1.7988 -0.1282  1.4797
   19SAPC   H4S 2458   3.999   1.349   9.918 -0.5258 -0.8338 -0.8147
   19SAPC   C25 2459   4.066   1.262   9.741 -0.1792  0.3416  0.4353
   19SAPC   H5R 2460   4.070   1.154   9.761 -1.5246  0.0193 -0.9599
   19SAPC   C26 2461   4.066   1.301   9.611 -0.0890  1.1750  1.0383
   19SAPC   H6R 2462   4.053   1.229   9.528 -2.1457  2.4067  0.2581
   19SAPC   C27 2463   4.076   1.437   9.554  0.6172 -0.1708  0.5519
   19SAPC   H7R 2464   4.036   1.517   9.619  0.4600  0.7218 -0.6169
   19SAPC   H7S 2465   4.014   1.444   9.462  2.7183  1.2831 -0.8110
   19SAPC   C28 2466   4.218   1.459   9.516  0.6418  0.4439 -0.8776
   19SAPC   H8R 2467   4.281   1.440   9.604 -1.5564 -0.7584  0.4859
   19SAPC   C29 2468   4.271   1.496   9.392 -0.0692 -0.8510 -0.2108
   19SAPC   H9R 2469   4.380   1.496   9.377 -0.2245 -0.7901 -1.3562
   19SAPC  C210 2470   4.187   1.515   9.260 -0.5286  0.4238 -0.2495
   19SAPC  H10R 2471   4.109   1.436   9.268  0.1779 -0.4693 -1.9122
   19SAPC  H10S 2472   4.249   1.482   9.174  0.5318  0.0478  0.6403
   19SAPC  C211 2473   4.123   1.652   9.245 -0.0420 -0.4646  0.7747
   19SAPC  H11R 2474   4.078   1.687   9.339 -0.6386  0.7101  0.0594
   19SAPC  C212 2475   4.098   1.722   9.135  0.2321  0.4327 -0.3972
   19SAPC  H12R 2476   4.048   1.820   9.130  0.6424  0.5655 -2.2069
   19SAPC  C213 2477   4.158   1.691   8.999  0.8814 -0.5022  0.5786
   19SAPC  H13R 2478   4.100   1.610   8.950 -2.1518  1.1796  1.1952
   19SAPC  H13S 2479   4.259   1.649   9.018  0.6439 -1.7929 -0.9669
   19SAPC  C214 2480   4.183   1.815   8.913  0.4676  0.0106 -0.0994
   19SAPC  H14R 2481   4.274   1.875   8.927 -2.0390  3.9604 -0.0446
   19SAPC  C215 2482   4.103   1.877   8.829  0.1181  0.1714  0.0019
   19SAPC  H15R 2483   4.138   1.954   8.759  0.4721  0.7180  0.7727
   19SAPC  C216 2484   3.966   1.824   8.801  0.2712 -0.5269 -0.6765
   19SAPC  H16R 2485   3.925   1.759   8.882  0.1742 -3.2839 -2.8397
   19SAPC  H16S 2486   3.967   1.759   8.711 -0.0890 -0.7421 -0.5280
   19SAPC  C217 2487   3.875   1.953   8.793 -0.1078 -0.0073  0.2111
   19SAPC  H17R 2488   3.897   2.016   8.704  0.4586  1.2377  1.2240
   19SAPC  H17S 2489   3.871   2.016   8.884  0.3489 -0.1824  0.3526
   19SAPC  C218 2490   3.726   1.910   8.785  0.8555 -0.0021 -0.0047
   19SAPC  H18R 2491   3.690   1.878   8.885  2.3304 -2.7716 -0.3132
   19SAPC  H18S 2492   3.736   1.816   8.726 -2.7082 -1.4794  1.6012
   19SAPC  C219 2493   3.630   2.015   8.728 -0.9709  0.0008 -0.5114
   19SAPC  H19R 2494   3.659   2.047   8.625 -1.1320 -0.2209 -0.6259
   19SAPC  H19S 2495   3.617   2.105   8.792 -1.0689 -0.6634  0.4136
   19SAPC  C220 2496   3.495   1.940   8.703  0.1880  0.2354 -0.3765
   19SAPC  H20R 2497   3.498   1.903   8.599 -1.2233 -3.1770  0.7133
   19SAPC  H20S 2498   3.410   2.010   8.720 -0.5617 -1.2433  2.3916
   19SAPC  H20T 2499   3.482   1.849   8.766 -3.2148  0.8910 -0.0068
   19SAPC   C33 2500   4.736   0.906   9.713 -0.4101  0.4742 -1.1830
   19SAPC   H3X 2501   4.756   0.797   9.707  1.3380  0.6387  1.1505
   19SAPC   H3Y 2502   4.836   0.947   9.688  0.4249 -0.5380  0.4495
   19SAPC   C34 2503   4.632   0.961   9.614 -0.0534 -0.0685  1.1593
   19SAPC   H4X 2504   4.633   1.071   9.628  2.0064  0.0636 -0.0100
   19SAPC   H4Y 2505   4.533   0.926   9.652 -1.3602  3.0506  0.7097
   19SAPC   C35 2506   4.658   0.906   9.470 -0.1138  0.2498  0.2522
   19SAPC   H5X 2507   4.672   0.796   9.478  1.2125  0.2581 -1.4303
   19SAPC   H5Y 2508   4.757   0.943   9.436 -1.1685  0.6494 -2.5154
   19SAPC   C36 2509   4.545   0.937   9.376 -0.0265 -0.3794 -0.9129
   19SAPC   H6X 2510   4.455   0.885   9.413  0.8252 -0.6691  0.7814
   19SAPC   H6Y 2511   4.572   0.879   9.285 -0.5339 -1.5815 -0.3001
   19SAPC   C37 2512   4.532   1.087   9.330 -0.7501  0.1120  0.3991
   19SAPC   H7X 2513   4.628   1.111   9.279 -0.2261 -0.9352  0.8724
   19SAPC   H7Y 2514   4.522   1.152   9.420  1.6766  2.0939 -0.7083
   19SAPC   C38 2515   4.411   1.113   9.235 -0.8391 -0.0947 -0.5843
   19SAPC   H8X 2516   4.421   1.055   9.141 -0.0504 -3.3449  1.3914
   19SAPC   H8Y 2517   4.399   1.221   9.216 -4.1067 -0.3032 -0.0147
   19SAPC   C39 2518   4.275   1.062   9.291 -0.0281  0.3951  0.0995
   19SAPC   H9X 2519   4.260   1.094   9.397  1.3747 -0.2556  0.5022
   19SAPC   H9Y 2520   4.267   0.952   9.297 -2.0813  0.3186 -2.9735
   19SAPC  C310 2521   4.147   1.111   9.228 -0.9477  0.4897  0.4909
   19SAPC  H10X 2522   4.141   1.216   9.265  1.1628  0.3413  1.3101
   19SAPC  H10Y 2523   4.059   1.057   9.270 -1.6803  1.9167  0.8479
   19SAPC  C311 2524   4.145   1.117   9.073 -0.1029  0.4685 -0.1382
   19SAPC  H11X 2525   4.117   1.021   9.025  1.3986 -0.4502  0.7979
   19SAPC  H11Y 2526   4.247   1.133   9.034 -0.2616  1.1814 -0.2724
   19SAPC  C312 2527   4.057   1.230   9.022 -0.1421  0.2167 -0.0651
   19SAPC  H12X 2528   4.080   1.309   9.096  0.7970  0.6296 -0.7894
   19SAPC  H12Y 2529   3.951   1.200   9.041  0.2908 -1.6405 -0.4174
   19SAPC  C313 2530   4.077   1.290   8.878 -0.5867 -1.2460 -0.0281
   19SAPC  H13X 2531   4.186   1.310   8.877 -0.3142 -2.6811 -0.5072
   19SAPC  H13Y 2532   4.024   1.387   8.868  0.9824 -0.4868 -1.3217
   19SAPC  C314 2533   4.042   1.197   8.757  0.3918  0.9018 -0.5280
   19SAPC  H14X 2534   4.112   1.112   8.768 -0.0748  0.7739  1.9006
   19SAPC  H14Y 2535   4.058   1.257   8.665  0.7148  0.5026 -0.7297
   19SAPC  C315 2536   3.898   1.128   8.761  0.1827  0.0857 -0.1332
   19SAPC  H15X 2537   3.827   1.209   8.785  0.8715  1.4505 -2.5868
   19SAPC  H15Y 2538   3.906   1.065   8.852  0.7536 -0.5290 -0.5970
   19SAPC  C316 2539   3.872   1.028   8.642  0.4760  0.1274  0.0847
   19SAPC  H16X 2540   3.787   0.959   8.660  1.9575 -1.4467  1.3026
   19SAPC  H16Y 2541   3.959   0.959   8.631  2.6429  3.0027 -1.2514
   19SAPC  C317 2542   3.865   1.091   8.506  1.1129 -0.1958  1.0216
   19SAPC  H17X 2543   3.944   1.168   8.487 -0.4449  0.6378 -2.2999
   19SAPC  H17Y 2544   3.767   1.141   8.489  1.0223 -0.8796 -0.4608
   19SAPC  C318 2545   3.887   0.994   8.390 -0.1909  0.1868 -0.4562
   19SAPC  H18X 2546   3.892   1.053   8.295 -1.3017  1.2961  0.1604
   19SAPC  H18Y 2547   3.799   0.927   8.385 -0.1083 -0.2951  3.2588
   19SAPC  H18Z 2548   3.977   0.930   8.406 -0.5329  0.2062  1.6445
   20SAPC     N 2549   4.301   4.656  11.413  0.0867 -0.4115 -0.2264
   20SAPC   C12 2550   4.225   4.670  11.274 -0.0346 -0.6307  0.4346
   20SAPC  H12A 2551   4.146   4.737  11.305  1.3724  3.3797 -4.0621
   20SAPC  H12B 2552   4.187   4.571  11.255 -1.1565 -0.5134  1.9961
   20SAPC   C13 2553   4.206   4.593  11.518 -0.0446  0.7265 -0.2882
   20SAPC  H13A 2554   4.121   4.650  11.552  1.4954  1.3963  2.6189
   20SAPC  H13B 2555   4.156   4.507  11.474  0.8387 -0.0346  0.1725
   20SAPC  H13C 2556   4.253   4.558  11.610 -2.1890 -2.1353 -0.2080
   20SAPC   C14 2557   4.421   4.565  11.395  0.8778  0.0598 -0.7596
   20SAPC  H14A 2558   4.486   4.561  11.481 -0.7656 -2.0103  0.4354
   20SAPC  H14B 2559   4.388   4.467  11.363  0.6956  0.8566 -3.0905
   20SAPC  H14C 2560   4.486   4.609  11.321  3.3834  0.9746  1.9114
   20SAPC   C15 2561   4.347   4.793  11.456 -0.0893 -0.0039 -1.0747
   20SAPC  H15A 2562   4.266   4.862  11.477  0.5373  0.4371 -0.0902
   20SAPC  H15B 2563   4.413   4.783  11.541 -1.0165  0.7290 -0.2550
   20SAPC  H15C 2564   4.391   4.843  11.372 -0.4088  0.4099 -0.9959
   20SAPC   C11 2565   4.297   4.742  11.160 -0.1563  0.1243 -0.3311
   20SAPC  H11A 2566   4.310   4.850  11.182  0.8772 -0.3418  1.4643
   20SAPC  H11B 2567   4.219   4.739  11.081 -2.7333  1.0726  2.0648
   20SAPC     P 2568   4.429   4.558  11.030  0.5512  0.4963 -0.1659
   20SAPC   O13 2569   4.545   4.473  11.058 -0.1010  0.0271 -0.6494
   20SAPC   O14 2570   4.295   4.487  11.034  0.6071 -0.0412 -0.1059
   20SAPC   O12 2571   4.423   4.684  11.124  0.2172 -0.2381 -0.0227
   20SAPC   O11 2572   4.460   4.624  10.890  0.4104  0.2365  0.8183
   20SAPC    C1 2573   4.503   4.758  10.880 -0.2217 -0.5717 -0.5466
   20SAPC    HA 2574   4.425   4.822  10.925  0.8299  1.4400 -1.5497
   20SAPC    HB 2575   4.596   4.770  10.938  0.1377 -0.0367 -1.2286
   20SAPC    C2 2576   4.523   4.803  10.731  0.3664  0.8580 -0.2257
   20SAPC    HS 2577   4.565   4.905  10.742  0.5332  0.6514  1.1006
   20SAPC   O21 2578   4.400   4.802  10.660  0.3467  0.0869  0.4911
   20SAPC   C21 2579   4.377   4.917  10.588 -0.4059  0.6450 -0.2242
   20SAPC   O22 2580   4.456   5.009  10.576  0.1734 -0.2096  0.2369
   20SAPC   C22 2581   4.242   4.899  10.529 -0.2382  0.1916 -0.2958
   20SAPC   H2R 2582   4.248   4.805  10.470  1.5630  0.3709 -0.4536
   20SAPC   H2S 2583   4.174   4.884  10.615  0.1446 -0.9013 -0.1693
   20SAPC    C3 2584   4.636   4.725  10.650 -0.2272 -0.7973 -0.1168
   20SAPC    HX 2585   4.616   4.617  10.668  1.0974 -0.8326  1.2004
   20SAPC    HY 2586   4.737   4.747  10.691  0.3889 -1.5285 -1.1974
   20SAPC   O31 2587   4.653   4.766  10.509  0.4613  0.1448  0.0890
   20SAPC   C31 2588   4.578   4.696  10.425  0.8115 -0.5112 -0.4946
   20SAPC   O32 2589   4.508   4.599  10.449  0.0573 -0.8672  0.5401
   20SAPC   C32 2590   4.605   4.759  10.283  0.1476  0.3462 -0.5198
   20SAPC   H2X 2591   4.715   4.776  10.277  0.0699  0.8486 -0.5210
   20SAPC   H2Y 2592   4.562   4.862  10.282  1.7498  1.1107  2.3360
   20SAPC   C23 2593   4.189   5.004  10.431 -0.0009  0.1433 -0.1428
   20SAPC   H3R 2594   4.232   5.004  10.328 -0.5774  1.4673 -0.3873
   20SAPC   H3S 2595   4.214   5.110  10.450  2.7051 -0.0579 -2.3211
   20SAPC   C24 2596   4.031   5.011  10.430  0.4299  0.0882 -0.8181
   20SAPC   H4R 2597   4.009   5.101  10.369 -0.5458 -0.1220 -0.7882
   20SAPC   H4S 2598   4.001   5.028  10.536  2.0192  1.1661 -0.5202
   20SAPC   C25 2599   3.961   4.894  10.376  0.2354  0.6891 -0.0121
   20SAPC   H5R 2600   3.969   4.807  10.443 -0.4483  2.8106  2.9371
   20SAPC   C26 2601   3.882   4.883  10.268 -0.3097 -0.6385 -1.0166
   20SAPC   H6R 2602   3.842   4.781  10.254  0.1735 -0.7109 -1.8940
   20SAPC   C27 2603   3.845   4.991  10.171 -0.3108  0.3179  0.3476
   20SAPC   H7R 2604   3.931   5.048  10.128  1.3527 -0.4621  2.5629
   20SAPC   H7S 2605   3.808   5.071  10.238  0.2512  0.2682  0.7199
   20SAPC   C28 2606   3.757   4.960  10.051  0.6998  0.2821  0.3325
   20SAPC   H8R 2607   3.660   4.912  10.069  1.9132 -1.1134  3.4089
   20SAPC   C29 2608   3.780   4.990   9.918  0.2646  0.2401 -0.5866
   20SAPC   H9R 2609   3.715   4.944   9.843  1.4154 -0.9473 -0.8816
   20SAPC  C210 2610   3.895   5.059   9.854  0.0890 -0.0792 -0.4548
   20SAPC  H10R 2611   3.939   5.131   9.927 -1.8811 -1.3682  2.0779
   20SAPC  H10S 2612   3.860   5.135   9.781 -0.3850  0.3116  0.1805
   20SAPC  C211 2613   3.994   4.961   9.795  0.3376 -0.2473 -0.6914
   20SAPC  H11R 2614   4.064   4.916   9.867 -0.4066  1.7918  1.3526
   20SAPC  C212 2615   3.995   4.930   9.663 -0.3109  0.0598 -0.6586
   20SAPC  H12R 2616   4.072   4.858   9.631  0.8394  1.0026 -0.0493
   20SAPC  C213 2617   3.905   4.975   9.558 -0.5844 -0.8293  0.3094
   20SAPC  H13R 2618   3.966   4.986   9.465 -1.1147 -1.0279 -0.0619
   20SAPC  H13S 2619   3.869   5.078   9.581  0.3056 -0.2119 -0.9995
   20SAPC  C214 2620   3.785   4.892   9.526 -0.3076  0.6878 -0.3281
   20SAPC  H14R 2621   3.699   4.904   9.593 -1.0159 -3.1240 -0.4077
   20SAPC  C215 2622   3.776   4.804   9.421  0.2809  0.6239 -0.0581
   20SAPC  H15R 2623   3.686   4.742   9.413  0.5613  0.0115  1.5261
   20SAPC  C216 2624   3.879   4.771   9.317  0.6091 -0.0115  0.2047
   20SAPC  H16R 2625   3.873   4.661   9.307  1.2490 -0.1880  1.5963
   20SAPC  H16S 2626   3.984   4.794   9.347  0.9569  0.0769 -1.0295
   20SAPC  C217 2627   3.872   4.846   9.178 -0.2818  0.8057 -0.1662
   20SAPC  H17R 2628   3.935   4.783   9.112 -0.2308 -0.7520  1.3235
   20SAPC  H17S 2629   3.920   4.945   9.193  3.1733 -0.8599  0.2381
   20SAPC  C218 2630   3.729   4.851   9.125 -0.0098 -0.8180  0.0001
   20SAPC  H18R 2631   3.658   4.914   9.183 -1.0514 -2.2576  0.3112
   20SAPC  H18S 2632   3.681   4.751   9.133 -1.7245 -0.0636 -0.4449
   20SAPC  C219 2633   3.716   4.894   8.978 -0.1056  1.0690 -0.3537
   20SAPC  H19R 2634   3.791   4.838   8.919 -1.6526  1.4296 -2.7267
   20SAPC  H19S 2635   3.746   5.000   8.969 -0.1899  0.9426 -2.3669
   20SAPC  C220 2636   3.585   4.873   8.908 -0.0769  0.3538 -0.2476
   20SAPC  H20R 2637   3.579   4.945   8.823  0.4157  1.2107  0.4301
   20SAPC  H20S 2638   3.508   4.894   8.985 -0.0881  0.8525 -0.3926
   20SAPC  H20T 2639   3.557   4.771   8.875  0.0248  0.2899 -0.1351
   20SAPC   C33 2640   4.545   4.679  10.164 -0.0501  0.2839  0.3383
   20SAPC   H3X 2641   4.517   4.580  10.204 -0.0861 -0.9163 -2.5528
   20SAPC   H3Y 2642   4.633   4.660  10.099  0.1568  0.5468  0.5407
   20SAPC   C34 2643   4.428   4.748  10.091 -0.1432  0.2296 -0.7835
   20SAPC   H4X 2644   4.342   4.777  10.154 -0.5352 -0.3999 -1.0319
   20SAPC   H4Y 2645   4.383   4.679  10.017 -1.6557  1.5466 -1.1070
   20SAPC   C35 2646   4.483   4.881  10.021 -0.0981 -0.4118 -0.9197
   20SAPC   H5X 2647   4.550   4.939  10.088 -1.6039 -0.1129  0.3867
   20SAPC   H5Y 2648   4.389   4.937  10.002 -0.0018 -1.0269 -3.3486
   20SAPC   C36 2649   4.531   4.865   9.877  0.5495  0.2744 -0.2501
   20SAPC   H6X 2650   4.624   4.806   9.866  0.5825  0.1653  0.5793
   20SAPC   H6Y 2651   4.559   4.965   9.838 -0.7615  1.1973  1.1354
   20SAPC   C37 2652   4.433   4.806   9.777  0.2463 -0.2520  0.3919
   20SAPC   H7X 2653   4.331   4.846   9.797 -1.0452 -3.8372  1.2881
   20SAPC   H7Y 2654   4.419   4.696   9.777 -0.3768 -0.2067 -1.8373
   20SAPC   C38 2655   4.472   4.838   9.631  0.3386 -0.2452 -0.2396
   20SAPC   H8X 2656   4.567   4.782   9.617 -0.3306 -1.6108  0.5913
   20SAPC   H8Y 2657   4.486   4.948   9.622 -1.2138 -0.0808 -0.9504
   20SAPC   C39 2658   4.382   4.784   9.527  0.1697 -0.3434  0.1294
   20SAPC   H9X 2659   4.283   4.829   9.552  0.6585  0.5041  0.5488
   20SAPC   H9Y 2660   4.374   4.676   9.551 -1.4882  0.3071  2.8088
   20SAPC  C310 2661   4.425   4.807   9.387  0.2069  0.0216 -0.2251
   20SAPC  H10X 2662   4.530   4.779   9.364  0.0389  0.5344 -1.7116
   20SAPC  H10Y 2663   4.436   4.915   9.364  2.0335 -0.3180 -1.0898
   20SAPC  C311 2664   4.330   4.741   9.279  0.0320  0.0193 -0.1431
   20SAPC  H11X 2665   4.223   4.767   9.288  0.1760  0.2446  1.0051
   20SAPC  H11Y 2666   4.354   4.632   9.279 -0.5923 -0.1248  0.5937
   20SAPC  C312 2667   4.370   4.786   9.139 -0.8355  0.2904 -0.2691
   20SAPC  H12X 2668   4.479   4.771   9.126 -0.4684  3.1787 -0.9301
   20SAPC  H12Y 2669   4.348   4.893   9.119 -0.3991  0.3725 -0.3047
   20SAPC  C313 2670   4.289   4.712   9.036 -0.4137  0.5158  0.3567
   20SAPC  H13X 2671   4.179   4.724   9.036 -0.3994  0.7963 -1.6357
   20SAPC  H13Y 2672   4.301   4.601   9.042  0.7692  0.5202 -1.5587
   20SAPC  C314 2673   4.332   4.755   8.895  0.0415  0.1469  0.1646
   20SAPC  H14X 2674   4.432   4.712   8.876  0.6549  1.4872  0.3094
   20SAPC  H14Y 2675   4.347   4.865   8.892  1.3498 -0.0643 -1.8200
   20SAPC  C315 2676   4.234   4.727   8.779 -0.4038  0.0462  0.0983
   20SAPC  H15X 2677   4.134   4.766   8.807  0.0840  1.1482  0.3259
   20SAPC  H15Y 2678   4.230   4.617   8.771  3.6661 -0.2904  1.7682
   20SAPC  C316 2679   4.268   4.790   8.644  0.2889 -0.2876  0.1429
   20SAPC  H16X 2680   4.327   4.882   8.663 -0.5625  0.9056 -2.7818
   20SAPC  H16Y 2681   4.172   4.803   8.589  0.9646  1.9755 -0.5470
   20SAPC  C317 2682   4.330   4.688   8.547 -0.1413 -0.6566  0.0810
   20SAPC  H17X 2683   4.257   4.603   8.545 -0.4221 -0.3882 -1.6681
   20SAPC  H17Y 2684   4.430   4.646   8.574 -0.8211 -2.3057  0.1288
   20SAPC  C318 2685   4.333   4.747   8.408 -0.7892  0.0782  0.2574
   20SAPC  H18X 2686   4.225   4.756   8.380 -0.4579 -0.1085 -1.1154
   20SAPC  H18Y 2687   4.379   4.673   8.340  1.5022  0.9149  0.8599
   20SAPC  H18Z 2688   4.387   4.843   8.401 -1.0518  0.3588  1.9083
   21SAPC     N 2689   4.317   3.641  11.137  0.9623 -0.1035  0.7584
   21SAPC   C12 2690   4.223   3.584  11.026  0.1337  0.8513 -0.4544
   21SAPC  H12A 2691   4.132   3.642  11.031 -1.0326 -0.8210 -2.0378
   21SAPC  H12B 2692   4.191   3.488  11.063 -2.2631  0.6174 -2.9966
   21SAPC   C13 2693   4.371   3.773  11.092 -0.4210 -0.6114  0.1737
   21SAPC  H13A 2694   4.413   3.820  11.179  0.0486  0.0340 -0.3961
   21SAPC  H13B 2695   4.443   3.763  11.012  0.8840  3.0773  0.8288
   21SAPC  H13C 2696   4.294   3.844  11.064  0.1399 -0.5404 -1.2462
   21SAPC   C14 2697   4.242   3.666  11.265 -0.6321 -0.2428  0.1689
   21SAPC  H14A 2698   4.172   3.748  11.257  1.9108  2.1341  1.3501
   21SAPC  H14B 2699   4.194   3.575  11.299 -0.9215 -0.0178  0.3689
   21SAPC  H14C 2700   4.308   3.697  11.345 -0.4225  0.9265 -0.4411
   21SAPC   C15 2701   4.424   3.537  11.157  0.0422  0.2760  0.0675
   21SAPC  H15A 2702   4.499   3.574  11.225  1.1333 -1.9466  0.0959
   21SAPC  H15B 2703   4.376   3.449  11.197 -1.7269  0.7924 -0.8211
   21SAPC  H15C 2704   4.470   3.527  11.060 -0.8272  1.3234 -0.4700
   21SAPC   C11 2705   4.269   3.564  10.879  0.4869  0.1513  0.4705
   21SAPC  H11A 2706   4.317   3.661  10.854  0.5614 -0.0076  0.0082
   21SAPC  H11B 2707   4.192   3.544  10.802  0.5085 -0.5326  0.6251
   21SAPC     P 2708   4.338   3.320  10.837  0.2094  0.0611  0.0000
   21SAPC   O13 2709   4.453   3.234  10.870  0.7236  0.6225  0.4737
   21SAPC   O14 2710   4.204   3.282  10.904 -0.5046  0.6670  0.3767
   21SAPC   O12 2711   4.376   3.471  10.874  0.2799 -0.1065 -0.1237
   21SAPC   O11 2712   4.311   3.316  10.681  0.2679  0.1831  0.1520
   21SAPC    C1 2713   4.415   3.357  10.587 -0.2470 -0.1760  0.6668
   21SAPC    HA 2714   4.513   3.368  10.636  0.2894 -0.0405 -0.4215
   21SAPC    HB 2715   4.426   3.286  10.502 -0.2160  0.2434  0.3220
   21SAPC    C2 2716   4.379   3.497  10.538  0.7646 -0.8200  0.2083
   21SAPC    HS 2717   4.379   3.560  10.630  2.2376 -0.9538  0.3242
   21SAPC   O21 2718   4.253   3.484  10.466  0.2083  0.2375  0.6234
   21SAPC   C21 2719   4.178   3.592  10.470  0.2687 -0.1836  0.3775
   21SAPC   O22 2720   4.195   3.694  10.530  0.1294  0.2198  0.3548
   21SAPC   C22 2721   4.059   3.567  10.381  0.0034 -0.0649  0.0302
   21SAPC   H2R 2722   4.072   3.466  10.335 -2.4914 -0.7029  0.6489
   21SAPC   H2S 2723   3.970   3.566  10.448  0.8635  1.3499  1.2207
   21SAPC    C3 2724   4.482   3.563  10.437  0.4747 -0.3857  0.1448
   21SAPC    HX 2725   4.485   3.504  10.342  1.9986  1.3857 -0.9407
   21SAPC    HY 2726   4.576   3.546  10.494 -0.7431 -4.0358  1.2198
   21SAPC   O31 2727   4.450   3.692  10.391 -0.0633  0.1136  0.5837
   21SAPC   C31 2728   4.493   3.797  10.468  0.7060  0.6896 -0.2050
   21SAPC   O32 2729   4.548   3.795  10.575  0.0199 -0.3596  0.3110
   21SAPC   C32 2730   4.491   3.929  10.393  0.3286  1.1860 -0.6515
   21SAPC   H2X 2731   4.584   3.945  10.333  0.4741  0.0174 -0.7338
   21SAPC   H2Y 2732   4.494   4.001  10.478 -0.0245 -0.0223  0.3884
   21SAPC   C23 2733   4.039   3.682  10.283 -0.5017  0.5721  0.1688
   21SAPC   H3R 2734   4.121   3.678  10.208  0.1610  0.7726  0.8658
   21SAPC   H3S 2735   4.043   3.784  10.328  1.5877  1.0324 -1.0073
   21SAPC   C24 2736   3.904   3.676  10.217  0.1794  0.1505  0.4534
   21SAPC   H4R 2737   3.906   3.772  10.161 -0.3908  0.1967  0.5071
   21SAPC   H4S 2738   3.824   3.684  10.294  0.0638 -2.3480  0.6273
   21SAPC   C25 2739   3.885   3.551  10.141  0.7450  0.3055 -0.3894
   21SAPC   H5R 2740   3.903   3.463  10.205  0.1579  0.3591 -0.1524
   21SAPC   C26 2741   3.863   3.535  10.010 -0.4840  0.6663 -0.1433
   21SAPC   H6R 2742   3.836   3.435   9.972 -3.3660  0.4217  2.3122
   21SAPC   C27 2743   3.861   3.645   9.906  0.6410 -0.0543 -0.5464
   21SAPC   H7R 2744   3.956   3.640   9.847  0.1295 -0.0459 -1.3771
   21SAPC   H7S 2745   3.878   3.743   9.955 -2.4052  0.4444 -0.3980
   21SAPC   C28 2746   3.746   3.659   9.808 -0.2255  0.2013  0.6262
   21SAPC   H8R 2747   3.647   3.693   9.843 -1.4417 -0.6651 -1.9191
   21SAPC   C29 2748   3.744   3.629   9.676 -0.3260  0.3029  0.4890
   21SAPC   H9R 2749   3.655   3.649   9.615  0.5230 -4.4115 -2.5263
   21SAPC  C210 2750   3.861   3.582   9.595  0.3115  0.1079  0.0501
   21SAPC  H10R 2751   3.958   3.594   9.647 -0.6914 -0.3659  2.0858
   21SAPC  H10S 2752   3.870   3.637   9.499  1.7534 -1.5096 -0.7789
   21SAPC  C211 2753   3.831   3.437   9.558 -0.5293 -0.8931 -0.7734
   21SAPC  H11R 2754   3.874   3.365   9.629  0.3313 -1.3923 -1.7850
   21SAPC  C212 2755   3.774   3.384   9.452 -0.3924  0.1093  1.0152
   21SAPC  H12R 2756   3.762   3.274   9.450  1.2373 -0.0465 -1.6050
   21SAPC  C213 2757   3.716   3.453   9.336  0.2000  0.4935  0.4236
   21SAPC  H13R 2758   3.693   3.557   9.365 -0.0147  0.2294  1.1987
   21SAPC  H13S 2759   3.621   3.399   9.317  1.5664 -1.3649 -1.3913
   21SAPC  C214 2760   3.798   3.450   9.207  0.1105  0.3415 -0.0665
   21SAPC  H14R 2761   3.905   3.427   9.219 -0.1510 -0.7749  0.1703
   21SAPC  C215 2762   3.753   3.511   9.095  0.3462  0.2717 -0.3953
   21SAPC  H15R 2763   3.825   3.515   9.012  0.7411 -0.2257 -0.0760
   21SAPC  C216 2764   3.620   3.571   9.067 -0.2134 -0.2659 -0.5069
   21SAPC  H16R 2765   3.625   3.681   9.079  2.2561 -0.6412  2.3743
   21SAPC  H16S 2766   3.541   3.536   9.136 -0.3435  1.1248  0.0462
   21SAPC  C217 2767   3.562   3.558   8.923  0.0603 -0.1727 -0.4548
   21SAPC  H17R 2768   3.568   3.449   8.905  0.1953 -0.4331  1.0389
   21SAPC  H17S 2769   3.613   3.609   8.839  0.9934  1.8573  1.2831
   21SAPC  C218 2770   3.415   3.599   8.917 -0.3959  0.4055  0.4419
   21SAPC  H18R 2771   3.414   3.701   8.960 -1.0397  0.1544  1.0411
   21SAPC  H18S 2772   3.356   3.523   8.974 -0.0934 -1.4374 -1.6343
   21SAPC  C219 2773   3.348   3.600   8.773  0.2494 -0.7736  0.1589
   21SAPC  H19R 2774   3.355   3.495   8.736  0.1358 -0.2916 -1.2515
   21SAPC  H19S 2775   3.419   3.656   8.709  0.2317 -0.3809  0.4787
   21SAPC  C220 2776   3.205   3.658   8.775 -0.8454  0.3447  0.0359
   21SAPC  H20R 2777   3.126   3.580   8.774 -0.8816  0.3879 -0.5272
   21SAPC  H20S 2778   3.193   3.737   8.698 -1.2102 -2.6326 -3.0601
   21SAPC  H20T 2779   3.205   3.709   8.874  1.0253  0.5000 -0.0349
   21SAPC   C33 2780   4.364   3.952  10.317 -0.1871  0.0586 -0.9465
   21SAPC   H3X 2781   4.352   4.058  10.288  0.8183  0.7789  1.1455
   21SAPC   H3Y 2782   4.280   3.907  10.374  1.6368 -4.0707 -1.3300
   21SAPC   C34 2783   4.362   3.892  10.169  0.1708  0.8474  0.0815
   21SAPC   H4X 2784   4.352   3.782  10.159  0.2643  1.0365 -2.6069
   21SAPC   H4Y 2785   4.454   3.928  10.117  0.4764 -0.0708 -0.0262
   21SAPC   C35 2786   4.248   3.948  10.081  1.2238 -0.0607 -0.3998
   21SAPC   H5X 2787   4.261   4.058  10.068 -0.5191  0.4313  1.6027
   21SAPC   H5Y 2788   4.159   3.932  10.146  2.9961 -0.8063  1.9435
   21SAPC   C36 2789   4.240   3.891   9.941  0.4048 -0.5323 -0.5542
   21SAPC   H6X 2790   4.233   3.781   9.944  2.3382 -0.6558 -0.2550
   21SAPC   H6Y 2791   4.337   3.902   9.888  1.3221  0.8672  1.3590
   21SAPC   C37 2792   4.122   3.942   9.864 -0.1076 -0.4535  0.2334
   21SAPC   H7X 2793   4.121   4.050   9.888 -0.0529 -0.1453 -1.0978
   21SAPC   H7Y 2794   4.034   3.901   9.917 -1.1829  0.0109 -1.1705
   21SAPC   C38 2795   4.144   3.919   9.711 -0.0968  0.1197 -0.0549
   21SAPC   H8X 2796   4.145   3.809   9.698  0.0555  0.3093 -1.7473
   21SAPC   H8Y 2797   4.246   3.958   9.688  0.0211  0.0557  0.3528
   21SAPC   C39 2798   4.038   3.973   9.614 -0.0654 -0.1438  0.0331
   21SAPC   H9X 2799   4.045   4.084   9.621 -2.6256 -0.1056  2.4968
   21SAPC   H9Y 2800   3.938   3.940   9.648 -0.0498  0.0635  0.2840
   21SAPC  C310 2801   4.060   3.930   9.466 -0.5328  0.2461  0.1718
   21SAPC  H10X 2802   4.124   3.839   9.461  0.7233  1.1799 -1.3123
   21SAPC  H10Y 2803   4.110   4.010   9.407 -2.2297  0.7838 -0.5657
   21SAPC  C311 2804   3.925   3.906   9.390 -0.6195 -0.0353 -0.1428
   21SAPC  H11X 2805   3.874   4.004   9.385 -3.4127 -1.4474 -0.2885
   21SAPC  H11Y 2806   3.849   3.837   9.433 -0.2701 -1.5040 -1.8297
   21SAPC  C312 2807   3.942   3.859   9.235 -0.4035 -0.7191  0.4690
   21SAPC  H12X 2808   3.847   3.807   9.210 -0.8078  0.5699 -0.7831
   21SAPC  H12Y 2809   4.014   3.776   9.218 -0.9614 -0.6699 -2.4936
   21SAPC  C313 2810   3.971   3.971   9.137 -0.2907 -0.3752 -0.4024
   21SAPC  H13X 2811   4.071   4.014   9.156 -0.1119  0.1567 -2.4077
   21SAPC  H13Y 2812   3.900   4.055   9.155 -0.2823 -0.4307 -0.1003
   21SAPC  C314 2813   3.970   3.912   8.993 -0.6152 -0.0591  0.4852
   21SAPC  H14X 2814   4.031   3.820   9.007 -0.1351  0.4308  1.6523
   21SAPC  H14Y 2815   4.010   3.981   8.916 -2.0180 -0.4008 -0.5767
   21SAPC  C315 2816   3.830   3.870   8.945  0.7778  0.1566  0.0071
   21SAPC  H15X 2817   3.786   3.806   9.024 -1.0254  0.5919 -0.6198
   21SAPC  H15Y 2818   3.849   3.792   8.868 -2.9223 -0.2418 -0.5679
   21SAPC  C316 2819   3.750   3.990   8.897 -0.3976 -0.1813 -0.1147
   21SAPC  H16X 2820   3.775   4.019   8.793  0.3013 -3.6296 -0.9803
   21SAPC  H16Y 2821   3.766   4.070   8.973  2.2952 -0.5036 -0.2754
   21SAPC  C317 2822   3.611   3.945   8.892 -0.0778  0.2708 -0.1653
   21SAPC  H17X 2823   3.567   3.909   8.988  1.6876 -1.4949  0.0012
   21SAPC  H17Y 2824   3.599   3.864   8.818 -0.2846  1.5008 -1.5005
   21SAPC  C318 2825   3.522   4.056   8.827 -0.6141  0.1438  0.1278
   21SAPC  H18X 2826   3.547   4.155   8.870  0.1924 -0.2936  0.6817
   21SAPC  H18Y 2827   3.416   4.031   8.849 -0.1814 -1.3023  0.6352
   21SAPC  H18Z 2828   3.546   4.052   8.718 -1.0481  0.2090  0.0308
   22SAPC     N 2829   3.694   0.063  10.561 -0.0558  0.0415 -0.2382
   22SAPC   C12 2830   3.641   0.200  10.594 -0.3085  0.0520 -0.0316
   22SAPC  H12A 2831   3.560   0.221  10.525 -0.4524 -0.0177  0.1163
   22SAPC  H12B 2832   3.714   0.272  10.560  0.3350  0.5690  2.4050
   22SAPC   C13 2833   3.599  -0.038  10.604  0.5080 -0.1170 -0.4112
   22SAPC  H13A 2834   3.560  -0.025  10.704 -0.5366 -0.8035 -0.7212
   22SAPC  H13B 2835   3.505  -0.039  10.551 -0.3528 -3.6916  1.0604
   22SAPC  H13C 2836   3.646  -0.136  10.598  0.7117  0.0460 -1.8640
   22SAPC   C14 2837   3.709   0.054  10.416 -0.3859  0.3288 -0.0712
   22SAPC  H14A 2838   3.770   0.132  10.373 -0.6007 -0.7579 -2.4094
   22SAPC  H14B 2839   3.737  -0.045  10.384  0.1875  1.0947 -1.9590
   22SAPC  H14C 2840   3.609   0.063  10.375  0.3246  1.5066 -1.5587
   22SAPC   C15 2841   3.827   0.029  10.626  0.6864  0.3998 -0.3496
   22SAPC  H15A 2842   3.858  -0.065  10.583  0.0844  1.0560 -2.2450
   22SAPC  H15B 2843   3.901   0.104  10.603  1.5513 -0.5698 -0.7259
   22SAPC  H15C 2844   3.831   0.005  10.732 -0.4776 -0.7205 -0.5522
   22SAPC   C11 2845   3.611   0.247  10.745 -0.5026 -0.8784  0.6185
   22SAPC  H11A 2846   3.533   0.183  10.791 -1.8241  0.4342  0.2415
   22SAPC  H11B 2847   3.560   0.346  10.747 -1.5082 -1.3969  1.0283
   22SAPC     P 2848   3.841   0.352  10.810 -0.1226  0.2022 -0.2142
   22SAPC   O13 2849   3.837   0.444  10.925  0.2249  0.5481 -0.1789
   22SAPC   O14 2850   3.977   0.297  10.777  0.3358  0.5589  0.4967
   22SAPC   O12 2851   3.727   0.236  10.820  0.2609 -0.3989 -0.3444
   22SAPC   O11 2852   3.797   0.428  10.679 -0.1426 -0.3363 -0.3062
   22SAPC    C1 2853   3.852   0.549  10.644  0.0821 -0.4723 -0.0546
   22SAPC    HA 2854   3.937   0.582  10.707 -0.1944  1.7994 -0.8255
   22SAPC    HB 2855   3.892   0.534  10.541 -0.0189 -1.9549  0.1073
   22SAPC    C2 2856   3.741   0.648  10.654 -0.6808 -0.0593  0.2653
   22SAPC    HS 2857   3.704   0.638  10.759  0.5512 -2.9514  0.4734
   22SAPC   O21 2858   3.639   0.620  10.555  0.6462  0.4276 -0.2037
   22SAPC   C21 2859   3.517   0.638  10.602  0.5447  0.7815  0.5400
   22SAPC   O22 2860   3.494   0.700  10.705  0.5320  0.8454 -0.0521
   22SAPC   C22 2861   3.410   0.577  10.514  0.5447 -0.0155 -0.2841
   22SAPC   H2R 2862   3.403   0.468  10.531 -0.1467  0.2198  0.9614
   22SAPC   H2S 2863   3.313   0.625  10.539  1.0165  0.8930 -0.1820
   22SAPC    C3 2864   3.799   0.798  10.629 -0.4056 -0.2295 -0.0434
   22SAPC    HX 2865   3.872   0.823  10.708  0.2689 -0.6002 -0.5407
   22SAPC    HY 2866   3.711   0.865  10.634 -1.4966 -1.1979 -4.0511
   22SAPC   O31 2867   3.874   0.806  10.505  0.4305 -0.0359  0.0261
   22SAPC   C31 2868   3.814   0.858  10.404  0.2096  0.5272 -0.3603
   22SAPC   O32 2869   3.707   0.917  10.404  0.2134  0.2235 -0.0739
   22SAPC   C32 2870   3.907   0.847  10.283 -0.4036  0.0618 -0.0038
   22SAPC   H2X 2871   3.938   0.741  10.280  2.0684  0.7904 -1.1394
   22SAPC   H2Y 2872   4.004   0.897  10.301 -0.5166  0.6173 -0.9061
   22SAPC   C23 2873   3.437   0.590  10.362 -0.3561 -0.0689 -0.3624
   22SAPC   H3R 2874   3.516   0.523  10.321 -0.9584  0.4043 -2.2996
   22SAPC   H3S 2875   3.483   0.691  10.356 -0.4608 -0.1975 -3.7735
   22SAPC   C24 2876   3.298   0.592  10.289 -0.1295  0.1488  0.8333
   22SAPC   H4R 2877   3.225   0.522  10.335  0.5922  1.5601  4.2973
   22SAPC   H4S 2878   3.321   0.550  10.189 -2.2752  0.2833  0.2761
   22SAPC   C25 2879   3.236   0.730  10.277  0.7987 -0.5515 -0.4112
   22SAPC   H5R 2880   3.199   0.776  10.370  0.1975 -0.9164 -0.4728
   22SAPC   C26 2881   3.229   0.810  10.173 -0.2772  0.1898 -0.4376
   22SAPC   H6R 2882   3.187   0.911  10.178 -0.2945  0.2058 -0.8582
   22SAPC   C27 2883   3.279   0.784  10.034 -0.1049 -0.5864  0.7504
   22SAPC   H7R 2884   3.195   0.801   9.964  2.9440  1.8572 -2.4982
   22SAPC   H7S 2885   3.317   0.680  10.019  1.0891 -0.1303  0.5153
   22SAPC   C28 2886   3.400   0.860   9.987 -0.0032 -0.1535  0.0856
   22SAPC   H8R 2887   3.447   0.915  10.070 -0.4716  1.3675 -0.6309
   22SAPC   C29 2888   3.471   0.851   9.866 -1.0073 -0.3037 -0.9092
   22SAPC   H9R 2889   3.542   0.932   9.843  1.0380 -0.8392  3.0786
   22SAPC  C210 2890   3.429   0.756   9.754  0.3939 -0.1312  0.0492
   22SAPC  H10R 2891   3.384   0.670   9.808 -0.9902 -1.1532 -2.6532
   22SAPC  H10S 2892   3.522   0.709   9.715 -0.3831 -0.1099 -1.8903
   22SAPC  C211 2893   3.335   0.812   9.649 -0.1993  0.4961  0.5327
   22SAPC  H11R 2894   3.228   0.808   9.674 -0.1280  0.2248  0.8037
   22SAPC  C212 2895   3.366   0.866   9.531 -0.2896  0.3249 -1.1522
   22SAPC  H12R 2896   3.282   0.889   9.463 -2.4817  1.8829  1.9226
   22SAPC  C213 2897   3.507   0.888   9.474  0.4024  0.6372 -0.0411
   22SAPC  H13R 2898   3.501   0.860   9.366 -0.0402 -0.0219  0.1588
   22SAPC  H13S 2899   3.585   0.817   9.510 -1.0920 -0.0924  1.7770
   22SAPC  C214 2900   3.543   1.029   9.502 -0.1410 -0.4649  0.0249
   22SAPC  H14R 2901   3.546   1.053   9.609 -0.3949  1.5479 -0.4126
   22SAPC  C215 2902   3.552   1.134   9.422  0.6514  0.5654  0.1498
   22SAPC  H15R 2903   3.567   1.234   9.466  0.9301  0.4787  0.2473
   22SAPC  C216 2904   3.529   1.133   9.269 -1.0284 -1.0407 -0.1953
   22SAPC  H16R 2905   3.444   1.198   9.240 -2.2544 -1.6847  1.8257
   22SAPC  H16S 2906   3.511   1.030   9.230 -0.5792 -1.7287  1.3672
   22SAPC  C217 2907   3.669   1.174   9.207  0.1873 -0.3864 -0.1354
   22SAPC  H17R 2908   3.673   1.156   9.098  1.3075  0.7063 -0.2957
   22SAPC  H17S 2909   3.753   1.111   9.241  0.7158  0.4508  0.1352
   22SAPC  C218 2910   3.706   1.316   9.235 -0.3184 -0.3214 -0.2885
   22SAPC  H18R 2911   3.804   1.333   9.186 -0.6639  0.6349 -0.6724
   22SAPC  H18S 2912   3.712   1.336   9.345 -0.0675 -2.0741  0.0272
   22SAPC  C219 2913   3.605   1.421   9.186 -0.3450 -0.3423 -0.0373
   22SAPC  H19R 2914   3.514   1.428   9.249 -0.2117  0.4200  0.0718
   22SAPC  H19S 2915   3.578   1.388   9.083  0.3459 -0.6636 -0.1199
   22SAPC  C220 2916   3.662   1.558   9.180  0.7932 -0.0526 -0.2356
   22SAPC  H20R 2917   3.770   1.557   9.152  1.1175  3.6413  0.5667
   22SAPC  H20S 2918   3.661   1.600   9.283  1.0351  0.9552 -0.6391
   22SAPC  H20T 2919   3.600   1.621   9.114  0.0434  0.3866  0.8606
   22SAPC   C33 2920   3.849   0.907  10.159 -0.3194 -0.0674  0.4021
   22SAPC   H3X 2921   3.848   1.018  10.164  0.6032  0.0933 -2.1530
   22SAPC   H3Y 2922   3.749   0.863  10.142 -0.4050  0.9286 -1.8805
   22SAPC   C34 2923   3.935   0.870  10.042  0.6584 -0.0254 -1.0360
   22SAPC   H4X 2924   3.928   0.759  10.045  0.5259  0.0156  1.9669
   22SAPC   H4Y 2925   4.043   0.896  10.049  0.6560 -0.4619  1.0978
   22SAPC   C35 2926   3.883   0.915   9.904 -0.3063 -0.4874 -0.2932
   22SAPC   H5X 2927   3.890   1.026   9.896 -2.8244 -0.2686  0.1201
   22SAPC   H5Y 2928   3.782   0.871   9.890 -0.1763 -0.9219  0.1180
   22SAPC   C36 2929   3.967   0.867   9.789  0.1658 -0.3250  0.4435
   22SAPC   H6X 2930   3.979   0.757   9.796 -1.9252 -0.6799 -1.1262
   22SAPC   H6Y 2931   4.066   0.916   9.799 -0.1538  0.5557 -0.7566
   22SAPC   C37 2932   3.895   0.896   9.660 -0.2994  0.0173  0.6787
   22SAPC   H7X 2933   3.856   1.000   9.660  0.4005  0.3020 -1.5128
   22SAPC   H7Y 2934   3.807   0.828   9.655  0.2611 -0.6466 -0.1842
   22SAPC   C38 2935   3.978   0.862   9.534  0.0097 -0.1901  0.2848
   22SAPC   H8X 2936   4.031   0.768   9.559 -1.7112 -1.5957 -1.1951
   22SAPC   H8Y 2937   4.058   0.937   9.515 -0.0989 -0.0291  0.4774
   22SAPC   C39 2938   3.886   0.833   9.406  0.0151  0.8510  0.6780
   22SAPC   H9X 2939   3.831   0.929   9.398 -0.0372  0.5947 -3.0361
   22SAPC   H9Y 2940   3.811   0.756   9.433  0.4405  0.1664 -0.0636
   22SAPC  C310 2941   3.955   0.793   9.275 -0.1185 -0.2858  0.5627
   22SAPC  H10X 2942   3.965   0.683   9.280 -1.7720 -0.5538 -1.4090
   22SAPC  H10Y 2943   4.060   0.827   9.262 -0.6717  0.9775 -0.7798
   22SAPC  C311 2944   3.880   0.842   9.153  0.5106 -0.3560  0.1186
   22SAPC  H11X 2945   3.879   0.953   9.145  0.1597 -0.2517  1.4723
   22SAPC  H11Y 2946   3.777   0.810   9.177  1.7838 -2.5462  2.9574
   22SAPC  C312 2947   3.916   0.779   9.018  0.2631 -0.2301 -0.8265
   22SAPC  H12X 2948   4.025   0.788   8.997  0.4142 -2.4583 -1.1317
   22SAPC  H12Y 2949   3.864   0.843   8.943  2.1661  1.6629 -0.5969
   22SAPC  C313 2950   3.870   0.630   9.005 -0.0250 -0.8070 -0.6818
   22SAPC  H13X 2951   3.763   0.623   9.034 -0.1672 -1.6958 -1.4006
   22SAPC  H13Y 2952   3.935   0.578   9.077 -1.4894  1.0432  2.0612
   22SAPC  C314 2953   3.890   0.571   8.874 -0.1130  0.2772  0.2031
   22SAPC  H14X 2954   3.788   0.591   8.836  1.3413  2.9447 -2.5452
   22SAPC  H14Y 2955   3.917   0.464   8.888 -0.9654 -0.0426 -0.5397
   22SAPC  C315 2956   3.987   0.631   8.778 -0.0102 -0.6413  0.2631
   22SAPC  H15X 2957   4.078   0.646   8.840  1.1351  1.9756 -1.9661
   22SAPC  H15Y 2958   3.936   0.723   8.744  1.1962 -0.4331 -1.0221
   22SAPC  C316 2959   4.011   0.558   8.655 -0.3146  0.0659  0.3547
   22SAPC  H16X 2960   3.919   0.560   8.593 -0.5738 -2.1125  0.6408
   22SAPC  H16Y 2961   4.018   0.449   8.673 -1.4277 -0.0382  0.1722
   22SAPC  C317 2962   4.136   0.593   8.576 -0.5050  0.5434 -0.3740
   22SAPC  H17X 2963   4.233   0.582   8.629 -1.1817  0.7730  0.9430
   22SAPC  H17Y 2964   4.138   0.701   8.550 -2.8755  1.0108  1.1869
   22SAPC  C318 2965   4.137   0.506   8.450 -1.2899 -0.3221  0.3801
   22SAPC  H18X 2966   4.126   0.403   8.491  1.7183 -1.3613 -1.3370
   22SAPC  H18Y 2967   4.224   0.504   8.382 -0.7377  2.3967  0.9628
   22SAPC  H18Z 2968   4.045   0.523   8.391 -1.4524 -0.8644  0.4708
   23SAPC     N 2969   5.742   2.712  10.908  0.3125  0.0241 -0.2446
   23SAPC   C12 2970   5.598   2.767  10.866 -0.1288  0.3536 -0.9055
   23SAPC  H12A 2971   5.595   2.776  10.758  1.1832  0.8495 -0.9092
   23SAPC  H12B 2972   5.577   2.868  10.897 -0.3221 -0.2732  1.0674
   23SAPC   C13 2973   5.759   2.722  11.059 -0.6433 -0.7955  0.5079
   23SAPC  H13A 2974   5.679   2.671  11.109 -1.6645 -2.3640 -2.5578
   23SAPC  H13B 2975   5.855   2.699  11.102 -0.6453  1.4001  1.7513
   23SAPC  H13C 2976   5.749   2.826  11.087  0.3701 -0.3905 -0.5593
   23SAPC   C14 2977   5.763   2.572  10.853  0.2797 -0.0884  0.3496
   23SAPC  H14A 2978   5.794   2.593  10.752  2.5964  0.1239  1.0736
   23SAPC  H14B 2979   5.840   2.518  10.906 -0.5937 -2.1488 -0.4555
   23SAPC  H14C 2980   5.672   2.516  10.862  1.3938 -2.5508 -2.8043
   23SAPC   C15 2981   5.845   2.808  10.845 -0.5418 -0.1390  0.4924
   23SAPC  H15A 2982   5.949   2.795  10.874  0.3540  1.9627 -1.6017
   23SAPC  H15B 2983   5.832   2.803  10.738 -0.5423  0.0898  0.4796
   23SAPC  H15C 2984   5.828   2.906  10.886 -2.7555 -0.6514  0.8480
   23SAPC   C11 2985   5.473   2.678  10.913  0.2890  0.0194  0.2115
   23SAPC  H11A 2986   5.377   2.730  10.893  0.8283  0.8492 -0.2908
   23SAPC  H11B 2987   5.479   2.658  11.022  2.0969  1.2192  0.3600
   23SAPC     P 2988   5.438   2.556  10.682  0.3626 -0.1582  0.0889
   23SAPC   O13 2989   5.538   2.469  10.627  0.0490  0.7556 -0.7340
   23SAPC   O14 2990   5.297   2.528  10.657  0.5878  0.4935  0.2834
   23SAPC   O12 2991   5.452   2.562  10.839  0.1035 -0.6196  0.2614
   23SAPC   O11 2992   5.467   2.698  10.628  0.0382 -0.4641  0.2031
   23SAPC    C1 2993   5.382   2.795  10.572  0.1200 -0.1681  0.6823
   23SAPC    HA 2994   5.276   2.767  10.593 -0.7408  3.4560  1.4874
   23SAPC    HB 2995   5.395   2.895  10.617  0.5392 -0.0797  0.3702
   23SAPC    C2 2996   5.388   2.800  10.416  0.2159  1.0904 -0.1996
   23SAPC    HS 2997   5.322   2.878  10.371  1.1316  2.8280  1.3698
   23SAPC   O21 2998   5.369   2.665  10.368  0.3162 -0.8184  0.0447
   23SAPC   C21 2999   5.243   2.630  10.341  0.1965  0.3226 -0.3304
   23SAPC   O22 3000   5.152   2.708  10.316  0.4196  0.2347 -0.5773
   23SAPC   C22 3001   5.243   2.473  10.321  0.1953  0.1263  0.3953
   23SAPC   H2R 3002   5.310   2.449  10.237  0.2690  0.8708  0.2417
   23SAPC   H2S 3003   5.288   2.429  10.413  0.6849 -1.2448 -0.5008
   23SAPC    C3 3004   5.530   2.852  10.385 -0.5639  0.0220  0.3535
   23SAPC    HX 3005   5.601   2.798  10.450  1.2331 -1.2215 -2.5372
   23SAPC    HY 3006   5.530   2.958  10.418  0.2801 -0.0614  0.6075
   23SAPC   O31 3007   5.558   2.846  10.240  0.3118 -0.1832  0.1347
   23SAPC   C31 3008   5.642   2.747  10.212  0.4188  0.6149  0.1097
   23SAPC   O32 3009   5.697   2.670  10.293 -0.1902  0.3066 -0.1038
   23SAPC   C32 3010   5.668   2.747  10.066  0.2120 -0.3189  0.1987
   23SAPC   H2X 3011   5.775   2.757  10.041  0.2746 -0.8588  0.2278
   23SAPC   H2Y 3012   5.630   2.844  10.029  0.8018  1.2408  3.5303
   23SAPC   C23 3013   5.104   2.409  10.290  1.2768  0.5548 -0.2811
   23SAPC   H3R 3014   5.049   2.466  10.212 -0.1535  0.5196  0.6747
   23SAPC   H3S 3015   5.048   2.414  10.386 -1.4949 -4.2553 -1.4960
   23SAPC   C24 3016   5.116   2.253  10.266 -0.4939  0.0285 -0.2657
   23SAPC   H4R 3017   5.017   2.213  10.297 -1.0584  0.0301 -2.0156
   23SAPC   H4S 3018   5.201   2.214  10.325 -0.9890 -0.9744 -0.2062
   23SAPC   C25 3019   5.155   2.213  10.125 -0.5744  0.5783 -0.7200
   23SAPC   H5R 3020   5.259   2.236  10.100 -0.0034 -0.9775  0.1948
   23SAPC   C26 3021   5.070   2.164  10.027  0.2063 -0.2892  0.5283
   23SAPC   H6R 3022   5.111   2.135   9.930  0.0824 -1.9666  0.9478
   23SAPC   C27 3023   4.919   2.151  10.036  0.2546  0.5487 -0.0835
   23SAPC   H7R 3024   4.892   2.113  10.137  0.6365  0.3072 -0.0716
   23SAPC   H7S 3025   4.870   2.076   9.970  0.8236 -0.3561  0.5149
   23SAPC   C28 3026   4.845   2.286  10.011  0.7072  0.2524  0.0820
   23SAPC   H8R 3027   4.867   2.372  10.077  0.7633 -0.2774  0.7621
   23SAPC   C29 3028   4.753   2.312   9.921  0.5510 -0.0426  0.0667
   23SAPC   H9R 3029   4.696   2.405   9.933 -2.5678 -1.8475 -0.2785
   23SAPC  C210 3030   4.697   2.226   9.810 -0.5815 -0.5345 -0.2398
   23SAPC  H10R 3031   4.590   2.201   9.827  0.0990 -2.5196  1.2233
   23SAPC  H10S 3032   4.751   2.129   9.810  0.0728 -0.1808 -0.6739
   23SAPC  C211 3033   4.698   2.305   9.672  0.4564  0.2187 -0.1769
   23SAPC  H11R 3034   4.617   2.379   9.657  0.1217 -0.4293 -1.5789
   23SAPC  C212 3035   4.785   2.292   9.571  0.5047 -0.5622  0.6588
   23SAPC  H12R 3036   4.774   2.364   9.488 -0.5357 -1.3525  0.0899
   23SAPC  C213 3037   4.888   2.189   9.559  0.0497 -0.2821  0.3316
   23SAPC  H13R 3038   4.864   2.106   9.628 -2.7334 -0.1051 -0.3867
   23SAPC  H13S 3039   4.986   2.231   9.593 -1.8062  3.4725  1.3293
   23SAPC  C214 3040   4.906   2.126   9.424  0.9941  0.6412  0.2029
   23SAPC  H14R 3041   4.856   2.027   9.418  0.8377  0.6463  1.3267
   23SAPC  C215 3042   4.969   2.184   9.318  0.6769  0.2883 -0.4445
   23SAPC  H15R 3043   4.983   2.125   9.226 -0.9364  0.7247 -0.9903
   23SAPC  C216 3044   5.032   2.325   9.320  0.3345  0.1350  0.2373
   23SAPC  H16R 3045   5.142   2.314   9.310  0.0433 -0.7363 -2.5009
   23SAPC  H16S 3046   5.019   2.370   9.421 -0.0336 -0.0355  0.2658
   23SAPC  C217 3047   4.993   2.434   9.216  1.0437  0.8035  0.4278
   23SAPC  H17R 3048   5.023   2.532   9.258  0.7902  0.0815  2.3332
   23SAPC  H17S 3049   4.882   2.438   9.205  0.8236  0.5707  2.3275
   23SAPC  C218 3050   5.054   2.401   9.076  0.7585  0.3383  0.8014
   23SAPC  H18R 3051   4.999   2.314   9.034  2.6865  0.1464 -1.4546
   23SAPC  H18S 3052   5.158   2.366   9.091  0.1416 -0.5938  3.1426
   23SAPC  C219 3053   5.047   2.515   8.969 -0.2735  0.0648  0.1876
   23SAPC  H19R 3054   5.061   2.475   8.866  1.7214 -0.3909  0.6203
   23SAPC  H19S 3055   5.126   2.594   8.974  1.0880 -1.1535 -1.5590
   23SAPC  C220 3056   4.905   2.577   8.967 -0.4227 -0.5664 -0.5207
   23SAPC  H20R 3057   4.824   2.502   8.977 -0.8722 -0.1481 -0.9770
   23SAPC  H20S 3058   4.899   2.638   8.875 -1.3204  1.0702  0.5900
   23SAPC  H20T 3059   4.887   2.649   9.050  0.6436  0.6979 -1.3588
   23SAPC   C33 3060   5.582   2.640   9.984  0.4812 -0.3683 -0.3025
   23SAPC   H3X 3061   5.475   2.671   9.982  0.0727 -1.7171  0.3648
   23SAPC   H3Y 3062   5.590   2.539  10.028  0.1010 -0.0343  0.5400
   23SAPC   C34 3063   5.624   2.650   9.839 -0.0471  0.8616 -0.0196
   23SAPC   H4X 3064   5.643   2.753   9.802  2.4553 -0.0173 -1.2803
   23SAPC   H4Y 3065   5.562   2.603   9.759 -1.9239  2.8473  0.2253
   23SAPC   C35 3066   5.756   2.574   9.811  0.7047  0.3909 -0.1725
   23SAPC   H5X 3067   5.727   2.467   9.809  0.7704  0.3447  1.0694
   23SAPC   H5Y 3068   5.824   2.595   9.896 -1.5473  0.2441  1.7321
   23SAPC   C36 3069   5.815   2.599   9.672  0.0246 -0.5323  0.9072
   23SAPC   H6X 3070   5.906   2.536   9.665  0.5836  0.4114 -0.5872
   23SAPC   H6Y 3071   5.847   2.706   9.670 -0.1901 -0.4120  2.7113
   23SAPC   C37 3072   5.727   2.543   9.558 -0.0563  0.0049  0.1468
   23SAPC   H7X 3073   5.633   2.602   9.559  0.3438  0.6669 -0.8004
   23SAPC   H7Y 3074   5.691   2.439   9.578 -0.4988  0.3486  1.1788
   23SAPC   C38 3075   5.799   2.549   9.424  0.3066  0.0536  0.5664
   23SAPC   H8X 3076   5.891   2.486   9.429  0.4579  0.0197 -1.9086
   23SAPC   H8Y 3077   5.850   2.644   9.400  1.2392 -0.6788 -0.4469
   23SAPC   C39 3078   5.713   2.486   9.312 -0.4996  0.3035 -0.0554
   23SAPC   H9X 3079   5.624   2.551   9.299 -1.4715 -0.5963  1.9465
   23SAPC   H9Y 3080   5.661   2.390   9.335 -1.1426 -0.0314 -2.7597
   23SAPC  C310 3081   5.791   2.468   9.179 -0.4181  0.1149 -0.2649
   23SAPC  H10X 3082   5.865   2.387   9.196 -0.4158  0.3431  0.8290
   23SAPC  H10Y 3083   5.839   2.566   9.161  0.1610  0.1961  1.6469
   23SAPC  C311 3084   5.711   2.428   9.053 -0.2114  0.1797 -0.6029
   23SAPC  H11X 3085   5.636   2.351   9.083  0.6709 -0.6949 -0.6164
   23SAPC  H11Y 3086   5.777   2.363   8.993 -1.1726 -1.0278 -0.3933
   23SAPC  C312 3087   5.641   2.538   8.970  0.1785  0.1542 -0.5421
   23SAPC  H12X 3088   5.718   2.614   8.941 -0.6474  1.5285  0.7935
   23SAPC  H12Y 3089   5.556   2.580   9.027 -0.9578  1.0330 -2.8087
   23SAPC  C313 3090   5.581   2.476   8.839  0.1511  0.0125 -0.6982
   23SAPC  H13X 3091   5.511   2.397   8.876  1.2627 -0.9414 -0.5956
   23SAPC  H13Y 3092   5.666   2.421   8.795 -0.3879 -0.6579 -0.9149
   23SAPC  C314 3093   5.533   2.577   8.735  0.0077 -0.5093 -0.1938
   23SAPC  H14X 3094   5.619   2.643   8.714 -1.0602  1.5311  1.6493
   23SAPC  H14Y 3095   5.446   2.636   8.771  1.3132 -0.6575  3.5067
   23SAPC  C315 3096   5.495   2.512   8.595  0.4821 -1.0376 -0.5327
   23SAPC  H15X 3097   5.405   2.450   8.612 -0.5944  0.9736  1.3979
   23SAPC  H15Y 3098   5.579   2.457   8.548 -0.8978 -1.2067 -2.8709
   23SAPC  C316 3099   5.468   2.614   8.480  0.0059 -0.1881 -0.4490
   23SAPC  H16X 3100   5.553   2.684   8.462  0.8400 -1.2002 -0.4419
   23SAPC  H16Y 3101   5.372   2.664   8.506 -0.5492 -1.8285  0.7460
   23SAPC  C317 3102   5.422   2.538   8.348  0.3135 -0.4158  0.4076
   23SAPC  H17X 3103   5.515   2.487   8.315  1.4497  1.0537  1.2543
   23SAPC  H17Y 3104   5.405   2.609   8.264  0.3930  0.3716  1.0473
   23SAPC  C318 3105   5.303   2.437   8.355 -0.7479  0.0991  0.1580
   23SAPC  H18X 3106   5.339   2.348   8.410  0.1079  0.0580 -0.4555
   23SAPC  H18Y 3107   5.279   2.409   8.250  0.4903 -0.8800  0.1300
   23SAPC  H18Z 3108   5.211   2.484   8.396 -0.2693  0.8577  0.3898
   24SAPC     N 3109   1.104   2.644  11.537  0.3340  0.0996  0.4416
   24SAPC   C12 3110   1.099   2.513  11.464 -0.0424 -0.0513 -0.2660
   24SAPC  H12A 3111   1.061   2.441  11.536 -0.3883 -1.4349 -1.8175
   24SAPC  H12B 3112   1.199   2.490  11.432  0.5986  1.4013  0.6420
   24SAPC   C13 3113   1.164   2.633  11.681  0.1861 -0.0335  0.1340
   24SAPC  H13A 3114   1.160   2.730  11.728  2.5493  1.3989 -2.4606
   24SAPC  H13B 3115   1.104   2.564  11.739  2.5206  0.1456  2.8253
   24SAPC  H13C 3116   1.264   2.595  11.683 -0.8077 -2.6877  0.9674
   24SAPC   C14 3117   1.190   2.737  11.452  0.5659 -0.3539  0.2987
   24SAPC  H14A 3118   1.297   2.719  11.455  0.5255 -0.7473 -0.5905
   24SAPC  H14B 3119   1.153   2.736  11.350 -1.6547 -2.7116  1.0947
   24SAPC  H14C 3120   1.177   2.839  11.485 -1.2100  0.2519 -2.1086
   24SAPC   C15 3121   0.967   2.703  11.548  0.2915 -0.4958 -0.5624
   24SAPC  H15A 3122   0.927   2.726  11.450  0.0088 -0.6746 -0.4899
   24SAPC  H15B 3123   0.892   2.634  11.583 -0.2540 -0.3678 -1.4634
   24SAPC  H15C 3124   0.963   2.797  11.600  1.0517 -0.5591 -0.3905
   24SAPC   C11 3125   1.008   2.505  11.337 -0.1826 -0.3953  0.0118
   24SAPC  H11A 3126   0.903   2.519  11.372 -0.7793 -2.8966 -0.6735
   24SAPC  H11B 3127   1.018   2.402  11.297 -2.9635 -0.2904 -1.0600
   24SAPC     P 3128   0.946   2.684  11.160  0.0279 -0.3783  0.2464
   24SAPC   O13 3129   0.893   2.775  11.256 -0.3108 -0.4639 -0.1915
   24SAPC   O14 3130   1.001   2.737  11.033  0.0974  0.7282  0.0632
   24SAPC   O12 3131   1.056   2.597  11.241  0.0620  0.5968  0.3246
   24SAPC   O11 3132   0.832   2.582  11.124  0.2582 -0.1021 -0.1214
   24SAPC    C1 3133   0.847   2.472  11.041  0.8270 -0.0990 -0.2302
   24SAPC    HA 3134   0.953   2.450  11.017  1.3384  2.2313 -0.2042
   24SAPC    HB 3135   0.818   2.383  11.102 -0.7154 -0.5147 -1.5622
   24SAPC    C2 3136   0.768   2.483  10.908 -1.0133 -0.2741  0.0744
   24SAPC    HS 3137   0.773   2.389  10.848 -0.9564  0.8052 -1.6298
   24SAPC   O21 3138   0.821   2.592  10.823  0.2739  0.0380  0.5801
   24SAPC   C21 3139   0.927   2.556  10.747  0.3659 -0.4247 -0.6904
   24SAPC   O22 3140   0.979   2.444  10.746  0.0976  0.1459  0.9358
   24SAPC   C22 3141   0.971   2.678  10.668  0.4368  0.0999  0.3013
   24SAPC   H2R 3142   0.906   2.768  10.671  2.5905  1.7062 -0.2631
   24SAPC   H2S 3143   1.075   2.703  10.696  0.6703 -0.7152  0.1767
   24SAPC    C3 3144   0.618   2.492  10.931  0.0236 -0.7865  0.1593
   24SAPC    HX 3145   0.599   2.595  10.969 -1.1247 -0.3817 -1.4727
   24SAPC    HY 3146   0.597   2.413  11.006  0.7415 -0.6442  0.5105
   24SAPC   O31 3147   0.541   2.478  10.808  0.6563 -0.0582 -0.5450
   24SAPC   C31 3148   0.523   2.360  10.762 -0.0861  0.2465 -0.1623
   24SAPC   O32 3149   0.578   2.256  10.797 -0.0314 -0.2516  0.2861
   24SAPC   C32 3150   0.419   2.369  10.657 -0.9802  0.5908 -0.1436
   24SAPC   H2X 3151   0.344   2.443  10.690 -1.0069  1.1687 -1.4797
   24SAPC   H2Y 3152   0.377   2.267  10.642 -0.3039  0.0265  1.6440
   24SAPC   C23 3153   0.984   2.638  10.513 -0.6662  0.0384 -0.5185
   24SAPC   H3R 3154   1.056   2.554  10.499 -0.7286 -0.2010  0.5932
   24SAPC   H3S 3155   1.030   2.717  10.451 -0.3632 -1.4762 -2.2824
   24SAPC   C24 3156   0.840   2.610  10.451  0.0734 -0.4487 -0.2836
   24SAPC   H4R 3157   0.800   2.527  10.513 -2.9811  2.0261  1.2362
   24SAPC   H4S 3158   0.855   2.562  10.352  0.4136 -0.1416 -0.3834
   24SAPC   C25 3159   0.744   2.723  10.447  0.4276 -0.5425 -0.0023
   24SAPC   H5R 3160   0.713   2.761  10.545  1.3891  1.2711 -0.3748
   24SAPC   C26 3161   0.692   2.774  10.332 -0.3439  0.5246  0.5349
   24SAPC   H6R 3162   0.611   2.848  10.346 -0.5064  0.9899 -2.4323
   24SAPC   C27 3163   0.743   2.743  10.195  0.2002 -0.1722 -0.1996
   24SAPC   H7R 3164   0.713   2.640  10.167  0.4010 -0.1617 -0.4460
   24SAPC   H7S 3165   0.854   2.748  10.198  0.1703  1.8919 -1.6022
   24SAPC   C28 3166   0.699   2.848  10.093  0.1987  0.4783 -0.3353
   24SAPC   H8R 3167   0.667   2.942  10.139  0.4344 -1.9134  5.0663
   24SAPC   C29 3168   0.706   2.833   9.963 -0.3064  0.3981 -0.7676
   24SAPC   H9R 3169   0.669   2.912   9.897  1.0399  2.4626  0.8614
   24SAPC  C210 3170   0.748   2.705   9.890 -0.5839  0.5965 -0.9404
   24SAPC  H10R 3171   0.785   2.630   9.963 -0.3730 -2.1239 -3.7211
   24SAPC  H10S 3172   0.840   2.725   9.832  0.9556 -0.8207  0.9330
   24SAPC  C211 3173   0.640   2.643   9.801 -0.5101 -0.6516  0.0832
   24SAPC  H11R 3174   0.604   2.545   9.834 -2.2793  0.2037  0.7601
   24SAPC  C212 3175   0.599   2.686   9.682 -0.4157  0.5311 -0.5286
   24SAPC  H12R 3176   0.513   2.640   9.630 -0.1690 -0.9398  0.3485
   24SAPC  C213 3177   0.646   2.811   9.617 -0.6536  0.1472 -0.2021
   24SAPC  H13R 3178   0.704   2.878   9.683  1.1613  1.2028 -2.7545
   24SAPC  H13S 3179   0.564   2.877   9.581 -0.6067 -1.0925 -2.6847
   24SAPC  C214 3180   0.728   2.769   9.496  0.0290  1.2661  0.7265
   24SAPC  H14R 3181   0.832   2.745   9.519 -1.0167 -1.0529  3.3542
   24SAPC  C215 3182   0.686   2.760   9.371 -0.0566  0.1200 -1.0064
   24SAPC  H15R 3183   0.750   2.745   9.283 -0.5604  1.6360 -1.6535
   24SAPC  C216 3184   0.547   2.794   9.336  0.9303  0.0911  0.5722
   24SAPC  H16R 3185   0.483   2.786   9.426  0.6769  0.6444  0.4441
   24SAPC  H16S 3186   0.498   2.712   9.278  0.8939  1.3267 -1.1817
   24SAPC  C217 3187   0.523   2.921   9.254 -0.1933  0.8818  0.0769
   24SAPC  H17R 3188   0.548   3.005   9.323  1.0556  0.1976  0.4745
   24SAPC  H17S 3189   0.418   2.934   9.220 -0.0767  3.0730  0.4827
   24SAPC  C218 3190   0.611   2.954   9.130  0.2280 -0.2095 -0.1962
   24SAPC  H18R 3191   0.716   2.939   9.165  0.2999 -1.0339 -0.7313
   24SAPC  H18S 3192   0.592   3.063   9.121  0.8258  0.0823  1.8785
   24SAPC  C219 3193   0.580   2.880   9.004 -0.7045  0.0383 -0.0550
   24SAPC  H19R 3194   0.472   2.899   8.985 -1.1760 -1.5892  0.8713
   24SAPC  H19S 3195   0.582   2.772   9.028  1.3309  0.1433  0.3528
   24SAPC  C220 3196   0.650   2.923   8.875  0.0073 -0.7003  0.2760
   24SAPC  H20R 3197   0.616   2.860   8.790 -1.5113  0.0236  0.3430
   24SAPC  H20S 3198   0.758   2.899   8.889  0.4350 -0.6796 -2.6669
   24SAPC  H20T 3199   0.647   3.032   8.857  2.5692 -0.3170  1.8968
   24SAPC   C33 3200   0.477   2.411  10.520 -0.2367  0.0782  0.3529
   24SAPC   H3X 3201   0.566   2.346  10.505 -0.1794  0.5575 -1.5239
   24SAPC   H3Y 3202   0.519   2.513  10.531  0.7505 -0.1424 -1.1275
   24SAPC   C34 3203   0.381   2.405  10.410  0.6061 -0.4520  0.6755
   24SAPC   H4X 3204   0.288   2.452  10.448 -1.7454 -3.8804 -0.5577
   24SAPC   H4Y 3205   0.347   2.301  10.391 -0.4537  0.0342 -0.1811
   24SAPC   C35 3206   0.433   2.482  10.285 -0.5096 -0.9064  0.1919
   24SAPC   H5X 3207   0.521   2.421  10.256 -1.4493 -1.9151 -0.5738
   24SAPC   H5Y 3208   0.478   2.581  10.304 -3.2701  0.1229  1.6937
   24SAPC   C36 3209   0.322   2.501  10.182 -0.5030  0.6273  0.7701
   24SAPC   H6X 3210   0.254   2.576  10.229  0.9664  2.0284  0.6899
   24SAPC   H6Y 3211   0.280   2.400  10.163  2.1326 -1.3438  4.6351
   24SAPC   C37 3212   0.362   2.557  10.043  0.2928  0.1056 -0.1946
   24SAPC   H7X 3213   0.440   2.496   9.994  0.2206 -0.3504  0.2558
   24SAPC   H7Y 3214   0.382   2.666  10.041 -1.1158  0.4496  2.3034
   24SAPC   C38 3215   0.249   2.561   9.940  0.2460 -0.1765 -0.5949
   24SAPC   H8X 3216   0.203   2.461   9.924 -1.7067  0.0425  2.9772
   24SAPC   H8Y 3217   0.288   2.606   9.847  0.0637 -0.5025 -0.8316
   24SAPC   C39 3218   0.122   2.643   9.993 -0.2638 -0.0615 -0.2550
   24SAPC   H9X 3219   0.162   2.728  10.052 -0.7674  0.5526 -0.7925
   24SAPC   H9Y 3220   0.072   2.571  10.061  0.3673  0.0189  0.3084
   24SAPC  C310 3221   0.023   2.674   9.885  0.5788  0.3628  0.6501
   24SAPC  H10X 3222   0.063   2.758   9.823 -0.6727  1.1188  0.8487
   24SAPC  H10Y 3223  -0.079   2.702   9.921 -0.4597 -2.5373  0.1060
   24SAPC  C311 3224   0.011   2.570   9.776  0.1644  0.6009  0.1852
   24SAPC  H11X 3225  -0.030   2.478   9.824  0.4339 -0.3151 -1.3081
   24SAPC  H11Y 3226   0.107   2.558   9.721 -0.0532 -0.0705 -0.0594
   24SAPC  C312 3227  -0.076   2.621   9.657  0.0098  0.4148  0.1684
   24SAPC  H12X 3228  -0.023   2.709   9.615  0.2404  0.1285 -0.1470
   24SAPC  H12Y 3229  -0.167   2.667   9.702  0.7432  1.0057  1.0512
   24SAPC  C313 3230  -0.112   2.513   9.555 -0.1481 -0.2349 -1.0990
   24SAPC  H13X 3231  -0.212   2.470   9.575  0.5283 -1.3348  0.0682
   24SAPC  H13Y 3232  -0.037   2.431   9.565  0.0236  0.0618  0.1684
   24SAPC  C314 3233  -0.107   2.571   9.406 -0.6090 -0.0251  0.4501
   24SAPC  H14X 3234  -0.161   2.667   9.389 -1.4810 -0.3821  1.1015
   24SAPC  H14Y 3235  -0.164   2.503   9.339 -1.6408  1.2218  0.0453
   24SAPC  C315 3236   0.038   2.587   9.368  0.4175 -0.4175  0.6708
   24SAPC  H15X 3237   0.089   2.490   9.384 -0.8768 -0.7264  3.2233
   24SAPC  H15Y 3238   0.092   2.663   9.428  1.7174  0.1733 -1.1936
   24SAPC  C316 3239   0.044   2.631   9.223 -0.2574 -0.3026  0.5608
   24SAPC  H16X 3240  -0.033   2.710   9.207 -1.2813 -0.7319  3.0031
   24SAPC  H16Y 3241   0.011   2.545   9.161  1.5034  1.0753 -2.3586
   24SAPC  C317 3242   0.190   2.662   9.173  0.3146  0.1804 -0.1326
   24SAPC  H17X 3243   0.258   2.587   9.220 -1.2763 -1.0883  0.2003
   24SAPC  H17Y 3244   0.230   2.756   9.216 -0.3859  0.7877 -0.7963
   24SAPC  C318 3245   0.215   2.679   9.025 -0.3988  0.5474 -0.2958
   24SAPC  H18X 3246   0.188   2.585   8.974 -0.2156  0.5197 -0.3406
   24SAPC  H18Y 3247   0.323   2.693   9.003  0.1766 -3.1843 -0.0896
   24SAPC  H18Z 3248   0.150   2.757   8.980  1.7444  0.7745 -3.1307
   25SAPC     N 3249   4.133   0.001   5.848  0.2567  0.9365  0.3383
   25SAPC   C12 3250   4.234   0.110   5.898 -0.0852  0.7149  0.5994
   25SAPC  H12A 3251   4.201   0.199   5.846  0.4468 -0.0213 -1.0407
   25SAPC  H12B 3252   4.330   0.081   5.858 -0.9089  0.9950 -1.6523
   25SAPC   C13 3253   3.989   0.052   5.867 -0.1435  0.0040  0.0375
   25SAPC  H13A 3254   3.974   0.134   5.798 -1.2311 -0.6110 -0.4700
   25SAPC  H13B 3255   3.910  -0.019   5.847 -0.9437  0.2551  2.1658
   25SAPC  H13C 3256   3.973   0.093   5.966  2.0470 -0.0577  0.4476
   25SAPC   C14 3257   4.153  -0.023   5.704  0.1477  0.8112  0.7087
   25SAPC  H14A 3258   4.120  -0.121   5.672 -1.0098  1.4340 -0.0172
   25SAPC  H14B 3259   4.099   0.051   5.648 -0.2424  1.2018  1.5899
   25SAPC  H14C 3260   4.258  -0.019   5.678  0.0183  2.9649  0.4426
   25SAPC   C15 3261   4.152  -0.122   5.923  0.1798 -0.5070  0.1729
   25SAPC  H15A 3262   4.257  -0.146   5.921  0.3324  0.0542  1.3013
   25SAPC  H15B 3263   4.118  -0.113   6.025 -1.5171  0.4061 -0.4578
   25SAPC  H15C 3264   4.094  -0.202   5.880 -0.0389  0.4485 -1.3565
   25SAPC   C11 3265   4.247   0.122   6.057  0.1887 -0.1894  0.2044
   25SAPC  H11A 3266   4.336   0.185   6.081 -0.0898 -0.3754  1.8169
   25SAPC  H11B 3267   4.281   0.028   6.105  3.9485  0.5690 -0.8062
   25SAPC     P 3268   4.064   0.322   6.100  0.1289  0.0566 -0.2743
   25SAPC   O13 3269   4.121   0.409   6.205 -0.5851 -0.5833  0.1136
   25SAPC   O14 3270   4.103   0.363   5.961  0.0113  0.1819 -0.6009
   25SAPC   O12 3271   4.118   0.167   6.114 -0.2846  0.4855  0.1963
   25SAPC   O11 3272   3.914   0.310   6.117  0.1364 -0.1664  0.2189
   25SAPC    C1 3273   3.838   0.210   6.172  0.6726 -0.2431  0.3586
   25SAPC    HA 3274   3.752   0.195   6.104  0.7988  0.2132  0.1008
   25SAPC    HB 3275   3.899   0.118   6.189 -0.7338 -1.0565  1.1163
   25SAPC    C2 3276   3.780   0.249   6.307  0.2206  0.0241  1.0829
   25SAPC    HS 3277   3.705   0.328   6.284  1.1072  0.2008 -1.2851
   25SAPC   O21 3278   3.876   0.310   6.386  0.6910  0.6451 -0.2624
   25SAPC   C21 3279   3.837   0.394   6.484  0.6481  0.4810 -0.1451
   25SAPC   O22 3280   3.721   0.429   6.511 -0.0507 -0.1298 -0.5369
   25SAPC   C22 3281   3.965   0.426   6.564 -0.1964  0.1662 -0.2172
   25SAPC   H2R 3282   4.040   0.352   6.529  2.2277  2.0375  0.9587
   25SAPC   H2S 3283   4.009   0.523   6.534 -1.5992  0.9245  0.1262
   25SAPC    C3 3284   3.732   0.117   6.371  0.6170  0.7769  0.5477
   25SAPC    HX 3285   3.823   0.054   6.380  1.5437  1.8652 -0.9745
   25SAPC    HY 3286   3.668   0.070   6.293  0.2016  1.4771  0.4643
   25SAPC   O31 3287   3.668   0.134   6.500 -0.2684  0.4728  0.1359
   25SAPC   C31 3288   3.541   0.173   6.498 -0.0407 -0.2709 -0.2824
   25SAPC   O32 3289   3.467   0.182   6.405 -0.4428 -0.8690 -0.3340
   25SAPC   C32 3290   3.505   0.213   6.642 -0.2956 -0.5532 -0.1791
   25SAPC   H2X 3291   3.594   0.238   6.704 -0.8362  1.9994 -0.3773
   25SAPC   H2Y 3292   3.457   0.123   6.686  1.8853 -1.1113  1.1534
   25SAPC   C23 3293   3.947   0.391   6.712 -0.1931  0.7239 -0.5582
   25SAPC   H3R 3294   3.862   0.454   6.745  0.2301  1.9426 -1.7433
   25SAPC   H3S 3295   4.037   0.415   6.773  1.0645 -1.9668 -1.2836
   25SAPC   C24 3296   3.913   0.246   6.748 -0.0945 -0.1126 -0.6651
   25SAPC   H4R 3297   3.814   0.229   6.700 -1.0087  0.2471  1.0559
   25SAPC   H4S 3298   3.914   0.248   6.859 -1.3875  0.7475 -0.6466
   25SAPC   C25 3299   3.994   0.143   6.679  0.5128 -0.2293 -0.0971
   25SAPC   H5R 3300   3.955   0.134   6.577  1.8266 -2.4730 -0.4238
   25SAPC   C26 3301   4.104   0.076   6.725 -0.6776  0.2282 -0.2282
   25SAPC   H6R 3302   4.160   0.011   6.656 -2.2028 -1.2869 -0.0601
   25SAPC   C27 3303   4.171   0.088   6.863  0.1680 -0.3693 -0.5414
   25SAPC   H7R 3304   4.219   0.187   6.877  1.0261 -0.7405 -0.8046
   25SAPC   H7S 3305   4.264   0.026   6.862 -0.1007 -0.7482 -1.9746
   25SAPC   C28 3306   4.079   0.053   6.980  0.3276  0.3590 -0.0675
   25SAPC   H8R 3307   4.003  -0.023   6.956  1.3037 -0.7121  0.1482
   25SAPC   C29 3308   4.070   0.113   7.099 -0.2842  0.1580 -0.6915
   25SAPC   H9R 3309   4.000   0.075   7.174  2.4848 -1.3823  1.2006
   25SAPC  C210 3310   4.164   0.219   7.140 -0.0047 -1.0243  0.2885
   25SAPC  H10R 3311   4.139   0.316   7.091  1.5937  1.3228  3.9114
   25SAPC  H10S 3312   4.266   0.189   7.109 -1.3092 -2.4749 -2.8428
   25SAPC  C211 3313   4.170   0.250   7.293 -0.1879  0.0992  0.0882
   25SAPC  H11R 3314   4.256   0.200   7.340  0.0315 -0.4925 -0.9199
   25SAPC  C212 3315   4.083   0.322   7.365 -0.3830 -0.7198 -0.1303
   25SAPC  H12R 3316   4.095   0.340   7.473 -1.0258 -1.0688  0.0061
   25SAPC  C213 3317   3.957   0.382   7.307  0.2334  0.8534 -0.0519
   25SAPC  H13R 3318   3.969   0.407   7.199 -0.9571 -1.0928 -0.6638
   25SAPC  H13S 3319   3.935   0.476   7.363 -0.1609 -0.2344  1.6411
   25SAPC  C214 3320   3.832   0.292   7.339 -0.0412  0.4803 -0.6717
   25SAPC  H14R 3321   3.796   0.301   7.442  0.2006  3.1845 -0.7991
   25SAPC  C215 3322   3.744   0.242   7.247 -0.7742 -0.3496  0.1328
   25SAPC  H15R 3323   3.663   0.190   7.301 -0.9056  0.7386  0.9941
   25SAPC  C216 3324   3.737   0.241   7.092 -0.8428  0.4067 -1.1939
   25SAPC  H16R 3325   3.832   0.289   7.061 -0.7465 -0.9934 -3.1446
   25SAPC  H16S 3326   3.646   0.296   7.060 -1.4506  0.0345 -0.1173
   25SAPC  C217 3327   3.728   0.095   7.037  0.2379  0.0335  0.2406
   25SAPC  H17R 3328   3.791   0.029   7.101  0.3486  0.4347  0.5455
   25SAPC  H17S 3329   3.742   0.093   6.927 -0.7740 -0.1204  0.1088
   25SAPC  C218 3330   3.587   0.028   7.051 -0.0716  0.1607 -0.6185
   25SAPC  H18R 3331   3.511   0.088   6.996 -0.9389 -1.1081 -0.8313
   25SAPC  H18S 3332   3.569   0.041   7.160  0.0457  2.4956 -0.8450
   25SAPC  C219 3333   3.583  -0.119   7.017 -0.1278 -0.4231 -0.2578
   25SAPC  H19R 3334   3.483  -0.157   7.048 -1.7159 -0.1963 -4.8253
   25SAPC  H19S 3335   3.661  -0.173   7.075  1.0373  1.6402  0.1811
   25SAPC  C220 3336   3.580  -0.145   6.867  0.7433 -0.0131 -0.5413
   25SAPC  H20R 3337   3.534  -0.242   6.839  0.3194 -1.1002  3.4908
   25SAPC  H20S 3338   3.684  -0.134   6.831  1.6353  0.6937  2.0853
   25SAPC  H20T 3339   3.530  -0.062   6.813 -0.2730 -0.7796 -0.7976
   25SAPC   C33 3340   3.399   0.320   6.662 -0.2079  0.4605  0.1162
   25SAPC   H3X 3341   3.312   0.284   6.604 -0.9142  0.8992  0.8988
   25SAPC   H3Y 3342   3.432   0.419   6.624 -1.7791  1.4529  1.3107
   25SAPC   C34 3343   3.351   0.336   6.804  0.2568 -0.3350  0.3564
   25SAPC   H4X 3344   3.352   0.241   6.863 -0.7094  0.5091  1.7792
   25SAPC   H4Y 3345   3.248   0.376   6.788  0.3314 -1.2558 -2.6536
   25SAPC   C35 3346   3.425   0.444   6.887 -0.5887 -0.0459  0.6203
   25SAPC   H5X 3347   3.407   0.541   6.837 -2.3024 -1.0449 -0.7978
   25SAPC   H5Y 3348   3.531   0.422   6.859 -0.3400  1.5866  0.2333
   25SAPC   C36 3349   3.407   0.430   7.038 -0.1719  0.2990 -0.4592
   25SAPC   H6X 3350   3.465   0.509   7.091  0.7132 -2.0275  2.2262
   25SAPC   H6Y 3351   3.450   0.336   7.078 -0.6558  0.4676  0.4907
   25SAPC   C37 3352   3.270   0.418   7.096  0.2686 -0.2981 -0.4530
   25SAPC   H7X 3353   3.210   0.338   7.048  0.0203 -0.1642 -0.3683
   25SAPC   H7Y 3354   3.221   0.514   7.068 -1.6625 -0.9252  0.6475
   25SAPC   C38 3355   3.251   0.402   7.248  0.2557  0.2229  0.0767
   25SAPC   H8X 3356   3.142   0.393   7.266 -0.0849 -0.0604 -2.0510
   25SAPC   H8Y 3357   3.293   0.482   7.313  0.3309  0.3617 -0.1432
   25SAPC   C39 3358   3.315   0.269   7.295  0.1860 -0.1563 -0.0114
   25SAPC   H9X 3359   3.424   0.285   7.289  0.4218 -0.6924  2.2698
   25SAPC   H9Y 3360   3.294   0.180   7.232 -0.8698  0.6611 -0.8191
   25SAPC  C310 3361   3.272   0.230   7.439 -0.5199 -0.5464  0.1072
   25SAPC  H10X 3362   3.163   0.206   7.445  0.3579 -4.2430  3.6739
   25SAPC  H10Y 3363   3.280   0.319   7.505 -2.0621 -0.8206  0.7040
   25SAPC  C311 3364   3.350   0.110   7.497  0.0361 -0.0682 -0.2021
   25SAPC  H11X 3365   3.458   0.126   7.516  0.8889 -0.8783 -3.9088
   25SAPC  H11Y 3366   3.348   0.027   7.422 -1.4044 -0.7665  0.5736
   25SAPC  C312 3367   3.283   0.060   7.631  0.6927 -0.1131 -0.1681
   25SAPC  H12X 3368   3.185   0.025   7.592  0.5761  2.3348 -2.1343
   25SAPC  H12Y 3369   3.271   0.148   7.697  2.9890 -0.8641  1.3374
   25SAPC  C313 3370   3.363  -0.055   7.693  0.7673 -0.3828  0.1270
   25SAPC  H13X 3371   3.390  -0.125   7.611 -1.5960 -0.0064 -1.0060
   25SAPC  H13Y 3372   3.293  -0.096   7.769  0.6657 -0.3786  0.0352
   25SAPC  C314 3373   3.482  -0.006   7.768  0.0756  0.5251 -0.5727
   25SAPC  H14X 3374   3.525   0.077   7.709  0.1234 -0.5005 -2.0225
   25SAPC  H14Y 3375   3.561  -0.084   7.777  0.0760  0.5905 -0.0120
   25SAPC  C315 3376   3.454   0.032   7.915 -0.2932 -0.3987 -0.0430
   25SAPC  H15X 3377   3.363   0.096   7.920 -0.3479 -0.5749  1.3952
   25SAPC  H15Y 3378   3.537   0.094   7.953 -0.5964  0.0835 -0.1629
   25SAPC  C316 3379   3.441  -0.088   8.007 -0.1560 -0.1776 -0.4025
   25SAPC  H16X 3380   3.538  -0.142   8.020 -0.2877 -0.5411 -0.8914
   25SAPC  H16Y 3381   3.361  -0.146   7.956 -2.1371  2.4900 -0.4087
   25SAPC  C317 3382   3.385  -0.036   8.139 -0.4355  0.1022  0.8181
   25SAPC  H17X 3383   3.284   0.003   8.114 -0.7970 -0.3602  1.5531
   25SAPC  H17Y 3384   3.458   0.041   8.171 -0.4959  0.6398 -0.3111
   25SAPC  C318 3385   3.369  -0.145   8.241 -0.0859  0.1153 -0.5374
   25SAPC  H18X 3386   3.322  -0.108   8.335 -1.6079 -1.5621 -0.6123
   25SAPC  H18Y 3387   3.465  -0.192   8.270 -0.2835  0.8853  1.4590
   25SAPC  H18Z 3388   3.294  -0.217   8.200  1.0120 -0.4480 -1.5641
   26SAPC     N 3389   3.105   2.421   5.974  0.4280 -0.2343 -0.3219
   26SAPC   C12 3390   3.081   2.427   6.120  0.7508 -0.0547  0.2233
   26SAPC  H12A 3391   2.977   2.455   6.130  0.7973 -0.0193  0.6223
   26SAPC  H12B 3392   3.144   2.505   6.160  1.0807 -0.1908 -0.0381
   26SAPC   C13 3393   3.241   2.376   5.929  0.5266 -1.0868 -0.1448
   26SAPC  H13A 3394   3.309   2.444   5.979 -0.3432  0.3089 -0.8452
   26SAPC  H13B 3395   3.262   2.272   5.951 -0.3385 -1.6031 -1.7392
   26SAPC  H13C 3396   3.257   2.397   5.825  0.8241  1.4765  0.3758
   26SAPC   C14 3397   3.002   2.327   5.912  0.0981  0.3559  0.6022
   26SAPC  H14A 3398   2.990   2.232   5.964 -2.4745  0.1389 -0.3694
   26SAPC  H14B 3399   2.904   2.367   5.928 -0.3671 -1.4828  2.7571
   26SAPC  H14C 3400   3.008   2.312   5.806  0.7344 -0.4546  0.7404
   26SAPC   C15 3401   3.078   2.557   5.927  0.1378 -0.7184  0.2917
   26SAPC  H15A 3402   3.150   2.623   5.974  0.6357 -1.8612  1.1687
   26SAPC  H15B 3403   3.083   2.560   5.820  1.4026  1.4611  0.3762
   26SAPC  H15C 3404   2.980   2.594   5.954  0.1187 -0.9242  0.5095
   26SAPC   C11 3405   3.097   2.296   6.200  1.0206 -0.0647 -0.6622
   26SAPC  H11A 3406   3.067   2.325   6.303 -0.0419  1.1215 -1.2956
   26SAPC  H11B 3407   3.201   2.257   6.191  0.7165 -0.9702 -0.3411
   26SAPC     P 3408   2.972   2.077   6.251  0.0630 -0.0630  0.1340
   26SAPC   O13 3409   2.845   2.111   6.323 -0.2455 -0.2576  0.3822
   26SAPC   O14 3410   2.982   1.945   6.183  0.2396  0.2868 -0.2752
   26SAPC   O12 3411   3.018   2.183   6.158  0.4968  0.1869 -0.1544
   26SAPC   O11 3412   3.086   2.066   6.356 -0.4166 -0.3051 -0.1772
   26SAPC    C1 3413   3.197   1.970   6.338  0.5923 -0.3223  0.3967
   26SAPC    HA 3414   3.228   1.962   6.232  1.1728 -0.3075  0.5650
   26SAPC    HB 3415   3.286   2.020   6.382  1.5079  0.1964 -1.9912
   26SAPC    C2 3416   3.166   1.828   6.400 -0.0718  1.8063 -0.1001
   26SAPC    HS 3417   3.070   1.810   6.346 -0.4243  1.0673  0.7689
   26SAPC   O21 3418   3.148   1.848   6.538 -0.5254 -0.0263  0.1851
   26SAPC   C21 3419   3.075   1.750   6.586 -0.1693  0.1429  0.0196
   26SAPC   O22 3420   3.019   1.666   6.518 -0.2119  0.5996  0.8759
   26SAPC   C22 3421   3.075   1.751   6.742  0.6979 -0.6589 -0.5453
   26SAPC   H2R 3422   3.171   1.697   6.757  0.2901 -0.5696  2.6178
   26SAPC   H2S 3423   3.077   1.859   6.770 -0.0148  0.0669 -3.1415
   26SAPC    C3 3424   3.268   1.711   6.363 -0.3092  0.2742 -0.9438
   26SAPC    HX 3425   3.273   1.704   6.252  1.4177 -0.6276 -0.8380
   26SAPC    HY 3426   3.219   1.615   6.390 -1.1045  1.1292  0.7491
   26SAPC   O31 3427   3.397   1.741   6.433 -0.7849  0.2534 -0.2515
   26SAPC   C31 3428   3.430   1.654   6.534 -0.2925 -0.2077  0.7996
   26SAPC   O32 3429   3.354   1.569   6.577  0.0051  0.0306 -0.1644
   26SAPC   C32 3430   3.559   1.692   6.596 -0.1394 -0.1488  0.9454
   26SAPC   H2X 3431   3.552   1.802   6.610 -3.1842 -0.2368  0.3554
   26SAPC   H2Y 3432   3.638   1.676   6.518  0.3083  0.8915  1.1789
   26SAPC   C23 3433   2.953   1.681   6.809  0.0022 -0.4171 -0.2954
   26SAPC   H3R 3434   2.922   1.596   6.745 -1.1767 -0.1530 -0.0846
   26SAPC   H3S 3435   2.871   1.755   6.795  1.7969  1.9888  1.3758
   26SAPC   C24 3436   2.970   1.627   6.951 -0.4826  0.0511  0.3927
   26SAPC   H4R 3437   2.989   1.725   6.998  0.4871  0.2780 -0.4623
   26SAPC   H4S 3438   3.053   1.552   6.951 -1.1326 -0.6991 -1.2772
   26SAPC   C25 3439   2.847   1.570   7.008  0.1376  0.3718  0.4275
   26SAPC   H5R 3440   2.778   1.542   6.926  1.0273  2.2230 -0.9914
   26SAPC   C26 3441   2.811   1.550   7.134  0.1097  0.3046 -0.7120
   26SAPC   H6R 3442   2.708   1.520   7.154  0.7555 -1.1744  0.4843
   26SAPC   C27 3443   2.893   1.588   7.253  0.6816  0.0367  0.5112
   26SAPC   H7R 3444   2.831   1.656   7.315 -2.3499 -0.4260 -1.9108
   26SAPC   H7S 3445   2.984   1.640   7.216 -0.7456  1.5442 -0.9408
   26SAPC   C28 3446   2.939   1.466   7.326  0.8357  0.2101  0.4870
   26SAPC   H8R 3447   2.986   1.389   7.263  2.3889 -0.0450  1.9245
   26SAPC   C29 3448   2.910   1.430   7.454  0.4920  0.6701 -0.4512
   26SAPC   H9R 3449   2.955   1.334   7.480  0.1919  0.7591  0.3952
   26SAPC  C210 3450   2.828   1.498   7.557  0.0131 -0.1294 -0.5548
   26SAPC  H10R 3451   2.727   1.453   7.541  0.9018 -2.4463  0.0623
   26SAPC  H10S 3452   2.826   1.603   7.521 -1.3119 -0.3974 -1.2729
   26SAPC  C211 3453   2.896   1.482   7.690 -0.3907  0.2330 -0.2568
   26SAPC  H11R 3454   2.989   1.539   7.704 -1.6406  2.1895  0.2503
   26SAPC  C212 3455   2.861   1.417   7.800 -0.1130 -0.1447  0.5695
   26SAPC  H12R 3456   2.933   1.428   7.883  0.6652 -0.8621 -0.0155
   26SAPC  C213 3457   2.734   1.338   7.816 -0.0095 -0.3958  0.2139
   26SAPC  H13R 3458   2.757   1.241   7.867 -1.1607 -0.9022 -0.2257
   26SAPC  H13S 3459   2.690   1.317   7.717 -2.9508  2.4654  0.8510
   26SAPC  C214 3460   2.614   1.406   7.876 -0.6113  0.7328  0.2510
   26SAPC  H14R 3461   2.624   1.515   7.870 -0.1757  0.7602  1.3234
   26SAPC  C215 3462   2.506   1.351   7.940  0.0664  0.4272  0.8930
   26SAPC  H15R 3463   2.437   1.418   7.992 -1.7245 -0.4582 -0.3074
   26SAPC  C216 3464   2.491   1.196   7.955  0.7017 -0.2119 -0.3045
   26SAPC  H16R 3465   2.573   1.132   7.918 -0.6295 -1.7796 -0.5990
   26SAPC  H16S 3466   2.404   1.167   7.892  0.3778 -1.9036  0.9078
   26SAPC  C217 3467   2.445   1.156   8.100  0.6579  0.5985 -0.1175
   26SAPC  H17R 3468   2.357   1.210   8.141  1.0394  0.2769  1.1337
   26SAPC  H17S 3469   2.535   1.163   8.164  0.6153 -0.6859  0.0899
   26SAPC  C218 3470   2.416   1.008   8.108 -0.2152 -0.0562 -0.3091
   26SAPC  H18R 3471   2.516   0.969   8.080 -0.1836  0.4755 -0.9535
   26SAPC  H18S 3472   2.343   0.981   8.029  1.6924  0.9127 -2.4464
   26SAPC  C219 3473   2.355   0.955   8.237 -0.5536  0.4480  0.5233
   26SAPC  H19R 3474   2.294   0.866   8.211 -1.9630  1.4114  0.4809
   26SAPC  H19S 3475   2.277   1.025   8.276  0.0848  0.5649  1.6205
   26SAPC  C220 3476   2.462   0.949   8.348 -0.4473  0.8712  0.0914
   26SAPC  H20R 3477   2.563   0.920   8.313 -0.4142 -2.0265  2.3539
   26SAPC  H20S 3478   2.432   0.875   8.426 -0.6694  1.0965  0.2191
   26SAPC  H20T 3479   2.481   1.052   8.383 -2.3588  1.7847 -1.4378
   26SAPC   C33 3480   3.579   1.618   6.733  0.1671 -0.1608  0.4930
   26SAPC   H3X 3481   3.685   1.626   6.768  0.2022 -0.9285  0.5735
   26SAPC   H3Y 3482   3.575   1.510   6.710 -0.0287 -0.1314  0.3927
   26SAPC   C34 3483   3.494   1.666   6.836  0.7003 -0.1073  1.3066
   26SAPC   H4X 3484   3.385   1.652   6.819  1.0848  0.1457 -1.4782
   26SAPC   H4Y 3485   3.518   1.773   6.853 -0.2657  0.3310 -0.0288
   26SAPC   C35 3486   3.515   1.596   6.972 -0.4882  0.2677  0.4158
   26SAPC   H5X 3487   3.622   1.605   7.000 -0.4141  1.7289 -0.3029
   26SAPC   H5Y 3488   3.490   1.488   6.968 -0.3748  0.2951 -1.7413
   26SAPC   C36 3489   3.427   1.648   7.078 -0.0439 -0.3772 -0.2981
   26SAPC   H6X 3490   3.322   1.633   7.047 -0.0950 -1.7318  0.5028
   26SAPC   H6Y 3491   3.437   1.755   7.109 -2.4399 -0.8820  2.4103
   26SAPC   C37 3492   3.444   1.566   7.205  0.0839  0.4500  0.5162
   26SAPC   H7X 3493   3.547   1.557   7.247 -0.9146 -3.5675  2.3711
   26SAPC   H7Y 3494   3.406   1.463   7.188  2.1681 -0.0900 -1.0282
   26SAPC   C38 3495   3.354   1.620   7.313 -0.3194 -0.1617  0.6033
   26SAPC   H8X 3496   3.251   1.629   7.271  0.0956  2.7034  0.1357
   26SAPC   H8Y 3497   3.388   1.723   7.334  0.4349  0.1945 -2.1178
   26SAPC   C39 3498   3.362   1.527   7.435 -0.2693 -0.2425  0.3399
   26SAPC   H9X 3499   3.468   1.512   7.463  0.5142  0.9020 -1.9177
   26SAPC   H9Y 3500   3.322   1.427   7.404  1.8887 -1.0567  0.1417
   26SAPC  C310 3501   3.286   1.592   7.555  0.0623 -0.6240  0.2946
   26SAPC  H10X 3502   3.176   1.582   7.549  0.0158 -1.0476  1.6473
   26SAPC  H10Y 3503   3.305   1.701   7.548  1.6731 -0.8558  0.8246
   26SAPC  C311 3504   3.336   1.537   7.688 -0.1263  0.2557  0.1283
   26SAPC  H11X 3505   3.446   1.557   7.691 -0.0589  0.2996 -1.9532
   26SAPC  H11Y 3506   3.310   1.430   7.681  0.7098  0.2100 -2.6853
   26SAPC  C312 3507   3.291   1.617   7.801 -0.0180  0.7481  0.0782
   26SAPC  H12X 3508   3.182   1.607   7.820 -0.3695 -0.6712 -2.3762
   26SAPC  H12Y 3509   3.324   1.722   7.794  0.7248  0.4913 -0.4024
   26SAPC  C313 3510   3.348   1.572   7.935  0.1168 -0.1050  0.3784
   26SAPC  H13X 3511   3.451   1.611   7.924 -0.3777  1.6654  1.7589
   26SAPC  H13Y 3512   3.353   1.461   7.932 -0.8139 -0.1247 -1.0287
   26SAPC  C314 3513   3.273   1.605   8.059 -0.4523 -0.0977 -0.1097
   26SAPC  H14X 3514   3.296   1.530   8.138 -2.7008 -0.3384  0.3411
   26SAPC  H14Y 3515   3.166   1.602   8.030 -0.0194 -1.5443 -1.6065
   26SAPC  C315 3516   3.298   1.751   8.099 -0.0044 -0.4136 -0.2068
   26SAPC  H15X 3517   3.294   1.821   8.013  1.5905 -0.0150  0.0198
   26SAPC  H15Y 3518   3.403   1.756   8.136 -0.4837  2.1191  0.9422
   26SAPC  C316 3519   3.212   1.811   8.208 -0.0021 -0.5395 -0.1688
   26SAPC  H16X 3520   3.207   1.740   8.293 -0.2554  0.7046  0.8707
   26SAPC  H16Y 3521   3.112   1.804   8.159  0.2644  0.1800 -0.8257
   26SAPC  C317 3522   3.240   1.959   8.247 -0.8035  0.4083  0.2551
   26SAPC  H17X 3523   3.259   2.011   8.150 -4.2725  1.2404 -0.0259
   26SAPC  H17Y 3524   3.338   1.975   8.298 -1.2454 -0.5902  1.4279
   26SAPC  C318 3525   3.131   2.031   8.323 -0.9209 -0.0057 -0.3253
   26SAPC  H18X 3526   3.045   2.025   8.253 -1.9221 -1.5087  1.0304
   26SAPC  H18Y 3527   3.153   2.140   8.332  0.0864 -0.1251 -1.2102
   26SAPC  H18Z 3528   3.102   1.977   8.415  1.4564 -1.5451 -0.4495
   27SAPC     N 3529   1.771   3.224   6.431  0.0088 -0.6129 -0.5651
   27SAPC   C12 3530   1.827   3.092   6.483  0.2691  0.0034  0.1317
   27SAPC  H12A 3531   1.934   3.088   6.463 -0.0093  0.7192 -1.5762
   27SAPC  H12B 3532   1.782   3.010   6.428  1.2618  0.7999 -1.9254
   27SAPC   C13 3533   1.846   3.338   6.491  0.4659 -0.6055 -0.1403
   27SAPC  H13A 3534   1.951   3.318   6.474  0.4465 -1.9853  1.2884
   27SAPC  H13B 3535   1.811   3.435   6.457  0.8532 -0.4413 -0.0763
   27SAPC  H13C 3536   1.812   3.337   6.593 -0.0565  1.6304 -0.2595
   27SAPC   C14 3537   1.778   3.236   6.276 -0.0623  0.4392 -0.2119
   27SAPC  H14A 3538   1.719   3.158   6.230  0.3597 -0.5346  0.8614
   27SAPC  H14B 3539   1.737   3.330   6.243 -0.3057  0.5193  0.3016
   27SAPC  H14C 3540   1.879   3.229   6.240  1.1298  1.6054  2.7212
   27SAPC   C15 3541   1.631   3.246   6.477  0.2257 -0.1624 -0.0415
   27SAPC  H15A 3542   1.617   3.243   6.584 -0.6743  0.7906 -0.1208
   27SAPC  H15B 3543   1.591   3.339   6.437 -0.2683 -0.7288 -0.8807
   27SAPC  H15C 3544   1.571   3.161   6.449 -2.3760  2.3004 -2.3260
   27SAPC   C11 3545   1.807   3.062   6.634 -0.3839  0.2259 -0.1202
   27SAPC  H11A 3546   1.848   3.149   6.690  4.8006 -0.7527 -2.1463
   27SAPC  H11B 3547   1.875   2.976   6.647 -0.9357  0.0345  1.5626
   27SAPC     P 3548   1.606   2.890   6.650  0.4301  0.0953  0.2027
   27SAPC   O13 3549   1.485   2.881   6.732  0.2443  0.4278 -0.4750
   27SAPC   O14 3550   1.596   2.832   6.512  0.3845  0.1923 -0.7388
   27SAPC   O12 3551   1.665   3.035   6.647 -0.4146 -0.0364  0.1556
   27SAPC   O11 3552   1.724   2.812   6.728  0.5962  0.2860 -0.2324
   27SAPC    C1 3553   1.735   2.672   6.736  0.3695  0.2271 -0.2918
   27SAPC    HA 3554   1.743   2.624   6.637 -0.0923 -1.5797  0.5328
   27SAPC    HB 3555   1.830   2.649   6.788  0.8567  2.6186 -0.0488
   27SAPC    C2 3556   1.608   2.609   6.802 -0.4353 -0.5959  0.1014
   27SAPC    HS 3557   1.522   2.630   6.736  0.0718  1.3228  0.0267
   27SAPC   O21 3558   1.589   2.660   6.935 -0.2743  0.0197  0.6451
   27SAPC   C21 3559   1.474   2.689   6.977  0.7617  0.5213 -0.2775
   27SAPC   O22 3560   1.378   2.693   6.903  0.1605 -1.1642  0.5310
   27SAPC   C22 3561   1.479   2.706   7.129 -0.6364  0.0879  0.5798
   27SAPC   H2R 3562   1.541   2.622   7.169 -1.1523  0.2046  1.6311
   27SAPC   H2S 3563   1.536   2.796   7.159  0.2464 -0.8156  1.6986
   27SAPC    C3 3564   1.634   2.454   6.808  0.2314 -0.2480  0.3561
   27SAPC    HX 3565   1.729   2.442   6.863  0.2126 -2.1440  0.0258
   27SAPC    HY 3566   1.649   2.408   6.707 -2.8505  1.5884 -1.0321
   27SAPC   O31 3567   1.531   2.393   6.883 -0.1600  1.0606  0.3762
   27SAPC   C31 3568   1.414   2.352   6.821 -0.0859  0.2139 -0.0866
   27SAPC   O32 3569   1.408   2.336   6.700  0.1393 -0.2509 -0.4312
   27SAPC   C32 3570   1.309   2.297   6.916 -1.1675  0.3731 -0.5750
   27SAPC   H2X 3571   1.219   2.268   6.858 -2.8986 -1.5168  2.9240
   27SAPC   H2Y 3572   1.283   2.382   6.983 -0.9218 -0.7341  0.9441
   27SAPC   C23 3573   1.344   2.715   7.202 -0.1252 -0.2617 -0.3139
   27SAPC   H3R 3574   1.286   2.783   7.135 -1.8897  0.2881  1.7073
   27SAPC   H3S 3575   1.353   2.768   7.299  1.0052  0.2592 -0.6956
   27SAPC   C24 3576   1.269   2.578   7.208  0.1540  0.6786 -0.8512
   27SAPC   H4R 3577   1.341   2.508   7.255 -0.6852  1.4739  1.7107
   27SAPC   H4S 3578   1.238   2.542   7.108 -0.4698 -1.1938 -0.0100
   27SAPC   C25 3579   1.143   2.585   7.285  0.1499 -1.1316  0.5890
   27SAPC   H5R 3580   1.055   2.584   7.220 -0.1546 -0.4437  0.9866
   27SAPC   C26 3581   1.122   2.592   7.417  0.5931  0.4907 -0.6040
   27SAPC   H6R 3582   1.016   2.599   7.445  0.6674  0.3428 -0.2936
   27SAPC   C27 3583   1.219   2.586   7.530  0.1157  0.2279 -0.1334
   27SAPC   H7R 3584   1.215   2.681   7.588 -2.8847  2.5936 -4.0074
   27SAPC   H7S 3585   1.321   2.589   7.486  0.3767  2.2438  0.5413
   27SAPC   C28 3586   1.193   2.464   7.623 -0.3427  0.1413  0.3587
   27SAPC   H8R 3587   1.242   2.373   7.586 -1.1275 -0.2386  0.2490
   27SAPC   C29 3588   1.101   2.448   7.724 -0.1388 -0.2417  0.1876
   27SAPC   H9R 3589   1.095   2.353   7.779 -1.6524  0.0547  0.5566
   27SAPC  C210 3590   1.020   2.552   7.790  0.1851  0.1062  0.2592
   27SAPC  H10R 3591   0.915   2.521   7.810 -0.4415  1.9892 -0.0362
   27SAPC  H10S 3592   1.015   2.638   7.720 -1.4509  0.6488  1.0275
   27SAPC  C211 3593   1.082   2.580   7.923 -0.0773  0.0539  0.1281
   27SAPC  H11R 3594   1.151   2.665   7.936 -0.4179  0.4071 -0.3400
   27SAPC  C212 3595   1.050   2.521   8.040 -0.0556  0.2867  0.1029
   27SAPC  H12R 3596   1.101   2.557   8.131 -2.8410  0.2623  1.7564
   27SAPC  C213 3597   0.959   2.402   8.064  0.4177 -0.0164  0.6580
   27SAPC  H13R 3598   0.891   2.381   7.978  1.5540  0.9536 -0.5036
   27SAPC  H13S 3599   0.900   2.429   8.154 -1.6230 -1.9629 -0.0239
   27SAPC  C214 3600   1.042   2.271   8.078  0.5317  0.3352  0.0810
   27SAPC  H14R 3601   1.106   2.247   7.991  0.1960 -0.2022 -0.0167
   27SAPC  C215 3602   1.054   2.189   8.183 -0.3292  0.2366  0.4449
   27SAPC  H15R 3603   1.126   2.106   8.179 -1.3793 -0.6594 -0.3497
   27SAPC  C216 3604   1.001   2.214   8.319 -0.1366  0.2339 -0.1006
   27SAPC  H16R 3605   0.919   2.289   8.324 -1.8819 -1.5694 -0.9092
   27SAPC  H16S 3606   1.085   2.263   8.373 -0.0932 -0.5927  0.5869
   27SAPC  C217 3607   0.944   2.089   8.395 -0.8423  0.2463  0.3402
   27SAPC  H17R 3608   1.027   2.015   8.394  1.9197  3.1802  1.1906
   27SAPC  H17S 3609   0.848   2.047   8.359 -1.4400  0.9903  1.0546
   27SAPC  C218 3610   0.940   2.100   8.548 -0.2694 -0.2175 -0.3861
   27SAPC  H18R 3611   0.848   2.150   8.585  0.0129  1.8088 -2.3084
   27SAPC  H18S 3612   1.028   2.153   8.590 -0.7466 -0.0880  0.4666
   27SAPC  C219 3613   0.953   1.966   8.630  0.5960 -0.3933 -0.2786
   27SAPC  H19R 3614   0.941   2.003   8.734 -1.4844 -2.4024  0.2443
   27SAPC  H19S 3615   1.049   1.912   8.613  1.6701  0.5772  2.4283
   27SAPC  C220 3616   0.843   1.860   8.579 -0.2157 -0.3220 -0.2044
   27SAPC  H20R 3617   0.868   1.848   8.472 -1.3008 -1.5593 -0.3285
   27SAPC  H20S 3618   0.739   1.898   8.588  0.6861  2.0330  0.8658
   27SAPC  H20T 3619   0.846   1.763   8.632 -1.7634 -0.4469 -0.3128
   27SAPC   C33 3620   1.362   2.176   7.002  0.0279  0.7881  0.3634
   27SAPC   H3X 3621   1.464   2.202   7.038  0.2165 -0.3665  0.6769
   27SAPC   H3Y 3622   1.356   2.086   6.938 -0.1010 -0.1508  1.6642
   27SAPC   C34 3623   1.282   2.152   7.130  0.7208 -1.0261  0.1032
   27SAPC   H4X 3624   1.176   2.126   7.106 -0.4141  1.1975  2.5534
   27SAPC   H4Y 3625   1.280   2.252   7.178 -0.0576  1.1602 -4.1924
   27SAPC   C35 3626   1.335   2.054   7.237  0.1638  0.0191  0.6104
   27SAPC   H5X 3627   1.432   2.086   7.282  0.1390 -0.9880  1.4091
   27SAPC   H5Y 3628   1.354   1.954   7.193  1.8772  0.1999  0.9124
   27SAPC   C36 3629   1.238   2.049   7.358 -0.2680  0.3332  0.3781
   27SAPC   H6X 3630   1.139   2.011   7.325 -0.2367  1.8468 -1.5258
   27SAPC   H6Y 3631   1.216   2.152   7.393 -1.5283 -0.4271  1.8650
   27SAPC   C37 3632   1.291   1.955   7.475  0.0670 -0.3662  1.0850
   27SAPC   H7X 3633   1.397   1.984   7.494  0.4138 -0.3933 -0.7475
   27SAPC   H7Y 3634   1.286   1.847   7.452  0.1026 -0.0732 -0.3381
   27SAPC   C38 3635   1.212   1.982   7.604 -0.0799 -0.0460  0.2696
   27SAPC   H8X 3636   1.107   1.964   7.574  0.0737 -0.6355  0.0699
   27SAPC   H8Y 3637   1.219   2.090   7.626 -1.1236  0.3444 -1.2659
   27SAPC   C39 3638   1.268   1.903   7.723 -0.3471 -0.0751  0.8223
   27SAPC   H9X 3639   1.363   1.947   7.760  0.2020  1.1377 -1.8530
   27SAPC   H9Y 3640   1.289   1.800   7.689  0.7273  0.8269 -1.3512
   27SAPC  C310 3641   1.177   1.913   7.843  0.9000  0.5409  0.0087
   27SAPC  H10X 3642   1.083   1.855   7.833 -1.0260  3.3904  0.8757
   27SAPC  H10Y 3643   1.144   2.017   7.865  0.9537  0.4946  0.3078
   27SAPC  C311 3644   1.232   1.867   7.976 -0.2977 -0.3525 -0.0444
   27SAPC  H11X 3645   1.292   1.947   8.026  0.3936  0.5794 -2.3002
   27SAPC  H11Y 3646   1.310   1.795   7.941 -1.8284 -1.9643 -0.1793
   27SAPC  C312 3647   1.138   1.802   8.086 -0.0068  0.1717 -0.0402
   27SAPC  H12X 3648   1.078   1.729   8.028  1.4141 -0.6192 -0.5545
   27SAPC  H12Y 3649   1.069   1.882   8.121 -2.1150 -1.6483  0.0758
   27SAPC  C313 3650   1.211   1.731   8.202 -0.2613 -0.1307  0.1298
   27SAPC  H13X 3651   1.288   1.800   8.244 -2.1836  3.0639 -1.4051
   27SAPC  H13Y 3652   1.277   1.654   8.157 -0.8763 -0.4247 -0.2708
   27SAPC  C314 3653   1.114   1.684   8.305  0.2993  0.1160 -0.0386
   27SAPC  H14X 3654   1.048   1.600   8.275 -0.2439 -0.5731  2.8917
   27SAPC  H14Y 3655   1.056   1.773   8.335 -0.1497 -0.6545  1.4397
   27SAPC  C315 3656   1.194   1.619   8.417  0.3691 -0.0871  0.5498
   27SAPC  H15X 3657   1.297   1.661   8.425  0.8459 -1.2155  0.2943
   27SAPC  H15Y 3658   1.209   1.516   8.379 -0.4874 -0.4334  1.1328
   27SAPC  C316 3659   1.121   1.615   8.551 -0.2287  0.4848  0.2869
   27SAPC  H16X 3660   1.087   1.719   8.569 -0.6590  0.6156 -1.2331
   27SAPC  H16Y 3661   1.183   1.594   8.641 -0.9634  1.5348  1.0493
   27SAPC  C317 3662   1.008   1.511   8.564  0.0807  0.1522 -0.2307
   27SAPC  H17X 3663   1.041   1.414   8.521 -0.5765  1.2974 -3.4903
   27SAPC  H17Y 3664   0.929   1.543   8.491 -0.5955 -1.2693 -0.1285
   27SAPC  C318 3665   0.953   1.480   8.703  0.4735 -0.8056  0.1389
   27SAPC  H18X 3666   0.969   1.556   8.782 -0.0328 -0.4797 -0.0691
   27SAPC  H18Y 3667   1.006   1.388   8.736  1.2076 -0.2072  0.6441
   27SAPC  H18Z 3668   0.844   1.456   8.704  0.4401 -0.6397  0.4284
   28SAPC     N 3669   0.343   5.906   6.385  0.6852  0.4939 -0.0041
   28SAPC   C12 3670   0.301   5.788   6.477 -0.1310 -0.1714  0.1757
   28SAPC  H12A 3671   0.197   5.771   6.456 -0.0791  0.5869 -0.7140
   28SAPC  H12B 3672   0.306   5.814   6.582 -1.1666  1.2041 -0.1081
   28SAPC   C13 3673   0.253   6.022   6.410  0.3181  0.0471  0.2577
   28SAPC  H13A 3674   0.262   6.042   6.516  2.6602 -0.2241  0.1468
   28SAPC  H13B 3675   0.298   6.109   6.363 -0.6957  0.4940  0.0968
   28SAPC  H13C 3676   0.151   5.995   6.389 -0.1284  1.2563  0.8308
   28SAPC   C14 3677   0.480   5.953   6.407  0.7533  0.0129 -0.3562
   28SAPC  H14A 3678   0.507   6.045   6.358 -1.3287 -0.1702 -1.9362
   28SAPC  H14B 3679   0.497   5.979   6.510 -0.7246  0.6438 -0.2632
   28SAPC  H14C 3680   0.554   5.876   6.389  0.4115 -0.6296  0.9146
   28SAPC   C15 3681   0.345   5.864   6.246 -0.4165  0.1443 -0.3143
   28SAPC  H15A 3682   0.263   5.800   6.215 -1.1047  0.6319  0.4796
   28SAPC  H15B 3683   0.336   5.947   6.178 -0.2466  2.4228  2.3666
   28SAPC  H15C 3684   0.430   5.802   6.221  1.6078  2.3424  1.0232
   28SAPC   C11 3685   0.378   5.656   6.460  0.2509 -0.4325  0.6712
   28SAPC  H11A 3686   0.346   5.591   6.544 -1.0624 -2.1084 -1.0954
   28SAPC  H11B 3687   0.485   5.682   6.479  0.6681 -1.0864 -0.6760
   28SAPC     P 3688   0.228   5.534   6.291  0.0732  0.3216  0.2064
   28SAPC   O13 3689   0.118   5.630   6.320  0.4230 -0.0304 -0.2182
   28SAPC   O14 3690   0.253   5.493   6.149  0.0795  0.1283 -0.4562
   28SAPC   O12 3691   0.368   5.593   6.334 -0.0719  0.3528 -0.1804
   28SAPC   O11 3692   0.198   5.397   6.364 -0.1176  0.5026  0.2469
   28SAPC    C1 3693   0.300   5.328   6.447 -0.0731 -0.0254  0.0779
   28SAPC    HA 3694   0.350   5.246   6.390 -0.0411  0.7229 -0.9879
   28SAPC    HB 3695   0.377   5.401   6.478 -1.0995  0.5322  1.3507
   28SAPC    C2 3696   0.232   5.274   6.581  0.7385 -1.0585  0.5501
   28SAPC    HS 3697   0.162   5.194   6.549 -2.1055  0.1654  3.3580
   28SAPC   O21 3698   0.164   5.381   6.655  0.2084 -0.4229  0.5974
   28SAPC   C21 3699   0.041   5.396   6.604 -0.3020 -0.8506 -0.1122
   28SAPC   O22 3700  -0.017   5.333   6.518 -0.0299  0.2779  0.7208
   28SAPC   C22 3701  -0.010   5.519   6.681  0.5990 -0.2559  0.5875
   28SAPC   H2R 3702  -0.007   5.496   6.789  1.8497  0.9385  0.8193
   28SAPC   H2S 3703   0.062   5.600   6.656 -0.7612  0.1994 -2.0688
   28SAPC    C3 3704   0.336   5.218   6.677 -0.2117 -0.4990 -0.2657
   28SAPC    HX 3705   0.409   5.298   6.702 -0.6267 -0.1469 -0.1780
   28SAPC    HY 3706   0.393   5.134   6.632  1.2891  0.3474  0.0284
   28SAPC   O31 3707   0.289   5.176   6.802 -0.0551  0.1288  0.7359
   28SAPC   C31 3708   0.219   5.063   6.813  0.3278 -0.3761 -0.3534
   28SAPC   O32 3709   0.170   4.989   6.729  0.1145  0.0437 -0.7261
   28SAPC   C32 3710   0.185   5.044   6.966  0.2425 -0.3451 -0.1479
   28SAPC   H2X 3711   0.250   4.964   7.008 -0.0665 -1.1411 -1.1811
   28SAPC   H2Y 3712   0.088   4.992   6.956  2.2396 -4.0820 -1.1945
   28SAPC   C23 3713  -0.155   5.570   6.632 -1.6444  0.5277 -0.5450
   28SAPC   H3R 3714  -0.230   5.495   6.665 -1.0122  0.1758  0.1017
   28SAPC   H3S 3715  -0.160   5.571   6.521 -1.8205 -0.6744 -0.5563
   28SAPC   C24 3716  -0.177   5.716   6.674  0.6647 -0.0696  0.0843
   28SAPC   H4R 3717  -0.114   5.732   6.764  0.2066  1.5624  0.1305
   28SAPC   H4S 3718  -0.141   5.797   6.607  1.6176 -1.8585 -1.5982
   28SAPC   C25 3719  -0.317   5.746   6.709 -0.3991 -0.0014 -0.4747
   28SAPC   H5R 3720  -0.374   5.795   6.628 -1.9301  1.6905  1.5468
   28SAPC   C26 3721  -0.374   5.719   6.828  0.4929  0.2667 -0.4933
   28SAPC   H6R 3722  -0.482   5.738   6.830  0.5172  0.4415 -0.9188
   28SAPC   C27 3723  -0.318   5.653   6.949 -0.6679  0.3595  0.7510
   28SAPC   H7R 3724  -0.219   5.607   6.929 -1.4557 -1.6569  1.3427
   28SAPC   H7S 3725  -0.367   5.556   6.971 -1.6471  0.6295 -0.2055
   28SAPC   C28 3726  -0.294   5.756   7.060  0.1036  0.7640 -0.7422
   28SAPC   H8R 3727  -0.321   5.862   7.048  1.1813  1.2797  1.2249
   28SAPC   C29 3728  -0.263   5.711   7.190 -0.2147  0.5609  0.1002
   28SAPC   H9R 3729  -0.239   5.785   7.267 -0.7561 -0.0595  0.8731
   28SAPC  C210 3730  -0.241   5.568   7.228 -0.9138 -0.5280 -0.5040
   28SAPC  H10R 3731  -0.225   5.493   7.146 -0.6016  0.8304 -1.7054
   28SAPC  H10S 3732  -0.329   5.536   7.288 -1.0195 -2.6579 -1.7158
   28SAPC  C211 3733  -0.126   5.539   7.320  0.1541 -0.0338 -0.2504
   28SAPC  H11R 3734  -0.037   5.554   7.257 -0.4136 -2.4378 -1.6843
   28SAPC  C212 3735  -0.126   5.504   7.454 -0.5180 -0.1772  0.0492
   28SAPC  H12R 3736  -0.031   5.512   7.509 -1.0235  2.1633  0.6626
   28SAPC  C213 3737  -0.242   5.484   7.549 -0.0584  0.2302 -0.0334
   28SAPC  H13R 3738  -0.240   5.384   7.597 -0.9337  1.1852  2.0501
   28SAPC  H13S 3739  -0.338   5.482   7.492 -2.1263 -0.5184  3.3581
   28SAPC  C214 3740  -0.224   5.574   7.660  0.3565 -0.6025  0.0986
   28SAPC  H14R 3741  -0.286   5.664   7.666 -1.2821 -1.7645  1.0150
   28SAPC  C215 3742  -0.140   5.549   7.762  0.1501  0.1571 -0.3994
   28SAPC  H15R 3743  -0.135   5.617   7.848 -0.1972 -0.8012  0.3792
   28SAPC  C216 3744  -0.052   5.432   7.785 -0.1076  0.8942  0.6533
   28SAPC  H16R 3745   0.048   5.465   7.818 -0.1262  2.2566 -0.6048
   28SAPC  H16S 3746  -0.044   5.366   7.696  1.0029  0.7640  0.8460
   28SAPC  C217 3747  -0.107   5.335   7.897 -0.4954 -0.6499 -0.0671
   28SAPC  H17R 3748  -0.208   5.301   7.863 -1.4092  2.4997 -0.7165
   28SAPC  H17S 3749  -0.128   5.383   7.995  2.0615 -0.5377  0.4461
   28SAPC  C218 3750  -0.024   5.212   7.914  0.0609 -1.0155 -0.5258
   28SAPC  H18R 3751   0.081   5.233   7.943 -0.1096 -1.0591  0.1211
   28SAPC  H18S 3752  -0.021   5.173   7.810  0.2643  0.5159 -1.1084
   28SAPC  C219 3753  -0.096   5.107   7.992  0.0581 -0.0520  0.5903
   28SAPC  H19R 3754  -0.035   5.015   7.979 -0.5040 -0.4174  0.4942
   28SAPC  H19S 3755  -0.200   5.099   7.953  0.8049 -0.7753 -1.2828
   28SAPC  C220 3756  -0.105   5.131   8.138  0.3261 -0.8187 -0.1295
   28SAPC  H20R 3757  -0.000   5.152   8.169  0.2888  0.6960 -0.9960
   28SAPC  H20S 3758  -0.155   5.044   8.186 -0.8831 -0.7774 -1.2863
   28SAPC  H20T 3759  -0.162   5.225   8.154  0.2802 -0.6580 -1.2393
   28SAPC   C33 3760   0.168   5.173   7.053 -0.8066 -0.5433 -0.0129
   28SAPC   H3X 3761   0.092   5.244   7.013 -1.3105 -0.2146  1.5065
   28SAPC   H3Y 3762   0.264   5.229   7.062 -1.3791  0.5477 -0.5221
   28SAPC   C34 3763   0.127   5.132   7.199 -0.1259 -0.5297 -0.0676
   28SAPC   H4X 3764   0.194   5.050   7.235  0.4538  0.3696  0.9273
   28SAPC   H4Y 3765   0.024   5.093   7.208 -1.0006  0.9821 -2.9681
   28SAPC   C35 3766   0.150   5.251   7.293  0.0972  0.2600  0.5961
   28SAPC   H5X 3767   0.091   5.341   7.267 -2.2809 -0.9707  1.5362
   28SAPC   H5Y 3768   0.256   5.282   7.286 -0.1890  0.6493 -2.9044
   28SAPC   C36 3769   0.113   5.212   7.436 -0.4810 -0.2769  0.1979
   28SAPC   H6X 3770   0.026   5.143   7.445 -0.1849 -0.6019  0.6200
   28SAPC   H6Y 3771   0.092   5.309   7.485  0.3047  1.2437 -2.3769
   28SAPC   C37 3772   0.231   5.144   7.508 -0.7031  0.1448 -0.2647
   28SAPC   H7X 3773   0.328   5.194   7.484 -1.3598  2.1132  1.0151
   28SAPC   H7Y 3774   0.237   5.047   7.455 -0.1746 -0.5556  1.0771
   28SAPC   C38 3775   0.204   5.119   7.652 -0.0813 -0.5328 -0.1168
   28SAPC   H8X 3776   0.104   5.072   7.647 -1.0549  1.5135 -0.2368
   28SAPC   H8Y 3777   0.205   5.209   7.716 -0.0754  0.3954 -1.3950
   28SAPC   C39 3778   0.300   5.016   7.714 -0.3409 -0.5967  0.7653
   28SAPC   H9X 3779   0.387   5.075   7.748 -0.2948 -0.4175  0.3448
   28SAPC   H9Y 3780   0.341   4.941   7.643  0.4054  0.9225 -0.4536
   28SAPC  C310 3781   0.239   4.943   7.831  0.0342 -0.0496  0.7792
   28SAPC  H10X 3782   0.159   4.878   7.790 -0.3409  1.3473 -0.7149
   28SAPC  H10Y 3783   0.202   5.013   7.909  0.5887  0.1292  0.8860
   28SAPC  C311 3784   0.343   4.855   7.908 -0.6035 -0.7006 -0.0069
   28SAPC  H11X 3785   0.420   4.922   7.953 -0.9874 -0.3857  0.1802
   28SAPC  H11Y 3786   0.405   4.801   7.834  1.8256  1.4849  0.3548
   28SAPC  C312 3787   0.292   4.756   8.013 -0.6596 -0.4729  0.0833
   28SAPC  H12X 3788   0.377   4.706   8.064  1.2602  0.4404 -2.1279
   28SAPC  H12Y 3789   0.225   4.679   7.970 -1.5018  0.5732 -0.5191
   28SAPC  C313 3790   0.221   4.832   8.125 -0.0119  0.1217  0.1963
   28SAPC  H13X 3791   0.138   4.882   8.070  1.9608 -0.0019 -2.9882
   28SAPC  H13Y 3792   0.287   4.912   8.165  1.8454 -1.0254 -0.5618
   28SAPC  C314 3793   0.163   4.751   8.242 -0.7202  0.1547  0.2404
   28SAPC  H14X 3794   0.240   4.676   8.273 -2.1715 -0.3838  2.6265
   28SAPC  H14Y 3795   0.073   4.694   8.209 -1.0749 -0.4945  2.2547
   28SAPC  C315 3796   0.136   4.847   8.348  0.0252 -0.1141 -0.1609
   28SAPC  H15X 3797   0.075   4.933   8.314  0.2921  0.8359  1.6522
   28SAPC  H15Y 3798   0.220   4.910   8.387 -1.4632  1.3314  0.7682
   28SAPC  C316 3799   0.071   4.774   8.467 -0.0661 -0.2118  0.1863
   28SAPC  H16X 3800  -0.018   4.711   8.442 -0.5868 -0.0394  1.5517
   28SAPC  H16Y 3801   0.039   4.846   8.545  0.4676  0.2564 -0.0270
   28SAPC  C317 3802   0.174   4.678   8.538  0.5036 -0.5369 -0.2777
   28SAPC  H17X 3803   0.265   4.732   8.571  0.1793  1.6895 -2.9273
   28SAPC  H17Y 3804   0.199   4.592   8.472  0.2025  0.2976 -1.4858
   28SAPC  C318 3805   0.106   4.596   8.649 -0.1217  0.4238  0.5430
   28SAPC  H18X 3806   0.082   4.660   8.737 -0.5456 -0.5711  1.1673
   28SAPC  H18Y 3807   0.175   4.517   8.687  1.2455  0.3786 -1.9626
   28SAPC  H18Z 3808   0.023   4.534   8.611  1.5181 -1.4645 -0.0456
   29SAPC     N 3809   2.652   2.626   6.695 -0.3037  0.4127 -0.0612
   29SAPC   C12 3810   2.781   2.624   6.785 -0.3220 -0.3736 -0.1373
   29SAPC  H12A 3811   2.814   2.522   6.795 -2.4702 -0.9884  0.8959
   29SAPC  H12B 3812   2.735   2.659   6.876 -0.8106  0.8709 -0.8523
   29SAPC   C13 3813   2.557   2.530   6.760  1.0671 -0.6542 -0.3194
   29SAPC  H13A 3814   2.587   2.429   6.736  0.8126 -0.7900 -0.0705
   29SAPC  H13B 3815   2.551   2.532   6.868  2.8342 -0.2595 -0.2219
   29SAPC  H13C 3816   2.461   2.551   6.714  1.4752 -0.0987 -0.9194
   29SAPC   C14 3817   2.591   2.760   6.679  0.1485  0.3644  0.4243
   29SAPC  H14A 3818   2.555   2.786   6.777 -0.9105  3.6766 -0.8029
   29SAPC  H14B 3819   2.660   2.836   6.645  0.2185 -0.2405 -0.8214
   29SAPC  H14C 3820   2.512   2.742   6.608  0.7844 -1.8256  0.2108
   29SAPC   C15 3821   2.689   2.570   6.561  0.7426  0.5998 -0.1523
   29SAPC  H15A 3822   2.601   2.553   6.501  0.6449 -2.8238  0.8617
   29SAPC  H15B 3823   2.753   2.638   6.507 -0.8103  1.5275 -0.8504
   29SAPC  H15C 3824   2.738   2.473   6.564 -1.2541 -0.3941  0.9837
   29SAPC   C11 3825   2.898   2.716   6.736 -0.5390 -0.3971  0.7179
   29SAPC  H11A 3826   2.969   2.741   6.817  0.7824 -0.3043 -0.4565
   29SAPC  H11B 3827   2.859   2.816   6.708  2.1390  0.3084 -0.6273
   29SAPC     P 3828   3.070   2.558   6.626  0.4503 -0.1412  0.3535
   29SAPC   O13 3829   3.021   2.432   6.565 -0.0373  0.1890  0.2099
   29SAPC   O14 3830   3.193   2.615   6.564  0.3644  0.5439  0.0622
   29SAPC   O12 3831   2.955   2.660   6.622  0.0371  0.2748 -0.3369
   29SAPC   O11 3832   3.081   2.534   6.784  0.0001 -0.1570  0.1619
   29SAPC    C1 3833   3.210   2.551   6.849  0.0430 -0.2436 -0.5878
   29SAPC    HA 3834   3.296   2.523   6.785 -1.6457 -2.4475 -1.9877
   29SAPC    HB 3835   3.228   2.657   6.877  2.5145 -0.0573 -2.7339
   29SAPC    C2 3836   3.201   2.475   6.990 -0.1677  0.6489  0.4601
   29SAPC    HS 3837   3.299   2.498   7.037  0.1051  1.2868 -0.4281
   29SAPC   O21 3838   3.188   2.332   6.962  0.1170 -0.7351  0.5229
   29SAPC   C21 3839   3.302   2.279   6.923 -0.1178  0.1772 -0.0535
   29SAPC   O22 3840   3.413   2.335   6.914  0.4865  0.2343  0.1804
   29SAPC   C22 3841   3.277   2.125   6.896 -0.1543  0.8307 -0.2456
   29SAPC   H2R 3842   3.239   2.120   6.791 -0.9325  2.8857 -0.0989
   29SAPC   H2S 3843   3.380   2.083   6.894 -0.4023  0.0182  2.5591
   29SAPC    C3 3844   3.092   2.532   7.083 -0.4866  0.3192 -0.5467
   29SAPC    HX 3845   2.993   2.532   7.032 -0.3463  1.3736 -0.8114
   29SAPC    HY 3846   3.123   2.638   7.088  1.6533 -0.3756  2.4711
   29SAPC   O31 3847   3.089   2.462   7.209  0.0928 -0.0101 -0.5581
   29SAPC   C31 3848   2.991   2.492   7.287 -0.9728 -0.2518 -0.5400
   29SAPC   O32 3849   2.925   2.600   7.283  0.0655 -0.3790 -0.0519
   29SAPC   C32 3850   2.997   2.395   7.401 -0.9188  0.2614 -0.3773
   29SAPC   H2X 3851   3.102   2.398   7.437 -0.3572  1.3419 -2.0195
   29SAPC   H2Y 3852   2.985   2.288   7.370 -0.4359 -0.1265  0.7426
   29SAPC   C23 3853   3.176   2.062   6.989  0.3996 -0.1773 -0.0915
   29SAPC   H3R 3854   3.171   1.952   6.971  0.1752 -0.0588 -0.7493
   29SAPC   H3S 3855   3.079   2.116   6.980  0.5769  0.4759  1.6578
   29SAPC   C24 3856   3.213   2.081   7.139 -0.6910  0.3342  0.2917
   29SAPC   H4R 3857   3.172   2.180   7.169 -3.3952 -1.0676  1.3463
   29SAPC   H4S 3858   3.321   2.079   7.162 -0.9082 -0.4579  1.2716
   29SAPC   C25 3859   3.150   1.988   7.236  0.6399  0.7263  0.3944
   29SAPC   H5R 3860   3.105   1.894   7.200  1.9807 -0.2242  1.1863
   29SAPC   C26 3861   3.162   2.006   7.370 -0.4167  0.2486  0.6843
   29SAPC   H6R 3862   3.128   1.939   7.451 -2.1367 -0.1458 -0.3218
   29SAPC   C27 3863   3.230   2.117   7.444  0.2695  0.3669 -0.0072
   29SAPC   H7R 3864   3.152   2.159   7.511  0.5723 -1.2988  1.4066
   29SAPC   H7S 3865   3.247   2.192   7.364 -0.3291 -2.0549 -2.4897
   29SAPC   C28 3866   3.357   2.088   7.518 -0.0430  0.3263 -0.4350
   29SAPC   H8R 3867   3.451   2.074   7.462  0.6325  3.7977 -0.3355
   29SAPC   C29 3868   3.374   2.079   7.650 -0.0853 -0.5835 -0.0352
   29SAPC   H9R 3869   3.473   2.071   7.695  1.6158  2.4599 -2.9983
   29SAPC  C210 3870   3.265   2.107   7.753 -0.2460 -0.5542 -0.1532
   29SAPC  H10R 3871   3.258   2.021   7.822 -3.0734  0.6149  1.1267
   29SAPC  H10S 3872   3.163   2.103   7.710  0.2287  1.8067 -1.6233
   29SAPC  C211 3873   3.292   2.236   7.816 -0.8613 -0.1518  0.7419
   29SAPC  H11R 3874   3.253   2.320   7.756 -0.2291 -0.6650 -0.4164
   29SAPC  C212 3875   3.371   2.251   7.920 -0.1202 -0.4125 -0.9769
   29SAPC  H12R 3876   3.379   2.353   7.961  1.7585  0.3179 -3.0726
   29SAPC  C213 3877   3.453   2.154   7.997 -0.1565  0.3881 -0.8313
   29SAPC  H13R 3878   3.416   2.049   7.990  0.7718 -0.0230  0.1871
   29SAPC  H13S 3879   3.441   2.179   8.105  1.2042 -0.2043 -0.5246
   29SAPC  C214 3880   3.596   2.136   7.959 -0.2940  0.9043  0.7750
   29SAPC  H14R 3881   3.619   2.097   7.859  0.8502  1.9093  0.6420
   29SAPC  C215 3882   3.702   2.168   8.038  0.2212 -0.2253 -0.2289
   29SAPC  H15R 3883   3.805   2.156   8.002  1.4203 -0.7950  3.2326
   29SAPC  C216 3884   3.696   2.240   8.168  0.2712 -0.2689 -0.1713
   29SAPC  H16R 3885   3.595   2.271   8.202  0.0322 -2.2268  1.0057
   29SAPC  H16S 3886   3.743   2.339   8.150 -0.3964 -0.4303 -3.0461
   29SAPC  C217 3887   3.770   2.168   8.276  0.1235 -0.5695 -0.1706
   29SAPC  H17R 3888   3.725   2.068   8.290 -0.3542 -0.2614  0.4787
   29SAPC  H17S 3889   3.779   2.224   8.371  1.8148 -3.3595  1.3655
   29SAPC  C218 3890   3.924   2.149   8.249 -0.6806  0.2918  0.7091
   29SAPC  H18R 3891   3.969   2.243   8.210  0.1745 -0.2441  0.4165
   29SAPC  H18S 3892   3.941   2.066   8.178 -0.2225  0.5855  0.4744
   29SAPC  C219 3893   3.998   2.112   8.384  0.0609  0.6075  0.2612
   29SAPC  H19R 3894   4.103   2.088   8.356 -0.4852 -0.0004 -1.3378
   29SAPC  H19S 3895   3.943   2.024   8.422  0.8142 -0.4720 -1.1044
   29SAPC  C220 3896   4.007   2.225   8.491  0.5389 -0.1672  1.1536
   29SAPC  H20R 3897   3.922   2.208   8.560 -0.1715  0.4813  0.4471
   29SAPC  H20S 3898   4.027   2.329   8.458  1.1386 -0.4666  0.5499
   29SAPC  H20T 3899   4.097   2.200   8.551  1.8626  1.5261 -0.0354
   29SAPC   C33 3900   2.902   2.415   7.511 -0.5844 -0.3620 -0.0269
   29SAPC   H3X 3901   2.796   2.421   7.479 -0.1556  1.2933 -1.1719
   29SAPC   H3Y 3902   2.919   2.518   7.547 -0.4408 -0.6481  0.7388
   29SAPC   C34 3903   2.921   2.331   7.643  0.8143  0.0937 -0.1041
   29SAPC   H4X 3904   3.032   2.330   7.650  0.8179  2.8773  0.7366
   29SAPC   H4Y 3905   2.900   2.224   7.624 -0.4593  0.3035  0.0909
   29SAPC   C35 3906   2.870   2.389   7.783  0.0882 -0.5424  0.2267
   29SAPC   H5X 3907   2.761   2.397   7.764  0.2018 -1.0484 -0.6802
   29SAPC   H5Y 3908   2.916   2.489   7.799 -0.4367 -0.4108  0.9533
   29SAPC   C36 3909   2.900   2.300   7.895  0.0015  0.8123 -0.1078
   29SAPC   H6X 3910   2.988   2.237   7.870 -1.1658 -1.4066  1.2431
   29SAPC   H6Y 3911   2.811   2.234   7.899 -0.0774  0.9925  1.3412
   29SAPC   C37 3912   2.910   2.363   8.032 -0.1331  0.3326  0.0192
   29SAPC   H7X 3913   2.967   2.459   8.030 -1.2040  1.0350  2.0489
   29SAPC   H7Y 3914   2.969   2.288   8.089  0.5696 -0.8087 -2.1372
   29SAPC   C38 3915   2.772   2.386   8.098  0.2027  0.3581 -0.1822
   29SAPC   H8X 3916   2.706   2.296   8.105 -3.2432  2.8036  0.3453
   29SAPC   H8Y 3917   2.713   2.462   8.042  2.3759  0.5197 -2.3361
   29SAPC   C39 3918   2.788   2.435   8.239  0.1371 -0.1287 -0.3211
   29SAPC   H9X 3919   2.808   2.543   8.218  1.4078 -0.2317  0.3118
   29SAPC   H9Y 3920   2.878   2.406   8.298 -0.1433  0.4436  0.3976
   29SAPC  C310 3921   2.666   2.407   8.331 -0.5287  0.4280  0.8904
   29SAPC  H10X 3922   2.573   2.427   8.273  0.4275  1.2610 -0.3953
   29SAPC  H10Y 3923   2.664   2.473   8.421  2.3028 -0.4697  1.6832
   29SAPC  C311 3924   2.664   2.262   8.384  0.2645  0.5473 -0.4048
   29SAPC  H11X 3925   2.746   2.267   8.460 -0.5643  0.1215  0.5254
   29SAPC  H11Y 3926   2.675   2.181   8.309 -0.9910 -0.3559  0.3717
   29SAPC  C312 3927   2.543   2.230   8.469  0.2811 -0.8990  0.5343
   29SAPC  H12X 3928   2.548   2.120   8.486  0.7353 -0.7213  1.5796
   29SAPC  H12Y 3929   2.451   2.258   8.414  1.0741  0.2704 -0.1998
   29SAPC  C313 3930   2.531   2.297   8.603  0.1111  0.5357  0.0207
   29SAPC  H13X 3931   2.528   2.408   8.600 -0.0390  0.5604  0.9580
   29SAPC  H13Y 3932   2.621   2.273   8.664  1.6056  1.7618 -1.6384
   29SAPC  C314 3933   2.411   2.244   8.686 -0.2421  0.4286  0.4066
   29SAPC  H14X 3934   2.409   2.133   8.681  1.6639  0.3561  0.7571
   29SAPC  H14Y 3935   2.321   2.284   8.635  0.9255  1.9717 -0.4696
   29SAPC  C315 3936   2.414   2.287   8.839 -0.3164  0.4604 -0.9348
   29SAPC  H15X 3937   2.422   2.396   8.821 -0.7728  0.6604 -0.0038
   29SAPC  H15Y 3938   2.495   2.228   8.888  0.2647  1.3781 -0.7772
   29SAPC  C316 3939   2.297   2.254   8.940 -0.8012  0.3372  0.5100
   29SAPC  H16X 3940   2.201   2.299   8.909 -1.4603 -1.5088 -0.1985
   29SAPC  H16Y 3941   2.332   2.291   9.039  1.4834 -0.1195 -0.0868
   29SAPC  C317 3942   2.286   2.106   8.954  0.5491  0.6961 -0.2549
   29SAPC  H17X 3943   2.371   2.073   9.018  0.7621  0.1636 -0.8068
   29SAPC  H17Y 3944   2.289   2.051   8.858 -0.3197  1.5349 -0.7680
   29SAPC  C318 3945   2.162   2.058   9.030 -0.1812  0.0693  0.3462
   29SAPC  H18X 3946   2.087   2.029   8.953 -0.8757  2.3174  0.1617
   29SAPC  H18Y 3947   2.124   2.139   9.095  0.2349  1.7740 -1.4784
   29SAPC  H18Z 3948   2.183   1.963   9.084 -0.5149  1.1185  2.3562
   30SAPC     N 3949   5.185   1.467   6.271 -0.5464  0.3907 -0.0183
   30SAPC   C12 3950   5.066   1.489   6.363 -0.4381  0.2452  0.5353
   30SAPC  H12A 3951   5.074   1.419   6.445 -1.5589 -0.7250 -0.1637
   30SAPC  H12B 3952   4.974   1.464   6.311 -0.7021  2.4311 -0.0801
   30SAPC   C13 3953   5.162   1.542   6.144 -0.2796  0.2558 -0.5862
   30SAPC  H13A 3954   5.258   1.580   6.112 -0.3306  0.5621 -0.3794
   30SAPC  H13B 3955   5.101   1.494   6.069 -2.6892  1.5939  0.4736
   30SAPC  H13C 3956   5.107   1.631   6.170 -2.3686 -1.1908  0.0993
   30SAPC   C14 3957   5.316   1.517   6.334  0.6144  0.1787  0.3590
   30SAPC  H14A 3958   5.361   1.448   6.405  0.1013 -1.0429 -0.4810
   30SAPC  H14B 3959   5.397   1.538   6.266 -0.6071  2.6122 -0.3753
   30SAPC  H14C 3960   5.300   1.607   6.391 -0.3334  1.9229 -2.5509
   30SAPC   C15 3961   5.209   1.323   6.228  0.5177  0.3867 -0.4704
   30SAPC  H15A 3962   5.247   1.260   6.306 -0.4670  0.1283 -0.1879
   30SAPC  H15B 3963   5.123   1.270   6.188 -0.7639  1.6973  0.5018
   30SAPC  H15C 3964   5.280   1.312   6.147  0.2856  1.3530 -0.8060
   30SAPC   C11 3965   5.038   1.631   6.420 -0.4668  0.0279 -0.0798
   30SAPC  H11A 3966   5.115   1.678   6.485 -0.8472  0.3949  0.1033
   30SAPC  H11B 3967   4.950   1.634   6.487 -0.2387  0.3599  0.2024
   30SAPC     P 3968   4.876   1.741   6.250 -0.3825 -0.4334 -0.0318
   30SAPC   O13 3969   4.825   1.870   6.288  0.2693  0.2027 -0.6005
   30SAPC   O14 3970   4.904   1.728   6.103  0.5673 -0.2397 -0.1129
   30SAPC   O12 3971   5.020   1.725   6.316 -0.3281  0.0457  0.4177
   30SAPC   O11 3972   4.797   1.614   6.304  0.0959  0.2199 -0.6394
   30SAPC    C1 3973   4.658   1.608   6.327  0.0403 -0.1767 -0.4817
   30SAPC    HA 3974   4.609   1.629   6.229 -1.2247  1.0986  0.4096
   30SAPC    HB 3975   4.633   1.502   6.350  0.0262 -0.1111 -0.1873
   30SAPC    C2 3976   4.605   1.683   6.450  0.5123  0.4299  0.1718
   30SAPC    HS 3977   4.671   1.771   6.464 -1.3557  1.9945 -0.5976
   30SAPC   O21 3978   4.611   1.590   6.560  0.3713 -0.3376 -0.0328
   30SAPC   C21 3979   4.670   1.630   6.670 -1.0395  0.2985 -0.0906
   30SAPC   O22 3980   4.743   1.725   6.678 -0.5289 -0.0136  0.1699
   30SAPC   C22 3981   4.641   1.537   6.785 -0.5808  0.2204  0.2927
   30SAPC   H2R 3982   4.555   1.574   6.844 -0.6382  1.2399 -0.4133
   30SAPC   H2S 3983   4.623   1.434   6.747  2.1415  0.2230 -1.1463
   30SAPC    C3 3984   4.466   1.746   6.431  0.0118  0.3086  0.1995
   30SAPC    HX 3985   4.393   1.684   6.374  0.5128  0.4599 -0.6311
   30SAPC    HY 3986   4.483   1.821   6.350 -1.0873  0.2166 -0.1283
   30SAPC   O31 3987   4.418   1.807   6.554  0.8137 -0.4584  0.5863
   30SAPC   C31 3988   4.328   1.753   6.623  0.2528  0.0792 -0.3004
   30SAPC   O32 3989   4.279   1.639   6.607 -0.0352  0.2357 -0.3419
   30SAPC   C32 3990   4.301   1.845   6.744  0.2919  0.3874 -0.7806
   30SAPC   H2X 3991   4.212   1.906   6.717 -0.0946  0.4228  0.5186
   30SAPC   H2Y 3992   4.391   1.909   6.749 -1.1425  2.2756  3.1194
   30SAPC   C23 3993   4.775   1.530   6.865  0.0381  0.2056  0.0998
   30SAPC   H3R 3994   4.824   1.627   6.891 -1.5486  0.7857  1.0158
   30SAPC   H3S 3995   4.848   1.476   6.802 -1.2491  0.8072 -1.9318
   30SAPC   C24 3996   4.755   1.440   6.990  0.2620 -0.3571 -0.5552
   30SAPC   H4R 3997   4.698   1.352   6.956 -1.3101  0.7996 -0.9704
   30SAPC   H4S 3998   4.679   1.485   7.057  0.9160 -0.3747  0.2133
   30SAPC   C25 3999   4.888   1.433   7.062  0.5884 -0.0305  0.6713
   30SAPC   H5R 4000   4.954   1.363   7.007  0.3050  0.6885 -0.6170
   30SAPC   C26 4001   4.922   1.503   7.173  0.1973  0.2339  0.3755
   30SAPC   H6R 4002   5.018   1.483   7.223  0.1888  2.8243  1.5424
   30SAPC   C27 4003   4.835   1.608   7.240  0.0974  0.0034 -0.3896
   30SAPC   H7R 4004   4.735   1.565   7.265  0.4769  0.3826  1.8698
   30SAPC   H7S 4005   4.832   1.690   7.166  0.8562 -0.1564 -0.5935
   30SAPC   C28 4006   4.900   1.664   7.369 -0.4147  0.1763 -0.0306
   30SAPC   H8R 4007   5.002   1.703   7.350 -0.1063 -0.7348 -0.3015
   30SAPC   C29 4008   4.851   1.676   7.497 -0.2554  0.1233 -0.5874
   30SAPC   H9R 4009   4.917   1.725   7.570 -1.5159 -0.0289  0.6630
   30SAPC  C210 4010   4.711   1.624   7.533 -0.2123  0.5490  0.1057
   30SAPC  H10R 4011   4.658   1.589   7.442 -1.1998  0.6369  0.6374
   30SAPC  H10S 4012   4.636   1.694   7.575 -0.1419  1.1523 -0.7543
   30SAPC  C211 4013   4.719   1.513   7.639 -0.1527  0.1002 -0.8398
   30SAPC  H11R 4014   4.744   1.411   7.609  0.1090 -0.0925  0.0197
   30SAPC  C212 4015   4.715   1.532   7.773 -0.0720 -0.6317 -0.4395
   30SAPC  H12R 4016   4.706   1.448   7.843  0.4034  0.6446  1.1808
   30SAPC  C213 4017   4.690   1.669   7.840  0.0052 -0.2998  0.0677
   30SAPC  H13R 4018   4.613   1.723   7.780 -0.8591 -2.6365 -0.9646
   30SAPC  H13S 4019   4.786   1.726   7.832 -0.2488  0.1772  0.3729
   30SAPC  C214 4020   4.643   1.665   7.981 -0.4319  0.5623  0.3674
   30SAPC  H14R 4021   4.535   1.676   7.996 -0.5775 -0.9731  0.5580
   30SAPC  C215 4022   4.730   1.660   8.089  0.6822  0.1702 -0.1519
   30SAPC  H15R 4023   4.695   1.656   8.193  1.2598 -1.1841  0.0028
   30SAPC  C216 4024   4.884   1.654   8.086 -0.3835 -0.7378 -0.2102
   30SAPC  H16R 4025   4.928   1.751   8.119 -3.8049  0.8467 -0.0998
   30SAPC  H16S 4026   4.936   1.642   7.989 -1.7546  1.2931 -1.2236
   30SAPC  C217 4027   4.947   1.547   8.181  0.2162  0.1190  0.8891
   30SAPC  H17R 4028   4.916   1.445   8.150  1.1529 -0.3235  1.3976
   30SAPC  H17S 4029   4.914   1.558   8.286  2.1649  0.0603  1.5388
   30SAPC  C218 4030   5.103   1.541   8.175  0.3342 -0.4264 -0.1529
   30SAPC  H18R 4031   5.155   1.638   8.190 -0.6496  0.3889 -1.8890
   30SAPC  H18S 4032   5.135   1.510   8.074 -3.8081  0.2540 -1.7507
   30SAPC  C219 4033   5.154   1.443   8.278  0.4428  0.0397  0.3616
   30SAPC  H19R 4034   5.259   1.425   8.247  0.2278  0.4479 -0.6137
   30SAPC  H19S 4035   5.095   1.349   8.285 -1.3923  1.2825  2.1866
   30SAPC  C220 4036   5.149   1.493   8.422  0.3886  1.1184 -0.5084
   30SAPC  H20R 4037   5.048   1.536   8.436  0.7360  2.1395 -1.0218
   30SAPC  H20S 4038   5.209   1.586   8.433  0.3365  1.0690  0.1761
   30SAPC  H20T 4039   5.178   1.421   8.501 -1.0680  0.1187 -0.8764
   30SAPC   C33 4040   4.286   1.765   6.869 -0.3329 -0.0107 -0.0628
   30SAPC   H3X 4041   4.373   1.696   6.867 -0.7061 -0.4556 -1.2503
   30SAPC   H3Y 4042   4.196   1.700   6.872 -0.1173 -0.3061  0.0523
   30SAPC   C34 4043   4.293   1.850   7.001  0.6598 -0.1279  0.2545
   30SAPC   H4X 4044   4.185   1.871   7.011  0.7597  0.2810  0.4577
   30SAPC   H4Y 4045   4.358   1.940   6.997  2.6177 -1.4595  1.0013
   30SAPC   C35 4046   4.329   1.759   7.120 -0.2921  0.1252  0.7394
   30SAPC   H5X 4047   4.436   1.729   7.109 -1.0142 -1.9691 -0.7669
   30SAPC   H5Y 4048   4.266   1.669   7.129  0.1052 -0.1794  0.5147
   30SAPC   C36 4049   4.312   1.849   7.243 -0.0078  0.1638 -0.5543
   30SAPC   H6X 4050   4.208   1.884   7.257 -0.9199 -2.2460 -1.0891
   30SAPC   H6Y 4051   4.373   1.941   7.231  2.4053 -1.3761 -0.4896
   30SAPC   C37 4052   4.359   1.778   7.370 -0.2167 -0.6119 -0.5751
   30SAPC   H7X 4053   4.470   1.786   7.373 -0.3193  0.9914 -0.5851
   30SAPC   H7Y 4054   4.331   1.672   7.388  0.6561 -0.4948  1.6769
   30SAPC   C38 4055   4.303   1.852   7.491 -0.2224  0.6163 -0.5469
   30SAPC   H8X 4056   4.192   1.849   7.480 -0.3825  0.3236  1.0920
   30SAPC   H8Y 4057   4.330   1.959   7.497  0.6629  0.4245 -0.9660
   30SAPC   C39 4058   4.336   1.788   7.626 -0.4996 -0.4323  0.0839
   30SAPC   H9X 4059   4.423   1.829   7.680 -1.7776  0.6711  1.3217
   30SAPC   H9Y 4060   4.369   1.684   7.605  0.1878 -0.7013  2.3855
   30SAPC  C310 4061   4.212   1.783   7.720  0.0631 -0.0717 -0.4635
   30SAPC  H10X 4062   4.138   1.718   7.669 -0.2849 -1.6863  2.0408
   30SAPC  H10Y 4063   4.160   1.881   7.729 -0.1190 -0.3494  1.7256
   30SAPC  C311 4064   4.233   1.721   7.864 -0.0286  0.2035 -0.0128
   30SAPC  H11X 4065   4.293   1.628   7.858 -0.1109  0.0966  0.8275
   30SAPC  H11Y 4066   4.138   1.682   7.907 -1.0608  0.8657 -1.6182
   30SAPC  C312 4067   4.302   1.822   7.955 -0.0776 -0.0410 -0.0819
   30SAPC  H12X 4068   4.246   1.918   7.948 -2.4322 -1.3400  0.5145
   30SAPC  H12Y 4069   4.406   1.840   7.919  0.1100 -0.1574  0.3997
   30SAPC  C313 4070   4.298   1.792   8.105 -0.5330  0.4234  0.1212
   30SAPC  H13X 4071   4.350   1.870   8.165 -1.5306  2.9679 -2.2343
   30SAPC  H13Y 4072   4.354   1.698   8.125  1.6232  1.3971 -1.2082
   30SAPC  C314 4073   4.159   1.792   8.176  0.0569 -0.6373  0.2236
   30SAPC  H14X 4074   4.106   1.699   8.147  1.8788 -1.8571  0.7319
   30SAPC  H14Y 4075   4.101   1.883   8.148  0.4000  0.1011  1.8623
   30SAPC  C315 4076   4.159   1.771   8.331 -0.6923  0.3005  0.2008
   30SAPC  H15X 4077   4.060   1.765   8.380 -1.3871  0.7219 -1.1281
   30SAPC  H15Y 4078   4.195   1.870   8.368 -1.4472  0.8700 -0.5560
   30SAPC  C316 4079   4.230   1.648   8.380  0.1870  0.5349  0.0933
   30SAPC  H16X 4080   4.331   1.638   8.333 -0.3688 -2.4210 -0.5523
   30SAPC  H16Y 4081   4.174   1.557   8.350 -1.0413  0.9469  1.1156
   30SAPC  C317 4082   4.255   1.667   8.530  0.6385 -0.4415  0.2746
   30SAPC  H17X 4083   4.156   1.693   8.573 -0.2020 -0.0136 -1.8743
   30SAPC  H17Y 4084   4.319   1.756   8.547 -0.4052  0.2023  0.8790
   30SAPC  C318 4085   4.320   1.549   8.596  0.5717 -0.5645  0.0855
   30SAPC  H18X 4086   4.272   1.449   8.588 -0.9679  0.0749  1.2076
   30SAPC  H18Y 4087   4.322   1.562   8.706 -0.9085 -1.2998  0.2103
   30SAPC  H18Z 4088   4.425   1.548   8.560  0.4844  0.5541 -0.2076
   31SAPC     N 4089   5.942   3.511   6.155 -0.6046  0.3068 -0.0465
   31SAPC   C12 4090   5.862   3.418   6.238  0.3758 -0.2039  0.5532
   31SAPC  H12A 4091   5.924   3.386   6.320  0.6740  0.5839  0.6339
   31SAPC  H12B 4092   5.833   3.337   6.172 -1.9781  1.9711 -1.1835
   31SAPC   C13 4093   6.080   3.455   6.139 -0.3328 -0.0930  0.4551
   31SAPC  H13A 4094   6.129   3.511   6.060 -1.2981 -1.2155 -0.9676
   31SAPC  H13B 4095   6.135   3.464   6.231 -1.1275 -3.5523  1.3314
   31SAPC  H13C 4096   6.086   3.350   6.113 -2.8915 -0.1243 -0.1931
   31SAPC   C14 4097   5.876   3.542   6.026 -0.1211 -0.2344  0.0671
   31SAPC  H14A 4098   5.781   3.591   6.035  0.5508  0.9942  0.6609
   31SAPC  H14B 4099   5.931   3.603   5.955 -1.0885 -0.6006 -1.0084
   31SAPC  H14C 4100   5.859   3.450   5.972  1.0949 -1.9513  2.5305
   31SAPC   C15 4101   5.950   3.646   6.220  0.0284 -0.1055 -0.0910
   31SAPC  H15A 4102   6.029   3.654   6.293  0.5526 -0.6432 -0.5973
   31SAPC  H15B 4103   5.974   3.721   6.146  2.0320  1.5055  2.1235
   31SAPC  H15C 4104   5.856   3.666   6.269 -0.0322  3.1813 -1.4162
   31SAPC   C11 4105   5.736   3.476   6.298  0.1466  0.0232 -0.9139
   31SAPC  H11A 4106   5.757   3.557   6.371 -3.0116  1.5541 -1.6097
   31SAPC  H11B 4107   5.691   3.400   6.366  1.9690 -0.3380 -0.0908
   31SAPC     P 4108   5.508   3.454   6.168  0.2549 -0.0587  0.1006
   31SAPC   O13 4109   5.429   3.534   6.078 -0.3422  0.1462  0.5761
   31SAPC   O14 4110   5.542   3.320   6.128 -0.0812  0.2482 -0.6011
   31SAPC   O12 4111   5.642   3.530   6.203  0.2684  0.2186 -0.1294
   31SAPC   O11 4112   5.431   3.449   6.303 -0.8343 -0.0663 -0.3011
   31SAPC    C1 4113   5.381   3.560   6.381  0.4546  0.0267  0.0954
   31SAPC    HA 4114   5.444   3.650   6.363  1.4078 -0.7707 -0.6647
   31SAPC    HB 4115   5.281   3.582   6.338  0.4221  0.6973  0.5134
   31SAPC    C2 4116   5.356   3.523   6.531 -0.5844 -0.5091  0.5427
   31SAPC    HS 4117   5.454   3.532   6.584  0.6280  0.7511 -1.8544
   31SAPC   O21 4118   5.277   3.397   6.545 -0.5664 -0.2484 -0.0939
   31SAPC   C21 4119   5.360   3.290   6.539 -0.5188 -0.2603 -0.0410
   31SAPC   O22 4120   5.483   3.298   6.530 -0.1313 -0.4441 -0.5607
   31SAPC   C22 4121   5.278   3.171   6.581  0.1255  0.2702  0.4762
   31SAPC   H2R 4122   5.211   3.200   6.664 -0.5299 -1.1079  0.4447
   31SAPC   H2S 4123   5.212   3.158   6.493 -0.1680 -0.7474  0.8445
   31SAPC    C3 4124   5.276   3.638   6.594 -1.0595  0.1623 -0.2196
   31SAPC    HX 4125   5.182   3.635   6.534 -0.1593  0.9506 -1.6884
   31SAPC    HY 4126   5.328   3.727   6.554 -0.0732 -0.4596 -0.3414
   31SAPC   O31 4127   5.272   3.642   6.740 -0.5020  0.5646  0.2420
   31SAPC   C31 4128   5.163   3.600   6.797  0.0019  0.1122 -0.2164
   31SAPC   O32 4129   5.054   3.578   6.742  0.3897 -0.6513 -0.3645
   31SAPC   C32 4130   5.183   3.579   6.947 -0.3630  0.0059 -0.4488
   31SAPC   H2X 4131   5.286   3.540   6.959  0.0878  1.0637 -0.7575
   31SAPC   H2Y 4132   5.118   3.497   6.983  2.4671 -1.5131  1.2746
   31SAPC   C23 4133   5.359   3.039   6.607  0.6041  0.4819  0.6774
   31SAPC   H3R 4134   5.443   3.023   6.536  0.7799  0.8694  0.7991
   31SAPC   H3S 4135   5.279   2.967   6.580  0.4964 -0.1051  2.5079
   31SAPC   C24 4136   5.394   3.035   6.762  0.3551  0.3559  0.1662
   31SAPC   H4R 4137   5.437   2.935   6.781  1.0600  0.7035  0.4173
   31SAPC   H4S 4138   5.305   3.060   6.824 -1.7040 -0.5277 -2.3521
   31SAPC   C25 4139   5.505   3.124   6.805 -0.1849  0.4463 -0.2495
   31SAPC   H5R 4140   5.597   3.101   6.749 -0.0283  0.8082 -0.1424
   31SAPC   C26 4141   5.514   3.213   6.909  0.6045  0.1362 -0.7962
   31SAPC   H6R 4142   5.606   3.271   6.921  0.4134  0.2247  0.3640
   31SAPC   C27 4143   5.406   3.246   7.013  0.1516  0.5488  0.1086
   31SAPC   H7R 4144   5.352   3.153   7.039 -1.9865  1.4179 -1.0990
   31SAPC   H7S 4145   5.325   3.300   6.960  3.0520  2.4849 -2.5747
   31SAPC   C28 4146   5.432   3.335   7.135  0.2588  0.6453 -0.5639
   31SAPC   H8R 4147   5.427   3.443   7.115 -2.2779  0.8009  0.6287
   31SAPC   C29 4148   5.431   3.287   7.262  0.4458 -0.2308 -0.6367
   31SAPC   H9R 4149   5.436   3.361   7.344  2.3259  0.1552 -1.0831
   31SAPC  C210 4150   5.394   3.156   7.311  1.1522  0.2464  0.1071
   31SAPC  H10R 4151   5.489   3.100   7.330  2.4450  2.6085  0.8947
   31SAPC  H10S 4152   5.341   3.103   7.229  0.6882 -0.0008  0.5620
   31SAPC  C211 4153   5.304   3.157   7.440  0.1578  0.3499 -0.2017
   31SAPC  H11R 4154   5.196   3.146   7.422 -0.1223 -1.0551  2.0370
   31SAPC  C212 4155   5.340   3.178   7.568 -0.4120 -0.1961 -0.3896
   31SAPC  H12R 4156   5.255   3.183   7.638 -0.7222  3.1172 -0.9133
   31SAPC  C213 4157   5.478   3.211   7.618  0.2210 -0.0396 -0.0842
   31SAPC  H13R 4158   5.464   3.304   7.678 -0.2350  0.2864 -0.6973
   31SAPC  H13S 4159   5.552   3.235   7.538 -0.8716 -0.8315 -1.3484
   31SAPC  C214 4160   5.542   3.100   7.706  0.0478  0.3620 -0.7533
   31SAPC  H14R 4161   5.548   3.004   7.653  0.7771 -0.9239  1.5842
   31SAPC  C215 4162   5.580   3.100   7.834 -0.3687  0.0221 -0.0455
   31SAPC  H15R 4163   5.641   3.016   7.873  0.7302  0.3949 -0.9449
   31SAPC  C216 4164   5.571   3.218   7.933 -0.1763 -0.2943 -0.0287
   31SAPC  H16R 4165   5.504   3.298   7.893 -1.0720 -0.0240  1.9644
   31SAPC  H16S 4166   5.674   3.261   7.934 -0.3686  0.2697 -1.5671
   31SAPC  C217 4167   5.517   3.190   8.071  0.1391  0.2508  0.2363
   31SAPC  H17R 4168   5.413   3.157   8.050 -0.1220  0.7776  0.6900
   31SAPC  H17S 4169   5.522   3.284   8.131  2.0107 -0.1719  0.7880
   31SAPC  C218 4170   5.603   3.089   8.145  0.2094 -0.5763  0.8108
   31SAPC  H18R 4171   5.708   3.126   8.144  0.1399  0.0400 -5.5230
   31SAPC  H18S 4172   5.598   2.995   8.085 -1.4278 -0.4495  0.7159
   31SAPC  C219 4173   5.551   3.064   8.286  0.4511 -0.2398  0.7926
   31SAPC  H19R 4174   5.463   2.999   8.269  1.7379 -1.3749 -1.7922
   31SAPC  H19S 4175   5.508   3.158   8.327  1.0643 -0.0144  0.9174
   31SAPC  C220 4176   5.637   2.992   8.390 -0.5251 -0.7798 -1.1428
   31SAPC  H20R 4177   5.685   2.902   8.346  2.2802  1.4891 -2.8800
   31SAPC  H20S 4178   5.570   2.952   8.469  1.0396 -1.4589 -0.1260
   31SAPC  H20T 4179   5.706   3.068   8.433 -0.6281 -1.5343  0.3992
   31SAPC   C33 4180   5.168   3.713   7.029 -1.1977 -0.6862 -0.0179
   31SAPC   H3X 4181   5.060   3.739   7.043 -0.9345 -0.8216  2.5152
   31SAPC   H3Y 4182   5.210   3.792   6.964  0.4177  0.7531  2.6808
   31SAPC   C34 4183   5.240   3.723   7.167  0.1298  0.1677  0.1475
   31SAPC   H4X 4184   5.208   3.819   7.212 -0.7920 -0.5115  0.9716
   31SAPC   H4Y 4185   5.351   3.716   7.156  0.2164 -0.6013  1.3493
   31SAPC   C35 4186   5.202   3.612   7.266 -0.4483  0.5155  0.3448
   31SAPC   H5X 4187   5.251   3.520   7.227  2.2254  1.6963  0.7869
   31SAPC   H5Y 4188   5.093   3.591   7.269 -0.4346  0.6107  2.2641
   31SAPC   C36 4189   5.248   3.643   7.409  0.3914 -0.6898 -0.3138
   31SAPC   H6X 4190   5.218   3.744   7.444  0.1583 -0.0855 -2.2048
   31SAPC   H6Y 4191   5.359   3.655   7.404  0.2945  0.3953 -0.0964
   31SAPC   C37 4192   5.198   3.550   7.518 -0.2639  0.3366 -0.4195
   31SAPC   H7X 4193   5.235   3.445   7.525  2.0635  1.2275  1.1559
   31SAPC   H7Y 4194   5.088   3.543   7.504 -0.0017  0.7542 -2.9358
   31SAPC   C38 4195   5.234   3.602   7.656  0.5582  0.1630  0.3221
   31SAPC   H8X 4196   5.196   3.707   7.665  1.0785  0.2009  2.3357
   31SAPC   H8Y 4197   5.344   3.617   7.659  0.8874 -2.0158 -0.0393
   31SAPC   C39 4198   5.185   3.508   7.769 -0.2004 -0.2320  0.1071
   31SAPC   H9X 4199   5.212   3.403   7.747  2.7497  0.2965  1.0147
   31SAPC   H9Y 4200   5.074   3.516   7.780 -0.0607  1.2733  0.5911
   31SAPC  C310 4201   5.228   3.550   7.910 -0.8305 -0.1088 -0.7852
   31SAPC  H10X 4202   5.175   3.636   7.956  3.4375  2.8532 -1.1620
   31SAPC  H10Y 4203   5.335   3.580   7.908 -1.1309  1.1690  0.9644
   31SAPC  C311 4204   5.232   3.434   8.009  0.4745  0.4035 -0.1184
   31SAPC  H11X 4205   5.284   3.342   7.974 -1.3172 -0.3982 -0.7044
   31SAPC  H11Y 4206   5.125   3.410   8.022  0.4878  0.1453 -0.4791
   31SAPC  C312 4207   5.286   3.469   8.150 -0.6041  0.6771  0.1117
   31SAPC  H12X 4208   5.268   3.579   8.158 -2.2141  0.3949  0.4494
   31SAPC  H12Y 4209   5.397   3.461   8.150 -0.5091  1.4675 -2.0768
   31SAPC  C313 4210   5.227   3.397   8.277 -0.2395 -0.4897  0.5459
   31SAPC  H13X 4211   5.260   3.291   8.273 -2.4433 -1.1404 -1.1112
   31SAPC  H13Y 4212   5.116   3.406   8.281 -0.1289  0.2402  2.5497
   31SAPC  C314 4213   5.292   3.437   8.407  0.4496  0.5027 -0.4959
   31SAPC  H14X 4214   5.297   3.547   8.424  1.6378  0.2741  0.7235
   31SAPC  H14Y 4215   5.397   3.400   8.411  0.1194 -0.7107 -2.5041
   31SAPC  C315 4216   5.206   3.396   8.531  0.1894 -0.2431 -0.3175
   31SAPC  H15X 4217   5.187   3.287   8.523 -2.3237  0.1290  0.2816
   31SAPC  H15Y 4218   5.110   3.453   8.528  1.2830  1.6929  0.2413
   31SAPC  C316 4219   5.269   3.431   8.670  0.1636  0.0539 -0.9278
   31SAPC  H16X 4220   5.204   3.381   8.745 -0.0254  0.8781 -0.5328
   31SAPC  H16Y 4221   5.269   3.542   8.681 -2.5309  0.0188 -0.2115
   31SAPC  C317 4222   5.410   3.383   8.691  0.9541 -0.1547  0.7293
   31SAPC  H17X 4223   5.463   3.418   8.600 -2.0463  1.2795 -0.5199
   31SAPC  H17Y 4224   5.417   3.272   8.685  1.0746 -0.0766 -0.6876
   31SAPC  C318 4225   5.477   3.440   8.817 -0.3081 -1.3049  0.2889
   31SAPC  H18X 4226   5.425   3.430   8.915 -0.5841  0.5871  0.3517
   31SAPC  H18Y 4227   5.497   3.549   8.806  3.2260 -1.8641  0.6272
   31SAPC  H18Z 4228   5.577   3.394   8.826  1.2517  1.8992 -0.0468
   32SAPC     N 4229   0.722   4.737   6.139 -0.8643 -0.3592 -0.3084
   32SAPC   C12 4230   0.618   4.793   6.243  0.3804  0.3136 -0.2083
   32SAPC  H12A 4231   0.522   4.802   6.195  0.0699 -1.9064 -0.0538
   32SAPC  H12B 4232   0.644   4.895   6.267  0.4067  0.3288 -0.3020
   32SAPC   C13 4233   0.686   4.599   6.097 -0.1223  0.3580 -0.1998
   32SAPC  H13A 4234   0.587   4.578   6.061  0.4521 -1.8079 -0.6162
   32SAPC  H13B 4235   0.748   4.568   6.014 -2.8173  0.3365 -2.2633
   32SAPC  H13C 4236   0.674   4.535   6.184 -0.6625 -0.7775 -1.0958
   32SAPC   C14 4237   0.725   4.833   6.021 -0.5237  0.1627  0.0609
   32SAPC  H14A 4238   0.628   4.847   5.977 -1.5135 -1.8880  1.5360
   32SAPC  H14B 4239   0.778   4.921   6.055  1.0367 -0.1335 -1.5163
   32SAPC  H14C 4240   0.778   4.788   5.938 -1.0674  0.6989 -0.5821
   32SAPC   C15 4241   0.864   4.731   6.193  0.7993  0.4392  0.3097
   32SAPC  H15A 4242   0.938   4.701   6.121  0.1791 -1.2652  0.3720
   32SAPC  H15B 4243   0.890   4.831   6.226 -1.9358  1.1770  0.3879
   32SAPC  H15C 4244   0.872   4.662   6.276 -2.5151 -0.7632 -0.2834
   32SAPC   C11 4245   0.617   4.712   6.374  0.3555 -0.5172 -0.3428
   32SAPC  H11A 4246   0.556   4.773   6.443 -1.9713 -0.5432 -2.2985
   32SAPC  H11B 4247   0.721   4.712   6.414  0.3135  0.6727 -0.2178
   32SAPC     P 4248   0.405   4.551   6.346 -0.0104  0.1001 -0.2964
   32SAPC   O13 4249   0.335   4.675   6.328 -0.0549 -0.7404 -0.0190
   32SAPC   O14 4250   0.388   4.437   6.246  0.0962  0.4665 -0.3067
   32SAPC   O12 4251   0.567   4.578   6.360  0.2630  0.4649 -0.2156
   32SAPC   O11 4252   0.361   4.497   6.493 -0.0248  0.5232 -0.3051
   32SAPC    C1 4253   0.439   4.433   6.585 -0.8719  0.4170 -0.2997
   32SAPC    HA 4254   0.406   4.328   6.597  5.2728 -1.4484  1.9875
   32SAPC    HB 4255   0.545   4.437   6.552 -0.9669  1.0482 -0.5475
   32SAPC    C2 4256   0.421   4.517   6.715  0.1123 -0.1686 -0.2075
   32SAPC    HS 4257   0.455   4.622   6.707  1.3036 -0.6928 -2.2551
   32SAPC   O21 4258   0.477   4.456   6.829 -0.2236 -0.3287 -0.5737
   32SAPC   C21 4259   0.617   4.468   6.828 -0.2072  0.5578  0.3304
   32SAPC   O22 4260   0.681   4.512   6.735 -0.4215 -0.0952 -0.7242
   32SAPC   C22 4261   0.665   4.423   6.963 -0.0546  0.0784 -0.4818
   32SAPC   H2R 4262   0.596   4.446   7.047  1.1660 -1.1767  0.8962
   32SAPC   H2S 4263   0.654   4.312   6.962 -0.1527  0.0902 -1.6479
   32SAPC    C3 4264   0.273   4.528   6.740  0.0646 -0.7801 -0.7212
   32SAPC    HX 4265   0.242   4.421   6.738  1.6457 -1.2725  0.2120
   32SAPC    HY 4266   0.220   4.584   6.660 -2.4028  0.8742  1.9519
   32SAPC   O31 4267   0.243   4.596   6.864  0.1327 -0.2700  0.2113
   32SAPC   C31 4268   0.119   4.566   6.926 -0.0138  0.1136  0.5706
   32SAPC   O32 4269   0.047   4.480   6.880  0.3714  0.2720 -0.9765
   32SAPC   C32 4270   0.079   4.661   7.034  0.3094 -0.1459  0.0298
   32SAPC   H2X 4271  -0.017   4.702   6.995  1.0866  0.0047 -1.7935
   32SAPC   H2Y 4272   0.154   4.743   7.041  0.5656 -0.1933 -1.8991
   32SAPC   C23 4273   0.813   4.470   7.005  0.5327  0.4976  0.0582
   32SAPC   H3R 4274   0.869   4.460   6.910  0.1624  0.5966 -0.1740
   32SAPC   H3S 4275   0.850   4.392   7.075 -0.6576  0.9575  1.2306
   32SAPC   C24 4276   0.824   4.612   7.073 -1.3726 -0.1033  0.1056
   32SAPC   H4R 4277   0.753   4.625   7.157 -0.9178  0.5814  0.3889
   32SAPC   H4S 4278   0.804   4.693   7.000  4.0550  1.2419 -0.0880
   32SAPC   C25 4279   0.970   4.624   7.113  0.5642 -0.4073  0.1604
   32SAPC   H5R 4280   1.034   4.555   7.054  0.3827 -1.2555  0.9434
   32SAPC   C26 4281   1.024   4.693   7.216 -0.0082  0.1961  0.0695
   32SAPC   H6R 4282   1.132   4.714   7.216 -0.0648  0.7948  2.9059
   32SAPC   C27 4283   0.941   4.782   7.304  0.3945  0.2065  0.2595
   32SAPC   H7R 4284   0.902   4.725   7.391 -2.0176  2.2333  0.5708
   32SAPC   H7S 4285   0.853   4.828   7.255  0.8416 -1.9703 -2.7290
   32SAPC   C28 4286   1.016   4.906   7.354 -0.1268  0.0295 -0.7126
   32SAPC   H8R 4287   1.014   4.994   7.288 -2.4251  0.0843 -0.6143
   32SAPC   C29 4288   1.063   4.918   7.479  0.1588 -0.3810 -0.0957
   32SAPC   H9R 4289   1.113   5.014   7.499 -0.1065  0.1608 -1.9295
   32SAPC  C210 4290   1.036   4.822   7.597  0.4342  0.4124  0.4738
   32SAPC  H10R 4291   1.053   4.715   7.571 -1.8957 -0.2789  1.6915
   32SAPC  H10S 4292   0.931   4.823   7.632 -0.1433  1.7998 -1.2534
   32SAPC  C211 4293   1.134   4.845   7.717 -0.0572  0.2463 -0.4231
   32SAPC  H11R 4294   1.217   4.914   7.695 -0.3768  0.4554 -0.9874
   32SAPC  C212 4295   1.122   4.799   7.840  0.5594  0.3693  0.0817
   32SAPC  H12R 4296   1.196   4.824   7.917 -2.2857  0.6074  2.8321
   32SAPC  C213 4297   1.018   4.708   7.899 -0.5018  0.3585  0.9136
   32SAPC  H13R 4298   0.962   4.656   7.819 -1.1394  1.7802  0.4229
   32SAPC  H13S 4299   0.941   4.775   7.943  1.0264  2.7506  0.0388
   32SAPC  C214 4300   1.060   4.611   8.006  0.4139 -0.7835 -0.3575
   32SAPC  H14R 4301   1.111   4.526   7.957 -1.7377 -2.6085  0.4907
   32SAPC  C215 4302   1.055   4.611   8.139 -0.6030  0.2269  0.0527
   32SAPC  H15R 4303   1.085   4.521   8.194 -0.8081 -1.7434 -2.9891
   32SAPC  C216 4304   1.006   4.720   8.230 -0.1284 -0.1327  0.4704
   32SAPC  H16R 4305   1.014   4.821   8.184  1.6867 -0.8077 -0.7312
   32SAPC  H16S 4306   1.077   4.715   8.315  0.5018  0.4468 -0.0111
   32SAPC  C217 4307   0.864   4.690   8.279 -0.0235  0.5835 -0.0998
   32SAPC  H17R 4308   0.848   4.581   8.293 -1.9177  0.9451  0.6225
   32SAPC  H17S 4309   0.790   4.715   8.199  1.1199  0.5616 -1.1854
   32SAPC  C218 4310   0.811   4.774   8.402 -0.1710 -0.1888  1.0603
   32SAPC  H18R 4311   0.869   4.869   8.409 -0.2356  0.1067 -1.9624
   32SAPC  H18S 4312   0.828   4.711   8.492 -0.4000  0.3364  1.4685
   32SAPC  C219 4313   0.663   4.805   8.389  0.4242  0.4675  0.5946
   32SAPC  H19R 4314   0.624   4.706   8.359 -1.6885  1.3095  0.4872
   32SAPC  H19S 4315   0.645   4.885   8.315  0.9051  0.8230  0.8600
   32SAPC  C220 4316   0.603   4.840   8.527 -0.0833  0.0620  0.0137
   32SAPC  H20R 4317   0.621   4.762   8.604 -0.8356  1.0148  1.1678
   32SAPC  H20S 4318   0.493   4.853   8.524 -0.1457 -0.7638 -1.2227
   32SAPC  H20T 4319   0.640   4.940   8.559 -1.2732  0.4462  0.1786
   32SAPC   C33 4320   0.059   4.574   7.169 -0.0508 -0.4436  0.5215
   32SAPC   H3X 4321   0.134   4.493   7.184  0.1266 -0.2438  0.7340
   32SAPC   H3Y 4322  -0.038   4.521   7.169 -0.4207  0.2027 -1.2625
   32SAPC   C34 4323   0.051   4.675   7.287  0.2671 -0.2670 -0.2708
   32SAPC   H4X 4324  -0.031   4.740   7.249 -2.9601 -3.4483  0.8601
   32SAPC   H4Y 4325   0.142   4.734   7.307  0.2894 -1.1043  2.2881
   32SAPC   C35 4326   0.017   4.606   7.417  0.1422  0.5142 -0.0966
   32SAPC   H5X 4327   0.110   4.560   7.457  1.2936  0.1114 -3.1014
   32SAPC   H5Y 4328  -0.054   4.522   7.402 -0.3797  0.8672  0.3975
   32SAPC   C36 4329  -0.033   4.694   7.541  0.0959 -0.3579  0.2863
   32SAPC   H6X 4330  -0.120   4.751   7.503  0.1560  1.7488  3.1873
   32SAPC   H6Y 4331   0.034   4.777   7.572 -1.4423  2.4354 -3.4111
   32SAPC   C37 4332  -0.076   4.605   7.662 -0.8277  0.9061 -0.5816
   32SAPC   H7X 4333   0.017   4.559   7.702 -0.1920  2.5668 -0.0829
   32SAPC   H7Y 4334  -0.141   4.527   7.617  1.1615 -0.0996 -1.7974
   32SAPC   C38 4335  -0.145   4.689   7.772 -0.3836  0.5294 -0.3859
   32SAPC   H8X 4336  -0.243   4.722   7.730 -1.2265  0.2030  1.2775
   32SAPC   H8Y 4337  -0.077   4.776   7.780 -1.7855  1.6068  0.0578
   32SAPC   C39 4338  -0.169   4.619   7.909  0.4425 -0.7820  0.5677
   32SAPC   H9X 4339  -0.070   4.610   7.958 -0.0150  0.1992  1.6766
   32SAPC   H9Y 4340  -0.230   4.528   7.888 -0.1448 -0.3671  0.4655
   32SAPC  C310 4341  -0.268   4.709   7.992  0.4880  0.0392 -0.0425
   32SAPC  H10X 4342  -0.366   4.705   7.941  1.3482 -1.9948 -1.6234
   32SAPC  H10Y 4343  -0.239   4.817   7.994 -1.7046  0.7930 -3.7992
   32SAPC  C311 4344  -0.284   4.649   8.137 -0.2699 -0.4193 -0.2831
   32SAPC  H11X 4345  -0.178   4.635   8.168  1.0031  0.5201 -3.9138
   32SAPC  H11Y 4346  -0.333   4.549   8.138  1.8852 -1.5042  0.9195
   32SAPC  C312 4347  -0.358   4.739   8.243 -0.2233  0.1185  0.4282
   32SAPC  H12X 4348  -0.468   4.727   8.236 -0.1294  0.3532 -1.8362
   32SAPC  H12Y 4349  -0.335   4.844   8.216 -0.1615 -0.0353 -0.1145
   32SAPC  C313 4350  -0.308   4.714   8.389 -0.2277 -0.3176  0.3724
   32SAPC  H13X 4351  -0.209   4.762   8.403  0.5342 -1.8329  0.3132
   32SAPC  H13Y 4352  -0.289   4.605   8.404  0.9513 -0.0783  0.6796
   32SAPC  C314 4353  -0.403   4.758   8.499  1.0179  0.2774 -0.2543
   32SAPC  H14X 4354  -0.502   4.710   8.481  0.8529  0.5498 -0.0661
   32SAPC  H14Y 4355  -0.407   4.868   8.484 -1.1013  0.2970  0.3023
   32SAPC  C315 4356  -0.353   4.729   8.638 -0.4218 -0.0375 -0.1030
   32SAPC  H15X 4357  -0.431   4.738   8.716  1.4505  0.5884  1.7522
   32SAPC  H15Y 4358  -0.272   4.806   8.639 -1.4291  1.0573 -1.3213
   32SAPC  C316 4359  -0.293   4.592   8.650  0.4776  0.2868  0.0618
   32SAPC  H16X 4360  -0.187   4.590   8.618  0.6379 -1.5464  0.6547
   32SAPC  H16Y 4361  -0.349   4.508   8.603 -1.0795  0.7762  1.0073
   32SAPC  C317 4362  -0.285   4.543   8.799 -0.2838 -0.3017 -0.3076
   32SAPC  H17X 4363  -0.382   4.573   8.843 -1.8571  0.4096 -4.0961
   32SAPC  H17Y 4364  -0.202   4.603   8.841  0.5649  0.7608 -3.3597
   32SAPC  C318 4365  -0.269   4.391   8.815  0.0391 -0.1704 -0.5282
   32SAPC  H18X 4366  -0.338   4.332   8.751 -0.5299 -0.3465  0.2351
   32SAPC  H18Y 4367  -0.299   4.370   8.920 -2.7913  2.1831 -0.7941
   32SAPC  H18Z 4368  -0.165   4.359   8.791  1.0513  0.1710  3.0701
   33POPC     N 4369   4.479   6.312  10.863 -0.6362 -0.5528  0.4990
   33POPC   C12 4370   4.489   6.223  10.741  0.4803  0.4534 -0.3145
   33POPC  H12A 4371   4.414   6.146  10.752  0.6416  0.3946  0.4167
   33POPC  H12B 4372   4.583   6.169  10.745 -1.1792 -2.6166 -1.2979
   33POPC   C13 4373   4.582   6.415  10.871 -0.3400  0.1668 -0.4919
   33POPC  H13A 4374   4.577   6.494  10.797  1.9471  0.5615 -0.2427
   33POPC  H13B 4375   4.575   6.462  10.968  1.2430 -1.4944  0.4382
   33POPC  H13C 4376   4.681   6.374  10.872 -0.3922  0.0292 -0.9230
   33POPC   C14 4377   4.343   6.377  10.880 -0.0785 -0.0891 -0.7486
   33POPC  H14A 4378   4.259   6.316  10.852 -1.3485  1.1483  0.2955
   33POPC  H14B 4379   4.325   6.411  10.981 -0.1707 -1.0918 -0.4203
   33POPC  H14C 4380   4.329   6.460  10.813 -2.3804  1.1237  1.1631
   33POPC   C15 4381   4.506   6.216  10.980  0.2269 -0.6031  0.3775
   33POPC  H15A 4382   4.420   6.152  10.988 -0.7203  0.5644 -0.1977
   33POPC  H15B 4383   4.516   6.269  11.073  0.4928 -0.3957  0.2317
   33POPC  H15C 4384   4.595   6.157  10.965  1.1375  1.1045 -1.2134
   33POPC   C11 4385   4.469   6.298  10.604  0.6514  0.9037  0.1632
   33POPC  H11A 4386   4.368   6.344  10.608 -0.7395 -1.9223 -1.1372
   33POPC  H11B 4387   4.467   6.222  10.523 -0.5579  0.1362  0.9136
   33POPC     P 4388   4.704   6.369  10.506  0.1406 -0.4337 -0.1048
   33POPC   O13 4389   4.781   6.261  10.579  0.2963 -0.2375  0.3498
   33POPC   O14 4390   4.769   6.503  10.494  0.2138  0.1303  0.9647
   33POPC   O12 4391   4.569   6.400  10.571 -0.3761  0.1137 -0.8123
   33POPC   O11 4392   4.649   6.321  10.361  0.3174  0.1414 -0.1131
   33POPC    C1 4393   4.569   6.421  10.286 -0.1253 -0.3508  0.0870
   33POPC    HA 4394   4.550   6.518  10.337 -1.9129  0.0365 -1.2918
   33POPC    HB 4395   4.625   6.456  10.197  2.7532 -2.9803  0.7865
   33POPC    C2 4396   4.431   6.365  10.240 -0.9359  0.5612 -0.1750
   33POPC    HS 4397   4.390   6.300  10.321 -0.7219  2.3532  1.3978
   33POPC   O21 4398   4.445   6.282  10.122  0.1397 -0.0648  0.0745
   33POPC   C21 4399   4.344   6.195  10.102 -0.2661 -0.3817 -1.0520
   33POPC   O22 4400   4.258   6.167  10.187  0.3855  0.3837 -0.4727
   33POPC   C22 4401   4.350   6.143   9.957  0.3614 -0.4672  0.5592
   33POPC   H2R 4402   4.444   6.085   9.941  1.1725  0.6323  1.2994
   33POPC   H2S 4403   4.347   6.228   9.886 -1.6053 -0.1980  0.9532
   33POPC    C3 4404   4.326   6.476  10.203  0.2939 -0.5844  0.0503
   33POPC    HX 4405   4.379   6.529  10.121 -0.3035  0.8969  0.5983
   33POPC    HY 4406   4.320   6.547  10.289 -0.6565  1.2636 -1.5135
   33POPC   O31 4407   4.194   6.427  10.162 -0.7680 -0.0248 -1.0128
   33POPC   C31 4408   4.117   6.532  10.128  0.7386 -0.6705 -0.0350
   33POPC   O32 4409   4.154   6.642  10.096 -0.2756 -0.5497 -0.6793
   33POPC   C32 4410   3.974   6.484  10.117 -0.4879 -0.7806  0.1045
   33POPC   H2X 4411   3.910   6.575  10.109 -0.0482 -0.4699  0.1088
   33POPC   H2Y 4412   3.937   6.437  10.211 -1.2450  0.5894  0.4943
   33POPC   C23 4413   4.232   6.057   9.937  0.0029 -0.2842  0.1125
   33POPC   H3R 4414   4.139   6.118   9.934  0.9994  1.2977  0.6093
   33POPC   H3S 4415   4.212   5.995  10.027  2.1538 -0.3251  0.5803
   33POPC   C24 4416   4.241   5.997   9.799 -0.8478 -0.4717 -0.0956
   33POPC   H4R 4417   4.330   5.932   9.790  0.0170  0.5742  0.6901
   33POPC   H4S 4418   4.258   6.084   9.731 -1.5170  0.5294  0.9984
   33POPC   C25 4419   4.118   5.918   9.772 -0.6965  0.1236  0.6639
   33POPC   H5R 4420   4.028   5.983   9.776  0.0231  1.6178 -3.7467
   33POPC   H5S 4421   4.105   5.843   9.853 -1.0045 -1.1638 -0.5516
   33POPC   C26 4422   4.118   5.852   9.631  0.2506 -0.0232 -0.3206
   33POPC   H6R 4423   4.029   5.786   9.617  0.8605 -1.3451  1.8870
   33POPC   H6S 4424   4.204   5.783   9.618  0.2003 -0.0537 -0.4852
   33POPC   C27 4425   4.125   5.942   9.506 -0.7864 -0.0641  0.0494
   33POPC   H7R 4426   4.210   6.012   9.522 -1.5635  0.7591  0.5848
   33POPC   H7S 4427   4.039   6.011   9.494  1.1662  2.5396  0.5058
   33POPC   C28 4428   4.151   5.865   9.376  0.1017  0.3206 -0.1838
   33POPC   H8R 4429   4.084   5.776   9.378 -1.4473  1.4105 -2.1085
   33POPC   H8S 4430   4.253   5.823   9.391 -0.3686 -0.3529  1.2366
   33POPC   C29 4431   4.139   5.948   9.247  0.4144 -0.4058 -1.0397
   33POPC   H91 4432   4.238   5.989   9.222  1.0484 -0.9983  0.4258
   33POPC  C210 4433   4.035   5.977   9.169 -0.3226  0.5719 -0.4605
   33POPC  H101 4434   4.061   6.038   9.081 -1.8271 -0.1097 -1.4050
   33POPC  C211 4435   3.901   5.915   9.191 -0.0193  0.2667  0.2239
   33POPC  H11R 4436   3.825   5.996   9.188  1.1981  1.4242  0.2589
   33POPC  H11S 4437   3.898   5.872   9.293  0.9448  3.3094  1.5878
   33POPC  C212 4438   3.860   5.808   9.082  0.1051 -0.3628  0.1107
   33POPC  H12R 4439   3.759   5.768   9.106 -0.2596  0.8360  0.6029
   33POPC  H12S 4440   3.926   5.720   9.098  0.2102  0.0194  1.9885
   33POPC  C213 4441   3.882   5.847   8.935 -0.3420  0.0381  0.6676
   33POPC  H13R 4442   3.917   5.755   8.885  0.5752  0.9303 -0.3559
   33POPC  H13S 4443   3.961   5.924   8.920  0.3606 -1.1987 -2.1866
   33POPC  C214 4444   3.751   5.889   8.871  0.3657 -0.1693  0.2874
   33POPC  H14R 4445   3.720   5.989   8.908  1.3820  0.1096  0.3788
   33POPC  H14S 4446   3.670   5.819   8.898  0.9804 -0.6128  0.9701
   33POPC  C215 4447   3.774   5.904   8.719 -0.0389  0.6306 -0.0371
   33POPC  H15R 4448   3.811   5.803   8.693  0.9325  1.0887 -0.4764
   33POPC  H15S 4449   3.858   5.976   8.704 -2.4785  3.2082 -1.7746
   33POPC  C216 4450   3.653   5.917   8.632  0.4565 -0.3231 -0.0078
   33POPC  H16R 4451   3.579   5.989   8.674  1.0604  1.0661 -1.2582
   33POPC  H16S 4452   3.596   5.822   8.629  0.2444 -0.1652 -1.1833
   33POPC  C217 4453   3.689   5.970   8.491 -0.4669  0.3485  0.0267
   33POPC  H17R 4454   3.769   5.918   8.433 -0.9691  1.1592 -1.4391
   33POPC  H17S 4455   3.718   6.074   8.517 -2.2642  0.8062  0.2362
   33POPC  C218 4456   3.561   5.979   8.404 -0.0203 -0.8730 -0.2766
   33POPC  H18R 4457   3.574   6.051   8.321  0.3857 -0.1407  0.4146
   33POPC  H18S 4458   3.475   6.000   8.471 -1.1378 -0.7100 -1.7267
   33POPC  H18T 4459   3.542   5.876   8.365 -0.1423 -0.6459 -0.8144
   33POPC   C33 4460   3.950   6.390  10.004 -0.2047 -0.1230  0.1483
   33POPC   H3X 4461   3.851   6.348  10.030 -0.7797  1.4194  0.4706
   33POPC   H3Y 4462   4.020   6.304  10.013  0.5221  0.5932  1.4374
   33POPC   C34 4463   3.945   6.439   9.856  0.0991  0.1576  0.1285
   33POPC   H4X 4464   4.042   6.485   9.829 -1.9436  2.1585 -4.4331
   33POPC   H4Y 4465   3.872   6.523   9.857  1.0154  0.9617  1.2237
   33POPC   C35 4466   3.888   6.340   9.755 -0.2907 -0.7647 -0.2180
   33POPC   H5X 4467   3.784   6.319   9.787 -1.1826  0.6805 -2.0593
   33POPC   H5Y 4468   3.960   6.255   9.763 -0.9754 -1.2682  0.6436
   33POPC   C36 4469   3.882   6.405   9.611  0.1861  0.1565  0.9809
   33POPC   H6X 4470   3.988   6.427   9.585 -0.0350  1.2665  0.9838
   33POPC   H6Y 4471   3.830   6.503   9.616 -0.3547 -0.1107  0.5894
   33POPC   C37 4472   3.811   6.313   9.512 -0.3438 -0.1105  0.1245
   33POPC   H7X 4473   3.713   6.289   9.558 -0.8604  2.2662  0.3380
   33POPC   H7Y 4474   3.867   6.217   9.504  0.4650  0.4458 -1.2043
   33POPC   C38 4475   3.790   6.378   9.377 -0.0155  0.5125  0.9928
   33POPC   H8X 4476   3.891   6.415   9.349 -0.1708 -0.2021 -0.5891
   33POPC   H8Y 4477   3.731   6.472   9.384 -1.5029 -0.4810  2.0325
   33POPC   C39 4478   3.728   6.285   9.269 -0.4501 -0.2301 -0.5415
   33POPC   H9X 4479   3.631   6.248   9.308 -0.9951  0.3846 -1.2998
   33POPC   H9Y 4480   3.801   6.202   9.261 -0.8906 -0.7335  0.4832
   33POPC  C310 4481   3.700   6.359   9.139 -0.0667 -0.3000 -0.0506
   33POPC  H10X 4482   3.787   6.422   9.111 -2.2574  2.8717  0.1253
   33POPC  H10Y 4483   3.613   6.427   9.148  0.0928 -0.1638  0.4488
   33POPC  C311 4484   3.671   6.262   9.024  0.2105  0.9090  0.7883
   33POPC  H11X 4485   3.587   6.200   9.060  0.1906 -0.1866 -1.0827
   33POPC  H11Y 4486   3.757   6.198   8.994  0.2609 -0.1173  3.0625
   33POPC  C312 4487   3.618   6.342   8.900  0.6460 -0.0586 -0.2102
   33POPC  H12X 4488   3.565   6.436   8.928 -1.1174 -1.5257  1.5940
   33POPC  H12Y 4489   3.555   6.268   8.845 -3.6765  2.6091  0.8725
   33POPC  C313 4490   3.732   6.387   8.810 -0.4648  0.2185  0.6005
   33POPC  H13X 4491   3.782   6.292   8.782  0.7428  0.7427  0.9201
   33POPC  H13Y 4492   3.798   6.458   8.865 -0.7411 -0.2255  1.5174
   33POPC  C314 4493   3.672   6.456   8.689  0.2650 -0.8199  0.1458
   33POPC  H14X 4494   3.641   6.562   8.701 -1.9271 -0.8710 -4.0079
   33POPC  H14Y 4495   3.583   6.398   8.656 -0.0372  0.9015 -2.2606
   33POPC  C315 4496   3.765   6.448   8.577  0.6011 -0.2071 -0.9863
   33POPC  H15X 4497   3.790   6.342   8.554 -0.8691 -0.5459 -1.0533
   33POPC  H15Y 4498   3.859   6.489   8.620 -0.6517 -0.7879  2.5149
   33POPC  C316 4499   3.724   6.523   8.446  0.5841  0.6329 -0.0936
   33POPC  H16X 4500   3.717   6.630   8.474 -1.8344 -0.0229  2.0222
   33POPC  H16Y 4501   3.624   6.489   8.414 -0.8429  3.0712  1.6301
   33POPC  H16Z 4502   3.806   6.502   8.374  0.5096  1.8031 -0.5165
   34POPC     N 4503   2.923   0.096  10.982  0.4041 -0.1797  0.0256
   34POPC   C12 4504   3.075   0.110  11.026 -0.5106  0.1780 -0.2552
   34POPC  H12A 4505   3.103   0.019  11.078 -1.3914 -0.1016 -0.2612
   34POPC  H12B 4506   3.074   0.190  11.098 -1.5521 -0.3043  0.2649
   34POPC   C13 4507   2.901   0.192  10.866 -0.2541 -0.2318  0.4228
   34POPC  H13A 4508   2.983   0.177  10.798  1.3367 -2.2168  2.7076
   34POPC  H13B 4509   2.804   0.167  10.824 -0.2023  1.8654 -1.0319
   34POPC  H13C 4510   2.892   0.296  10.894 -2.6706 -0.6359  1.2394
   34POPC   C14 4511   2.900  -0.051  10.937  0.2046  0.8383  0.4815
   34POPC  H14A 4512   2.955  -0.074  10.847 -0.2411  1.6185  0.0001
   34POPC  H14B 4513   2.938  -0.129  11.001 -0.1447  1.3239  1.2908
   34POPC  H14C 4514   2.795  -0.071  10.921  0.9152 -3.1267  0.2926
   34POPC   C15 4515   2.834   0.127  11.096 -0.0071  0.4237 -0.5982
   34POPC  H15A 4516   2.842   0.045  11.166  1.6291 -1.1657 -2.5992
   34POPC  H15B 4517   2.730   0.113  11.069 -0.0139  2.3140 -1.6280
   34POPC  H15C 4518   2.854   0.218  11.150 -1.9119 -0.3362  1.4682
   34POPC   C11 4519   3.189   0.133  10.923 -0.4292  0.0080 -0.0793
   34POPC  H11A 4520   3.289   0.149  10.968 -1.1130  0.4236  1.3183
   34POPC  H11B 4521   3.167   0.236  10.886  1.3600  0.3027 -0.3548
   34POPC     P 4522   3.284  -0.082  10.793 -0.0245 -0.0260  0.1967
   34POPC   O13 4523   3.207  -0.200  10.842 -0.1016 -0.4104 -0.5974
   34POPC   O14 4524   3.417  -0.054  10.857  0.4733  0.0164  0.5664
   34POPC   O12 4525   3.187   0.042  10.805 -0.4821 -0.2462 -0.6092
   34POPC   O11 4526   3.308  -0.101  10.636 -0.5540 -0.6176 -0.4156
   34POPC    C1 4527   3.196  -0.102  10.547  0.3280 -0.2709 -0.2340
   34POPC    HA 4528   3.105  -0.050  10.581 -0.4986 -2.0030  0.2883
   34POPC    HB 4529   3.164  -0.209  10.545 -0.1689 -0.1049 -1.2191
   34POPC    C2 4530   3.245  -0.073  10.406  0.8556 -0.5807  0.0904
   34POPC    HS 4531   3.169  -0.115  10.336 -0.9911 -0.8369  2.1688
   34POPC   O21 4532   3.387  -0.101  10.389 -0.1413 -0.2591 -0.5893
   34POPC   C21 4533   3.405  -0.223  10.340 -0.4407  0.1917 -0.6337
   34POPC   O22 4534   3.316  -0.305  10.327 -0.1739  0.2690  0.0325
   34POPC   C22 4535   3.552  -0.248  10.316 -0.0009 -0.1818  0.7516
   34POPC   H2R 4536   3.552  -0.354  10.281  1.0729  0.3343 -0.8708
   34POPC   H2S 4537   3.606  -0.239  10.412  1.0205 -1.0850  0.2834
   34POPC    C3 4538   3.243   0.081  10.390  0.3975  0.1256  0.4413
   34POPC    HX 4539   3.318   0.108  10.468  0.9720  0.0463 -0.0854
   34POPC    HY 4540   3.146   0.125  10.419 -0.4281  0.4625 -2.6669
   34POPC   O31 4541   3.263   0.114  10.256 -0.6996 -0.0832 -0.4938
   34POPC   C31 4542   3.369   0.188  10.226 -0.3522  1.1438 -0.3985
   34POPC   O32 4543   3.456   0.218  10.302 -0.2742  0.4013 -0.0046
   34POPC   C32 4544   3.362   0.222  10.078  0.5032  0.8055  0.0701
   34POPC   H2X 4545   3.443   0.173  10.019  0.0233  0.3406 -0.2077
   34POPC   H2Y 4546   3.363   0.332  10.060  1.2604  1.1553  2.1221
   34POPC   C23 4547   3.615  -0.163  10.205  0.4429 -0.1076 -0.0048
   34POPC   H3R 4548   3.723  -0.169  10.233  0.3115 -0.0939  0.5042
   34POPC   H3S 4549   3.591  -0.055  10.209  0.0834 -0.2326  1.5066
   34POPC   C24 4550   3.602  -0.219  10.063  0.2939 -0.5054 -0.2303
   34POPC   H4R 4551   3.628  -0.326  10.048 -1.3295 -1.1808  1.5245
   34POPC   H4S 4552   3.683  -0.161  10.013 -1.0016 -0.2752 -2.1123
   34POPC   C25 4553   3.467  -0.171  10.000 -0.0309 -0.4577 -0.6972
   34POPC   H5R 4554   3.445  -0.075  10.053  1.7823  0.2508 -1.1891
   34POPC   H5S 4555   3.395  -0.251  10.026 -1.1718  0.9797  0.6207
   34POPC   C26 4556   3.472  -0.142   9.849  0.0340  0.5607  0.3239
   34POPC   H6R 4557   3.515  -0.042   9.824  3.6291 -0.7600  1.0135
   34POPC   H6S 4558   3.369  -0.136   9.808 -0.5484 -2.2755  1.3295
   34POPC   C27 4559   3.539  -0.242   9.754 -0.2688  0.0196  0.0479
   34POPC   H7R 4560   3.646  -0.239   9.784 -0.4010 -3.7075  1.0809
   34POPC   H7S 4561   3.545  -0.197   9.653  0.3018  0.6226  0.3408
   34POPC   C28 4562   3.475  -0.378   9.745 -0.7502 -0.0198  0.2024
   34POPC   H8R 4563   3.498  -0.414   9.847  1.2581  1.0453  0.1356
   34POPC   H8S 4564   3.528  -0.452   9.681 -0.6611 -0.4611  0.7810
   34POPC   C29 4565   3.333  -0.387   9.712 -0.8004 -0.2436 -0.1331
   34POPC   H91 4566   3.264  -0.370   9.796  0.8158 -0.2994  1.2245
   34POPC  C210 4567   3.276  -0.417   9.592  0.7178  0.1542  0.2818
   34POPC  H101 4568   3.166  -0.427   9.594  0.8102 -0.6606  1.5142
   34POPC  C211 4569   3.356  -0.448   9.466 -0.0667  0.6141 -0.5982
   34POPC  H11R 4570   3.306  -0.510   9.389 -0.2750  2.3546 -1.8870
   34POPC  H11S 4571   3.449  -0.503   9.492  0.2895  1.6148  0.2936
   34POPC  C212 4572   3.411  -0.319   9.405 -0.2438  0.2010 -0.3214
   34POPC  H12R 4573   3.507  -0.334   9.353 -0.7783  0.8944 -1.5128
   34POPC  H12S 4574   3.439  -0.250   9.487  0.7081  0.3873 -0.8034
   34POPC  C213 4575   3.317  -0.240   9.314 -0.2996  0.1242 -0.0428
   34POPC  H13R 4576   3.267  -0.166   9.381  0.6890  0.8490 -0.0828
   34POPC  H13S 4577   3.244  -0.309   9.268  0.2244 -0.1980 -0.3935
   34POPC  C214 4578   3.391  -0.156   9.208 -0.5670 -0.4345  0.2260
   34POPC  H14R 4579   3.471  -0.213   9.156  2.3560  2.5061  1.2819
   34POPC  H14S 4580   3.441  -0.061   9.236 -0.1924 -0.8010  0.7999
   34POPC  C215 4581   3.297  -0.118   9.088 -0.0334  0.0907 -0.5820
   34POPC  H15R 4582   3.243  -0.025   9.117 -0.3528 -0.5407  0.9241
   34POPC  H15S 4583   3.226  -0.201   9.067 -1.4544  0.0242  3.8893
   34POPC  C216 4584   3.378  -0.102   8.958  0.2206  0.3630  0.5576
   34POPC  H16R 4585   3.411  -0.203   8.925  0.4345  1.0098 -1.2582
   34POPC  H16S 4586   3.471  -0.052   8.992  0.3240  2.0430 -2.0376
   34POPC  C217 4587   3.294  -0.032   8.852 -0.3191 -0.3091 -0.4703
   34POPC  H17R 4588   3.265   0.063   8.902 -1.0902 -1.9235  2.1863
   34POPC  H17S 4589   3.201  -0.092   8.838 -0.6385 -0.5522  2.3796
   34POPC  C218 4590   3.364  -0.013   8.718  0.2854 -0.1810  0.1611
   34POPC  H18R 4591   3.470   0.016   8.736  0.7308 -0.2947 -2.0715
   34POPC  H18S 4592   3.308   0.057   8.652 -2.7362 -2.7535 -0.1231
   34POPC  H18T 4593   3.371  -0.110   8.664  1.0295  0.0732 -0.2136
   34POPC   C33 4594   3.236   0.170  10.010  0.0141  0.2863  0.3663
   34POPC   H3X 4595   3.150   0.207  10.070 -0.7916 -2.0416  0.6952
   34POPC   H3Y 4596   3.231   0.059  10.012 -2.2997  0.3326 -0.8929
   34POPC   C34 4597   3.212   0.219   9.862 -1.0263 -0.4800  0.2548
   34POPC   H4X 4598   3.153   0.136   9.819  0.7981 -0.7924 -1.6985
   34POPC   H4Y 4599   3.307   0.217   9.805 -1.2391 -0.1211 -0.1100
   34POPC   C35 4600   3.139   0.355   9.847  0.4883  0.6322 -0.2750
   34POPC   H5X 4601   3.196   0.432   9.905  0.7047  0.7926 -0.6946
   34POPC   H5Y 4602   3.041   0.332   9.893  0.0511  0.8020 -1.1177
   34POPC   C36 4603   3.118   0.397   9.700 -0.1639 -0.0432  0.3402
   34POPC   H6X 4604   3.028   0.462   9.694 -1.2361 -1.3590  1.4859
   34POPC   H6Y 4605   3.083   0.309   9.641  1.1535 -0.5339  0.2714
   34POPC   C37 4606   3.240   0.454   9.642  0.3665  0.1115  0.2495
   34POPC   H7X 4607   3.317   0.374   9.649  1.0324  0.8211  1.1382
   34POPC   H7Y 4608   3.275   0.534   9.711 -1.5344  0.7169  0.5454
   34POPC   C38 4609   3.230   0.520   9.505  0.0319  0.1841  0.1446
   34POPC   H8X 4610   3.331   0.528   9.461 -0.8155 -0.5791 -2.0068
   34POPC   H8Y 4611   3.196   0.625   9.512 -0.6003 -0.0082  0.0131
   34POPC   C39 4612   3.145   0.432   9.406 -0.0306 -0.2754 -0.9798
   34POPC   H9X 4613   3.035   0.443   9.417  0.1208 -0.4573  0.8789
   34POPC   H9Y 4614   3.171   0.324   9.413  1.5179  0.1344  0.1272
   34POPC  C310 4615   3.178   0.457   9.256  0.0497  0.1207 -0.3101
   34POPC  H10X 4616   3.269   0.399   9.230 -0.0610  0.6253 -1.8359
   34POPC  H10Y 4617   3.201   0.564   9.244 -2.3816  0.8535  1.1401
   34POPC  C311 4618   3.064   0.420   9.164 -0.1415  0.3198 -0.1806
   34POPC  H11X 4619   2.964   0.451   9.202  0.0618  1.3005 -0.4377
   34POPC  H11Y 4620   3.050   0.310   9.163  1.3884  0.1120  0.1138
   34POPC  C312 4621   3.088   0.475   9.029  0.0313 -0.6916 -0.1618
   34POPC  H12X 4622   3.177   0.426   8.983  0.0830  1.6125 -2.6514
   34POPC  H12Y 4623   3.098   0.583   9.008  1.2525 -0.7155  0.2523
   34POPC  C313 4624   2.983   0.427   8.926 -1.0406  0.9119  0.0030
   34POPC  H13X 4625   2.913   0.510   8.901  0.5242  1.6780 -1.9801
   34POPC  H13Y 4626   2.926   0.348   8.979 -2.1905  1.2827 -0.6599
   34POPC  C314 4627   3.041   0.381   8.794 -0.3079 -0.8285 -0.1525
   34POPC  H14X 4628   3.124   0.308   8.807  0.5764 -0.2813 -2.4665
   34POPC  H14Y 4629   3.082   0.470   8.742  0.5911  0.1073  2.0679
   34POPC  C315 4630   2.930   0.320   8.705  0.2134 -0.2052 -0.2675
   34POPC  H15X 4631   2.878   0.240   8.762 -1.0387  1.4536  1.0038
   34POPC  H15Y 4632   2.979   0.278   8.615  0.3044  1.0082 -0.7948
   34POPC  C316 4633   2.814   0.416   8.658 -0.1792 -0.1794 -0.5780
   34POPC  H16X 4634   2.854   0.503   8.602  1.5047  0.3547  1.4081
   34POPC  H16Y 4635   2.749   0.466   8.733 -2.1731 -0.6845 -1.9183
   34POPC  H16Z 4636   2.746   0.356   8.594 -1.1062 -0.8660  1.0284
   35POPC     N 4637   2.480   3.695  11.122  0.1353 -1.1517  0.2672
   35POPC   C12 4638   2.412   3.817  11.185  0.6284  0.4086  0.4889
   35POPC  H12A 4639   2.488   3.877  11.231 -0.2749  1.5797  0.4644
   35POPC  H12B 4640   2.344   3.790  11.265 -2.7436 -1.3639 -2.7756
   35POPC   C13 4641   2.537   3.614  11.227  0.0991  0.4831 -0.3254
   35POPC  H13A 4642   2.471   3.572  11.302  2.1127 -0.0033  1.2472
   35POPC  H13B 4643   2.577   3.527  11.177 -0.1264  0.0853  0.1821
   35POPC  H13C 4644   2.606   3.674  11.285 -1.1212 -1.1005  2.9409
   35POPC   C14 4645   2.370   3.610  11.059 -0.6137 -0.4303  1.0493
   35POPC  H14A 4646   2.293   3.579  11.128 -0.4423  0.9077  1.8741
   35POPC  H14B 4647   2.314   3.659  10.980  0.3210 -1.5354 -0.3082
   35POPC  H14C 4648   2.405   3.512  11.031 -2.4482 -0.6835 -0.4302
   35POPC   C15 4649   2.579   3.729  11.020  0.4512  0.4651  0.1284
   35POPC  H15A 4650   2.606   3.639  10.967  3.0437  1.4894 -0.3803
   35POPC  H15B 4651   2.669   3.782  11.047 -0.0765  1.3955  0.0798
   35POPC  H15C 4652   2.519   3.782  10.947 -0.4226 -0.1714  0.3796
   35POPC   C11 4653   2.336   3.910  11.094  0.7994 -0.0593 -0.2705
   35POPC  H11A 4654   2.248   3.861  11.047  0.5090 -0.9987  1.1847
   35POPC  H11B 4655   2.407   3.933  11.012 -1.4399  0.1603 -2.1890
   35POPC     P 4656   2.391   4.137  11.199 -0.0193  0.3409 -0.2475
   35POPC   O13 4657   2.477   4.075  11.299 -0.4835 -0.0673 -0.2041
   35POPC   O14 4658   2.314   4.254  11.253 -0.1003 -0.1607 -0.2617
   35POPC   O12 4659   2.287   4.028  11.154 -0.5443  0.0906 -0.2736
   35POPC   O11 4660   2.469   4.175  11.067  0.9087 -0.6476 -0.0710
   35POPC    C1 4661   2.431   4.280  10.980 -0.1065 -0.3165  0.0885
   35POPC    HA 4662   2.503   4.363  10.991 -0.7988 -0.0065  2.7058
   35POPC    HB 4663   2.331   4.322  11.004 -0.0835 -0.0876 -0.2116
   35POPC    C2 4664   2.430   4.230  10.838 -0.7885  0.0924  0.7303
   35POPC    HS 4665   2.359   4.145  10.845  3.4549 -3.8456 -0.9066
   35POPC   O21 4666   2.564   4.179  10.807 -0.2024 -0.3345  0.1899
   35POPC   C21 4667   2.568   4.058  10.756 -0.6087 -0.2093  0.0203
   35POPC   O22 4668   2.481   3.972  10.762  0.1216  0.0937  0.5785
   35POPC   C22 4669   2.715   4.035  10.721 -0.3462  0.7313 -0.3995
   35POPC   H2R 4670   2.718   3.931  10.681  1.8401  0.5606  0.1235
   35POPC   H2S 4671   2.780   4.041  10.811 -0.2394 -2.4913 -0.2033
   35POPC    C3 4672   2.390   4.337  10.730 -0.3055 -0.1065  0.4792
   35POPC    HX 4673   2.448   4.429  10.747 -1.4653  0.9821 -1.2922
   35POPC    HY 4674   2.284   4.368  10.740 -1.1005 -1.2539 -3.2865
   35POPC   O31 4675   2.415   4.288  10.593  0.0607  0.2231 -0.5406
   35POPC   C31 4676   2.316   4.217  10.536  0.6837 -0.4108  0.2016
   35POPC   O32 4677   2.210   4.184  10.580  0.1714 -0.4429 -0.4660
   35POPC   C32 4678   2.367   4.156  10.405 -0.3388  0.0354  0.2700
   35POPC   H2X 4679   2.391   4.050  10.426 -0.7423 -0.1205 -0.0514
   35POPC   H2Y 4680   2.448   4.218  10.362 -1.6466 -0.1022 -2.4445
   35POPC   C23 4681   2.761   4.129  10.608  0.2775  0.6591 -0.0850
   35POPC   H3R 4682   2.870   4.145  10.609 -0.0077  3.0785 -2.9309
   35POPC   H3S 4683   2.711   4.226  10.634  1.0217  0.9873  0.1232
   35POPC   C24 4684   2.710   4.093  10.469  0.9046 -0.4786 -0.3079
   35POPC   H4R 4685   2.602   4.068  10.471  1.3527 -2.4582 -0.1549
   35POPC   H4S 4686   2.761   4.003  10.430  1.7737  0.9033 -2.4571
   35POPC   C25 4687   2.751   4.195  10.352  0.1614  0.2802 -0.0533
   35POPC   H5R 4688   2.858   4.224  10.349  0.4965 -0.7683  1.6807
   35POPC   H5S 4689   2.693   4.288  10.375  1.3053  1.1675 -0.7077
   35POPC   C26 4690   2.711   4.134  10.213 -0.4105 -0.2109  0.3691
   35POPC   H6R 4691   2.603   4.109  10.217 -0.7359  0.3831 -3.1754
   35POPC   H6S 4692   2.779   4.047  10.200 -0.8371 -0.5805  0.6296
   35POPC   C27 4693   2.724   4.228  10.086 -0.5745  0.1902 -0.0117
   35POPC   H7R 4694   2.829   4.264  10.077 -0.2579 -0.4916  0.8453
   35POPC   H7S 4695   2.669   4.322  10.109  0.6076  1.2716 -1.5136
   35POPC   C28 4696   2.680   4.159   9.964 -0.2018 -0.0201  0.6658
   35POPC   H8R 4697   2.670   4.248   9.898  1.0189  1.3097  2.2381
   35POPC   H8S 4698   2.575   4.123   9.954  0.4116 -1.8215  0.5054
   35POPC   C29 4699   2.784   4.069   9.913  0.4321  0.2709 -0.7046
   35POPC   H91 4700   2.782   3.974   9.968  0.4888 -0.3845 -1.7966
   35POPC  C210 4701   2.881   4.073   9.823 -0.2741 -0.7850  1.3736
   35POPC  H101 4702   2.952   3.989   9.814  0.4140  0.0202 -1.2512
   35POPC  C211 4703   2.909   4.193   9.730  0.2733 -0.1001 -1.2836
   35POPC  H11R 4704   3.004   4.241   9.763 -2.0046  3.4515  0.3822
   35POPC  H11S 4705   2.829   4.268   9.746 -0.4777 -1.0586 -0.5205
   35POPC  C212 4706   2.928   4.142   9.586 -0.0657  0.2281 -1.1330
   35POPC  H12R 4707   2.835   4.091   9.551  1.4422 -2.2129 -1.6906
   35POPC  H12S 4708   3.007   4.064   9.587  0.3993  0.6940  1.3243
   35POPC  C213 4709   2.971   4.260   9.494  0.5263 -0.1846 -0.3075
   35POPC  H13R 4710   3.072   4.293   9.527  1.8006 -0.7599 -3.3779
   35POPC  H13S 4711   2.908   4.344   9.531 -0.5885 -1.4354  0.6412
   35POPC  C214 4712   2.966   4.245   9.346 -1.2303 -0.1554 -0.1055
   35POPC  H14R 4713   3.024   4.332   9.311 -2.7884 -0.2357 -3.0343
   35POPC  H14S 4714   2.865   4.247   9.300 -1.6301 -1.6676  0.6448
   35POPC  C215 4715   3.042   4.118   9.294 -0.0105  0.0251  0.1920
   35POPC  H15R 4716   2.993   4.020   9.316  2.5842 -1.2118  0.6886
   35POPC  H15S 4717   3.143   4.118   9.340  0.7881 -0.6023 -1.5082
   35POPC  C216 4718   3.031   4.118   9.135 -0.1024  0.6309  0.0636
   35POPC  H16R 4719   3.076   4.213   9.100  0.4836  0.5639  0.6260
   35POPC  H16S 4720   2.923   4.118   9.109 -0.4636 -1.3021  1.4365
   35POPC  C217 4721   3.114   4.010   9.069  0.5768  0.1307  0.2391
   35POPC  H17R 4722   3.068   3.912   9.091  1.4800 -0.1482  0.9247
   35POPC  H17S 4723   3.215   4.024   9.114  0.3111  0.7371  0.6673
   35POPC  C218 4724   3.126   4.013   8.921  0.6264  0.3042 -0.2313
   35POPC  H18R 4725   3.037   3.969   8.871  0.0688 -0.2903  1.2426
   35POPC  H18S 4726   3.215   3.953   8.893  0.7480  0.3592  0.0370
   35POPC  H18T 4727   3.128   4.114   8.875  2.2495  0.9674  1.2484
   35POPC   C33 4728   2.260   4.150  10.294  0.0045  0.0653 -0.4769
   35POPC   H3X 4729   2.208   4.247  10.284  0.4471  0.2971 -0.5711
   35POPC   H3Y 4730   2.186   4.082  10.342 -0.7828  0.2095 -1.4676
   35POPC   C34 4731   2.311   4.101  10.158  0.0436 -1.1346 -0.1170
   35POPC   H4X 4732   2.377   4.014  10.180  0.3047 -0.6854  0.8901
   35POPC   H4Y 4733   2.360   4.183  10.101 -2.3940  0.6531  0.2989
   35POPC   C35 4734   2.193   4.053  10.077 -0.5188  0.1918 -0.9303
   35POPC   H5X 4735   2.130   4.137  10.041  0.7684  1.0066 -1.3398
   35POPC   H5Y 4736   2.130   3.984  10.137 -0.4288  1.3939  0.5649
   35POPC   C36 4737   2.236   3.987   9.947  0.3981  0.1024  0.5505
   35POPC   H6X 4738   2.155   3.926   9.900 -0.4290  1.4876  0.1319
   35POPC   H6Y 4739   2.318   3.916   9.968 -0.3317 -0.4086  1.6975
   35POPC   C37 4740   2.277   4.083   9.846  0.0374 -0.2409  0.8586
   35POPC   H7X 4741   2.334   4.160   9.901  0.2496  0.5931 -0.5037
   35POPC   H7Y 4742   2.194   4.139   9.797 -0.7941 -1.4174  0.8848
   35POPC   C38 4743   2.370   4.015   9.753 -0.0732 -1.0896  0.4294
   35POPC   H8X 4744   2.325   3.923   9.710 -1.2427 -0.2305 -0.2329
   35POPC   H8Y 4745   2.462   3.979   9.803  0.6395 -1.4419 -1.0914
   35POPC   C39 4746   2.413   4.099   9.630  0.6816 -1.1032 -0.4554
   35POPC   H9X 4747   2.471   4.187   9.665 -2.0841  0.8977 -0.6896
   35POPC   H9Y 4748   2.318   4.141   9.590  1.1042  0.8144  0.4953
   35POPC  C310 4749   2.492   4.010   9.532 -0.7791 -0.1795 -0.2106
   35POPC  H10X 4750   2.427   3.922   9.511 -1.1824  0.6624 -2.6503
   35POPC  H10Y 4751   2.583   3.968   9.579 -2.1334 -2.9520  0.0523
   35POPC  C311 4752   2.523   4.090   9.412 -0.1743  0.4675 -0.0771
   35POPC  H11X 4753   2.574   4.184   9.440 -0.9376  1.1941 -1.0843
   35POPC  H11Y 4754   2.421   4.111   9.373 -0.4924  0.3255  0.6665
   35POPC  C312 4755   2.621   4.024   9.321  1.1181 -0.0680 -0.5224
   35POPC  H12X 4756   2.721   4.020   9.369  1.7517 -3.9445 -1.9960
   35POPC  H12Y 4757   2.625   4.093   9.234 -1.0781 -0.5450 -1.0368
   35POPC  C313 4758   2.570   3.900   9.253 -0.2097  1.4290  0.5396
   35POPC  H13X 4759   2.547   3.820   9.326 -0.8249 -1.4658 -2.7184
   35POPC  H13Y 4760   2.654   3.863   9.190 -0.2707 -0.2332  1.4213
   35POPC  C314 4761   2.448   3.917   9.172  0.5185  0.0093  0.1748
   35POPC  H14X 4762   2.470   4.005   9.108  2.7278  0.1497  1.0902
   35POPC  H14Y 4763   2.365   3.949   9.239 -0.1220  0.8951 -1.0122
   35POPC  C315 4764   2.392   3.792   9.097 -0.3406 -0.0389  0.1151
   35POPC  H15X 4765   2.294   3.825   9.057 -0.6675 -0.8167  0.2597
   35POPC  H15Y 4766   2.356   3.720   9.174  0.9451 -0.2158  0.5709
   35POPC  C316 4767   2.493   3.734   9.003 -0.1288  0.3757  0.4088
   35POPC  H16X 4768   2.582   3.698   9.059  0.8840 -0.8163 -1.8964
   35POPC  H16Y 4769   2.524   3.804   8.922 -0.8830 -2.2716 -2.2389
   35POPC  H16Z 4770   2.450   3.653   8.941  1.8905 -0.3519 -0.0982
   36POPC     N 4771   2.728   2.097  11.133 -0.4742 -1.0742  0.7441
   36POPC   C12 4772   2.733   2.127  10.983  0.0882  0.1985 -0.4590
   36POPC  H12A 4773   2.809   2.071  10.930 -0.3697  0.8594 -1.8494
   36POPC  H12B 4774   2.773   2.226  10.965 -0.1705  0.5004  0.6075
   36POPC   C13 4775   2.720   1.951  11.164 -0.0110 -0.8464  0.5040
   36POPC  H13A 4776   2.628   1.910  11.126 -0.8148  1.6842 -0.3696
   36POPC  H13B 4777   2.805   1.895  11.128 -0.3435 -0.9882 -0.0608
   36POPC  H13C 4778   2.718   1.929  11.270 -0.0832 -1.7104  0.3270
   36POPC   C14 4779   2.858   2.153  11.198  0.7090 -0.9315  0.4863
   36POPC  H14A 4780   2.940   2.111  11.143  1.0194  1.7492 -1.1806
   36POPC  H14B 4781   2.861   2.261  11.199  2.9054 -0.8342 -4.2550
   36POPC  H14C 4782   2.859   2.123  11.302 -3.9845 -0.6295  0.7282
   36POPC   C15 4783   2.614   2.161  11.200  0.6295  0.6175 -0.7837
   36POPC  H15A 4784   2.524   2.107  11.174  0.7041 -0.5321  1.2833
   36POPC  H15B 4785   2.606   2.265  11.174  0.6114  0.1410 -2.8200
   36POPC  H15C 4786   2.628   2.146  11.306 -0.4066 -0.6162 -0.8125
   36POPC   C11 4787   2.590   2.116  10.915 -0.0010  0.0091  0.0815
   36POPC  H11A 4788   2.543   2.018  10.936 -1.3241  0.8057  0.9484
   36POPC  H11B 4789   2.608   2.107  10.805 -1.6157 -0.7505 -0.1356
   36POPC     P 4790   2.537   2.378  10.944  0.0606  0.2580  0.3354
   36POPC   O13 4791   2.671   2.402  10.896  0.3908 -0.2953  0.1102
   36POPC   O14 4792   2.509   2.434  11.079  0.3103  0.3574 -0.4254
   36POPC   O12 4793   2.500   2.228  10.946  0.1167  0.2028  0.2392
   36POPC   O11 4794   2.422   2.435  10.854 -0.3786  0.1297  0.6542
   36POPC    C1 4795   2.342   2.351  10.772 -0.0914 -0.3480 -0.2418
   36POPC    HA 4796   2.239   2.391  10.784  0.7095  1.0327  2.5368
   36POPC    HB 4797   2.334   2.244  10.801 -2.3680 -0.6364 -1.8784
   36POPC    C2 4798   2.391   2.341  10.627 -0.4995  0.0306  0.6146
   36POPC    HS 4799   2.477   2.270  10.632 -1.3059 -0.8574  2.8928
   36POPC   O21 4800   2.435   2.478  10.586  0.6994  0.0321  1.1869
   36POPC   C21 4801   2.520   2.470  10.483  0.2508  0.3843  0.4966
   36POPC   O22 4802   2.563   2.374  10.428 -0.0705  0.0868  0.7766
   36POPC   C22 4803   2.560   2.615  10.454  0.0734  0.4636  0.7416
   36POPC   H2R 4804   2.595   2.649  10.554 -0.5169 -0.0290  1.1171
   36POPC   H2S 4805   2.469   2.673  10.427 -1.1443 -2.2861 -1.3270
   36POPC    C3 4806   2.281   2.292  10.529  0.2026  0.1347  0.3235
   36POPC    HX 4807   2.274   2.181  10.540 -0.3519  0.2270  0.9732
   36POPC    HY 4808   2.321   2.307  10.426 -1.4160 -1.2438 -0.5399
   36POPC   O31 4809   2.160   2.358  10.541  0.3133 -0.8134  0.3359
   36POPC   C31 4810   2.068   2.309  10.459 -0.5027 -0.1980 -0.2259
   36POPC   O32 4811   2.092   2.222  10.373 -0.4479  0.3639  0.3728
   36POPC   C32 4812   1.936   2.373  10.487 -0.1363  0.6954 -0.1101
   36POPC   H2X 4813   1.947   2.483  10.497  0.1151  0.9231 -2.6090
   36POPC   H2Y 4814   1.899   2.337  10.586  1.1534 -0.8697 -0.1894
   36POPC   C23 4815   2.685   2.636  10.371 -0.1855 -0.4205  0.7645
   36POPC   H3R 4816   2.693   2.742  10.339 -0.3975 -0.1073  1.7060
   36POPC   H3S 4817   2.668   2.572  10.282  1.8757  1.6281 -1.1493
   36POPC   C24 4818   2.816   2.587  10.438 -0.2469  0.0179  0.3308
   36POPC   H4R 4819   2.816   2.476  10.436 -1.3664  0.0229 -0.1106
   36POPC   H4S 4820   2.810   2.620  10.544  1.4585  2.7263 -0.3705
   36POPC   C25 4821   2.945   2.623  10.359 -0.4996 -0.0614  0.9880
   36POPC   H5R 4822   3.026   2.562  10.405 -1.7840 -1.3841  1.5104
   36POPC   H5S 4823   2.972   2.731  10.369  0.7624 -0.4372  1.7130
   36POPC   C26 4824   2.948   2.569  10.212  0.5121 -0.8285 -0.0918
   36POPC   H6R 4825   2.888   2.477  10.199 -0.4792 -0.4164  1.4053
   36POPC   H6S 4826   3.057   2.560  10.193  0.3756 -1.1366 -0.7243
   36POPC   C27 4827   2.899   2.673  10.111 -0.8998 -0.0392 -0.7780
   36POPC   H7R 4828   2.971   2.757  10.113 -1.8556  0.7573  1.0998
   36POPC   H7S 4829   2.808   2.720  10.153  1.3001  1.6930  2.2059
   36POPC   C28 4830   2.888   2.625   9.963 -0.2787  0.0614  0.6263
   36POPC   H8R 4831   2.864   2.717   9.906  0.7588  0.4854  0.8759
   36POPC   H8S 4832   2.801   2.556   9.946 -0.2215  0.3041 -0.7344
   36POPC   C29 4833   3.001   2.541   9.906 -0.1810 -0.1980  0.1726
   36POPC   H91 4834   3.004   2.445   9.959  0.8127 -0.7766 -0.9163
   36POPC  C210 4835   3.089   2.582   9.809 -0.0706 -0.4868 -0.3074
   36POPC  H101 4836   3.176   2.518   9.789  0.0403 -0.4220 -0.0299
   36POPC  C211 4837   3.094   2.720   9.739  0.0398  0.7032  0.0109
   36POPC  H11R 4838   3.087   2.796   9.820  0.3434  1.9044 -1.0787
   36POPC  H11S 4839   3.015   2.725   9.662  0.8777 -0.1111 -0.9225
   36POPC  C212 4840   3.230   2.740   9.678 -0.7266 -0.1034 -0.2996
   36POPC  H12R 4841   3.308   2.753   9.756 -1.0206 -1.2231  0.1927
   36POPC  H12S 4842   3.227   2.844   9.641  1.8186  0.0741 -0.0796
   36POPC  C213 4843   3.283   2.636   9.581 -0.0344  0.1224  0.1125
   36POPC  H13R 4844   3.214   2.640   9.494 -0.4181  3.0654  0.4961
   36POPC  H13S 4845   3.288   2.533   9.621 -0.8055  0.0333 -0.0031
   36POPC  C214 4846   3.423   2.684   9.535 -0.3154  0.0503 -0.4490
   36POPC  H14R 4847   3.481   2.735   9.614 -0.6273 -0.1524 -0.0875
   36POPC  H14S 4848   3.388   2.764   9.466  0.7490 -0.5543 -1.7172
   36POPC  C215 4849   3.505   2.574   9.465  0.5569  0.0304  1.0715
   36POPC  H15R 4850   3.586   2.620   9.405 -0.8315  2.1610  0.7912
   36POPC  H15S 4851   3.433   2.528   9.394 -0.4985 -0.9060  2.7185
   36POPC  C216 4852   3.567   2.467   9.546 -0.0749 -0.5356 -0.9199
   36POPC  H16R 4853   3.506   2.386   9.592  1.3143 -0.5706  0.8978
   36POPC  H16S 4854   3.635   2.516   9.618  1.2346 -0.8586 -1.9134
   36POPC  C217 4855   3.649   2.373   9.459  0.6176 -0.0769  0.3475
   36POPC  H17R 4856   3.734   2.430   9.416  2.6189 -1.7391  1.9502
   36POPC  H17S 4857   3.581   2.337   9.379 -0.6228 -0.3071  1.4764
   36POPC  C218 4858   3.705   2.259   9.539  0.7129  0.2658  0.9134
   36POPC  H18R 4859   3.741   2.178   9.472 -0.1990  0.7440 -0.1772
   36POPC  H18S 4860   3.618   2.217   9.594  1.2942  0.1813  1.7765
   36POPC  H18T 4861   3.783   2.289   9.613 -0.8556 -0.3714  2.8661
   36POPC   C33 4862   1.824   2.327  10.388 -0.0780 -0.2411  0.0190
   36POPC   H3X 4863   1.724   2.361  10.424  0.8037  2.0047  0.4446
   36POPC   H3Y 4864   1.820   2.218  10.367  0.6731 -0.2752  0.0572
   36POPC   C34 4865   1.852   2.395  10.253  0.2399 -0.4219  0.2615
   36POPC   H4X 4866   1.954   2.369  10.217  0.2903 -1.8808  1.4050
   36POPC   H4Y 4867   1.842   2.505  10.250  0.9951 -0.3510  0.2171
   36POPC   C35 4868   1.757   2.338  10.150  0.6099 -0.3138 -0.5924
   36POPC   H5X 4869   1.652   2.370  10.168  1.5150  1.0568  2.7068
   36POPC   H5Y 4870   1.754   2.229  10.167  1.0021 -0.3239 -0.5944
   36POPC   C36 4871   1.793   2.372  10.006 -0.6883  0.1906  0.2947
   36POPC   H6X 4872   1.721   2.324   9.936  1.8644 -0.1341 -2.2301
   36POPC   H6Y 4873   1.896   2.335   9.988 -0.8537  0.3134 -1.0004
   36POPC   C37 4874   1.806   2.522   9.970 -0.2798 -0.4871  0.5844
   36POPC   H7X 4875   1.872   2.572  10.043 -0.7542 -1.5442  1.7471
   36POPC   H7Y 4876   1.707   2.572   9.981 -0.8244 -1.2770 -0.5166
   36POPC   C38 4877   1.874   2.543   9.829  0.7376 -0.3898 -0.0950
   36POPC   H8X 4878   1.981   2.514   9.826  0.8934  0.2785 -1.5024
   36POPC   H8Y 4879   1.874   2.652   9.809  0.8503 -0.3365  0.1841
   36POPC   C39 4880   1.818   2.473   9.709 -0.2053  0.2110 -0.2921
   36POPC   H9X 4881   1.710   2.488   9.690  0.1709 -0.2217 -2.9413
   36POPC   H9Y 4882   1.823   2.362   9.713 -1.8314  0.1383  0.0434
   36POPC  C310 4883   1.881   2.522   9.576  0.8708  0.3438  0.4814
   36POPC  H10X 4884   1.867   2.632   9.563  1.0985  0.1095 -1.9881
   36POPC  H10Y 4885   1.832   2.474   9.489 -3.7995  2.2124  1.9394
   36POPC  C311 4886   2.031   2.497   9.559 -0.4369  0.2363  1.2486
   36POPC  H11X 4887   2.066   2.393   9.577  2.4533  0.8686 -0.4855
   36POPC  H11Y 4888   2.078   2.565   9.633  0.4701 -0.4819  1.3393
   36POPC  C312 4889   2.077   2.538   9.418 -0.1488 -0.1054  0.2387
   36POPC  H12X 4890   2.183   2.512   9.398  0.1663  0.9646  0.4878
   36POPC  H12Y 4891   2.070   2.648   9.400 -0.9512  0.1477  1.9908
   36POPC  C313 4892   1.995   2.469   9.310 -0.4949  0.3744 -0.1057
   36POPC  H13X 4893   1.900   2.524   9.294 -0.9999 -1.0020 -2.1450
   36POPC  H13Y 4894   1.973   2.367   9.349 -0.3536 -0.5993 -2.4355
   36POPC  C314 4895   2.054   2.452   9.162  0.2256 -0.0252 -0.3924
   36POPC  H14X 4896   1.974   2.401   9.104  0.1466  0.6169 -0.8446
   36POPC  H14Y 4897   2.138   2.380   9.165 -0.2364 -0.5383  0.6428
   36POPC  C315 4898   2.103   2.579   9.105  0.2567 -0.8820  0.5238
   36POPC  H15X 4899   2.051   2.670   9.142  0.1432 -0.8414  0.2632
   36POPC  H15Y 4900   2.094   2.577   8.995 -0.6561 -1.4146  0.6004
   36POPC  C316 4901   2.257   2.606   9.111 -0.5219  0.1254  0.4585
   36POPC  H16X 4902   2.283   2.641   9.213  0.7120  0.1387  0.1424
   36POPC  H16Y 4903   2.295   2.688   9.046  1.1219 -0.6246  0.4397
   36POPC  H16Z 4904   2.325   2.520   9.093 -2.1351 -1.4741  1.8564
   37POPC     N 4905   1.324   4.611   6.395  0.5140 -0.4675 -0.0708
   37POPC   C12 4906   1.400   4.538   6.508 -0.8859 -0.5716 -0.1321
   37POPC  H12A 4907   1.501   4.575   6.497 -0.7510  0.2770  3.2455
   37POPC  H12B 4908   1.400   4.432   6.490 -1.1335 -0.6901  0.5395
   37POPC   C13 4909   1.354   4.761   6.400  0.6420  0.3598  0.0837
   37POPC  H13A 4910   1.337   4.804   6.498 -0.4296 -1.4121  0.6962
   37POPC  H13B 4911   1.458   4.781   6.379  0.5689  1.3759  0.6706
   37POPC  H13C 4912   1.301   4.811   6.321  0.8719 -0.9030 -0.8831
   37POPC   C14 4913   1.389   4.571   6.263 -1.1810 -0.2924  0.1625
   37POPC  H14A 4914   1.371   4.466   6.245 -1.5977  0.0371 -1.4222
   37POPC  H14B 4915   1.335   4.621   6.184 -0.6600  1.0835  0.6626
   37POPC  H14C 4916   1.494   4.592   6.268 -1.3439 -0.0768  3.4122
   37POPC   C15 4917   1.178   4.587   6.406  0.3910  0.5548  0.3854
   37POPC  H15A 4918   1.123   4.644   6.332  0.2066 -2.0041 -1.5214
   37POPC  H15B 4919   1.135   4.616   6.501 -0.9471 -0.1823  0.0300
   37POPC  H15C 4920   1.157   4.482   6.388  0.0721  0.2884  2.1464
   37POPC   C11 4921   1.358   4.568   6.664  0.5706 -0.4592 -0.4147
   37POPC  H11A 4922   1.419   4.502   6.729 -1.0295 -1.5324  0.0316
   37POPC  H11B 4923   1.251   4.540   6.673  0.5799 -0.0197  1.2594
   37POPC     P 4924   1.525   4.758   6.728 -0.0837 -0.2674  0.3148
   37POPC   O13 4925   1.535   4.904   6.767  0.0930  0.1727  0.3048
   37POPC   O14 4926   1.625   4.701   6.638 -0.0663 -0.1381  0.2242
   37POPC   O12 4927   1.374   4.713   6.691 -0.4089  0.1790  0.0863
   37POPC   O11 4928   1.544   4.674   6.861  0.1978  0.5475 -0.0147
   37POPC    C1 4929   1.449   4.667   6.967 -0.2125 -0.3124  0.2461
   37POPC    HA 4930   1.402   4.567   6.967 -1.2307  0.1421 -1.3858
   37POPC    HB 4931   1.386   4.758   6.975 -0.3884 -0.2854 -1.2635
   37POPC    C2 4932   1.520   4.651   7.098 -0.1475  0.1716  0.3048
   37POPC    HS 4933   1.574   4.554   7.094  0.9090  0.5916  3.1370
   37POPC   O21 4934   1.421   4.666   7.206 -0.0915 -0.7762 -0.2496
   37POPC   C21 4935   1.448   4.599   7.312  0.6565 -0.0455 -0.6505
   37POPC   O22 4936   1.555   4.542   7.340  0.7742  0.4672  0.1531
   37POPC   C22 4937   1.338   4.606   7.418 -0.0102 -0.1940  0.0886
   37POPC   H2R 4938   1.234   4.603   7.379  0.4428  0.5222 -1.2094
   37POPC   H2S 4939   1.359   4.697   7.479  2.3344 -1.9528  1.9876
   37POPC    C3 4940   1.618   4.777   7.104  0.7058  0.4903  0.4033
   37POPC    HX 4941   1.563   4.860   7.153 -2.0315 -0.3275 -1.1663
   37POPC    HY 4942   1.653   4.797   7.001 -0.7661  0.0245 -0.1993
   37POPC   O31 4943   1.730   4.734   7.185 -0.2423  0.4537  0.2923
   37POPC   C31 4944   1.822   4.820   7.213  0.1602  0.4449 -0.1142
   37POPC   O32 4945   1.811   4.939   7.184 -0.7419 -0.2817 -0.5418
   37POPC   C32 4946   1.952   4.757   7.262 -0.1931  0.5821  0.4872
   37POPC   H2X 4947   1.999   4.705   7.176 -0.2660  1.0944  0.1401
   37POPC   H2Y 4948   1.927   4.683   7.342  0.0821  3.1563  3.0447
   37POPC   C23 4949   1.359   4.482   7.513 -0.1925 -0.1324 -0.1365
   37POPC   H3R 4950   1.467   4.480   7.542  0.2389  0.4869 -1.6451
   37POPC   H3S 4951   1.343   4.387   7.459  0.7800  0.7101 -1.9701
   37POPC   C24 4952   1.267   4.483   7.637  0.6933 -0.1810  0.2143
   37POPC   H4R 4953   1.160   4.485   7.605  0.7542 -3.2956 -0.3074
   37POPC   H4S 4954   1.279   4.585   7.680  0.7166 -0.5739  1.1354
   37POPC   C25 4955   1.281   4.377   7.741 -0.2113 -0.9536  0.4214
   37POPC   H5R 4956   1.269   4.424   7.841 -1.5350  0.6039 -0.4280
   37POPC   H5S 4957   1.388   4.349   7.727  0.1463  0.8053 -0.5222
   37POPC   C26 4958   1.169   4.274   7.736 -0.0054  0.6294  0.5969
   37POPC   H6R 4959   1.192   4.205   7.652  0.4602  0.9366  0.4673
   37POPC   H6S 4960   1.078   4.335   7.724 -1.0757 -0.7750  1.4065
   37POPC   C27 4961   1.156   4.195   7.866 -0.0023 -0.1567  0.2864
   37POPC   H7R 4962   1.158   4.264   7.953  1.0194  1.2308 -0.8132
   37POPC   H7S 4963   1.245   4.131   7.886 -0.8050 -1.3226  0.1859
   37POPC   C28 4964   1.027   4.106   7.871 -0.3064 -0.3372  0.0650
   37POPC   H8R 4965   1.058   4.010   7.918  1.0166 -0.5072 -1.1405
   37POPC   H8S 4966   0.997   4.092   7.765  1.3375 -0.5855 -0.3771
   37POPC   C29 4967   0.917   4.170   7.953 -0.4155 -0.4526  0.5983
   37POPC   H91 4968   0.849   4.236   7.897  0.0369 -1.0680 -0.7144
   37POPC  C210 4969   0.895   4.150   8.079 -0.3392  1.1214 -0.3893
   37POPC  H101 4970   0.810   4.206   8.121  0.2522  1.0379  0.9752
   37POPC  C211 4971   0.987   4.077   8.170 -0.1291  0.4063 -0.3502
   37POPC  H11R 4972   1.080   4.036   8.125  0.0054  1.0857 -0.6962
   37POPC  H11S 4973   0.941   3.984   8.211 -0.9886  0.2902 -1.5571
   37POPC  C212 4974   1.026   4.163   8.288  0.1749  0.1949 -0.4598
   37POPC  H12R 4975   1.074   4.261   8.271 -0.5908  0.5552 -0.5844
   37POPC  H12S 4976   1.093   4.102   8.353 -0.9533 -1.6962 -1.0273
   37POPC  C213 4977   0.913   4.203   8.382 -0.7141 -0.3470  0.2223
   37POPC  H13R 4978   0.828   4.133   8.393  0.0510 -1.4116 -0.6138
   37POPC  H13S 4979   0.869   4.291   8.329  1.7424 -0.0806 -1.4575
   37POPC  C214 4980   0.954   4.234   8.525  0.3241  0.1951 -0.5709
   37POPC  H14R 4981   0.880   4.295   8.582 -0.4432 -2.6654  1.6001
   37POPC  H14S 4982   1.048   4.292   8.517  0.7344 -0.4355 -0.2928
   37POPC  C215 4983   0.977   4.108   8.619  0.2263  0.0895 -1.1828
   37POPC  H15R 4984   1.041   4.037   8.562  3.7834  1.5389  0.8507
   37POPC  H15S 4985   0.881   4.064   8.652  2.1347 -1.0116  3.3068
   37POPC  C216 4986   1.052   4.148   8.742  0.2146  0.2036 -0.1631
   37POPC  H16R 4987   1.047   4.074   8.825 -0.2536  0.9878  0.5209
   37POPC  H16S 4988   0.997   4.238   8.777 -0.3994 -0.9126  1.8405
   37POPC  C217 4989   1.203   4.178   8.713  0.4091 -0.2979  0.4100
   37POPC  H17R 4990   1.205   4.272   8.655 -2.5009 -0.7257 -0.4938
   37POPC  H17S 4991   1.240   4.092   8.652 -2.6243 -1.7679  0.5242
   37POPC  C218 4992   1.290   4.202   8.834 -0.6949  0.2378 -0.1418
   37POPC  H18R 4993   1.249   4.290   8.888 -0.9993  1.0739 -1.7136
   37POPC  H18S 4994   1.393   4.230   8.804  0.1562 -0.7992  1.6427
   37POPC  H18T 4995   1.291   4.115   8.904  2.3822 -1.4489 -2.1923
   37POPC   C33 4996   2.061   4.847   7.332  0.2305  0.2679  0.3969
   37POPC   H3X 4997   2.009   4.908   7.408  1.2506  2.7787 -0.8752
   37POPC   H3Y 4998   2.103   4.924   7.264  1.5760 -0.1192  0.7824
   37POPC   C34 4999   2.181   4.764   7.390 -0.7139  0.2676  0.4445
   37POPC   H4X 5000   2.269   4.831   7.406 -0.7263 -0.0628  1.9517
   37POPC   H4Y 5001   2.218   4.702   7.306 -1.7540 -0.6370  0.6393
   37POPC   C35 5002   2.164   4.685   7.519  0.3613  0.0691 -0.0609
   37POPC   H5X 5003   2.253   4.620   7.532 -0.5252 -0.9398  1.0920
   37POPC   H5Y 5004   2.075   4.620   7.505 -0.1201  0.8076 -0.4166
   37POPC   C36 5005   2.145   4.765   7.643  0.9007  0.1204  0.8869
   37POPC   H6X 5006   2.056   4.827   7.619  1.8411  0.5113 -1.7753
   37POPC   H6Y 5007   2.241   4.818   7.662  1.7153 -1.0373  0.1393
   37POPC   C37 5008   2.117   4.684   7.764 -0.1237  0.6022  0.1037
   37POPC   H7X 5009   2.212   4.644   7.806 -0.4668  1.1938  1.4754
   37POPC   H7Y 5010   2.042   4.607   7.737 -0.9065  1.9383 -1.6092
   37POPC   C38 5011   2.053   4.768   7.873  0.1259 -0.5611  0.4368
   37POPC   H8X 5012   1.956   4.807   7.835  0.8554  1.2078  0.3621
   37POPC   H8Y 5013   2.122   4.852   7.893 -1.5313  1.1389 -0.7737
   37POPC   C39 5014   2.029   4.668   7.989 -0.0688 -0.8366  0.4198
   37POPC   H9X 5015   2.119   4.614   8.026  1.1815  0.8480 -0.0977
   37POPC   H9Y 5016   1.976   4.578   7.952  2.3608 -2.4101  0.6155
   37POPC  C310 5017   1.964   4.738   8.109 -0.7590 -0.1603  0.1987
   37POPC  H10X 5018   1.866   4.782   8.077  0.6415  0.0383 -4.2082
   37POPC  H10Y 5019   2.026   4.823   8.146  1.5836 -1.1379 -1.4081
   37POPC  C311 5020   1.950   4.634   8.229  0.2577  0.2068 -0.5345
   37POPC  H11X 5021   2.047   4.586   8.253  0.1317  1.7934  3.5020
   37POPC  H11Y 5022   1.872   4.559   8.204 -0.1529  0.4577 -0.0338
   37POPC  C312 5023   1.892   4.704   8.351  0.5836 -0.1725 -0.0161
   37POPC  H12X 5024   1.919   4.811   8.363 -2.4841  0.5444  0.9720
   37POPC  H12Y 5025   1.931   4.646   8.437  1.3768  0.6750  0.2050
   37POPC  C313 5026   1.731   4.724   8.357  0.1389 -0.1405 -0.7840
   37POPC  H13X 5027   1.681   4.629   8.388  3.1251 -1.3468  0.5473
   37POPC  H13Y 5028   1.693   4.748   8.255  1.4042  1.6434 -0.8526
   37POPC  C314 5029   1.696   4.836   8.446  0.0487  0.2686  0.3969
   37POPC  H14X 5030   1.716   4.936   8.403  0.3193  0.0636  0.0444
   37POPC  H14Y 5031   1.755   4.834   8.540  0.1660  0.9626  0.3365
   37POPC  C315 5032   1.544   4.830   8.479  0.5844  1.1837  0.3940
   37POPC  H15X 5033   1.530   4.746   8.551  2.1506  0.7048  0.1696
   37POPC  H15Y 5034   1.484   4.807   8.389 -0.4391 -1.6481  1.7147
   37POPC  C316 5035   1.492   4.952   8.543 -0.3832 -0.2644 -0.1078
   37POPC  H16X 5036   1.384   4.940   8.566 -0.8775  0.2966 -2.0827
   37POPC  H16Y 5037   1.500   5.030   8.464  0.4689 -0.7425 -0.5037
   37POPC  H16Z 5038   1.542   4.973   8.640 -0.2732 -2.5217  0.3520
   38POPC     N 5039   2.413   1.954   6.047 -0.6241 -0.2132  0.3791
   38POPC   C12 5040   2.473   1.973   6.185 -0.0538 -0.2883  0.3899
   38POPC  H12A 5041   2.510   2.071   6.209 -3.5537  0.8200  1.5869
   38POPC  H12B 5042   2.558   1.906   6.185  0.2483  0.0929  0.5513
   38POPC   C13 5043   2.299   2.051   6.029 -0.1133  0.1417  0.3946
   38POPC  H13A 5044   2.222   2.055   6.104  0.6758 -1.7234  1.3305
   38POPC  H13B 5045   2.334   2.152   6.011  0.3719 -0.1071 -0.0766
   38POPC  H13C 5046   2.239   2.036   5.940  0.8735  0.7396 -0.3869
   38POPC   C14 5047   2.512   1.990   5.940  0.0003 -0.1998  0.1270
   38POPC  H14A 5048   2.470   1.973   5.842 -4.5158  2.3931  1.4647
   38POPC  H14B 5049   2.552   2.090   5.946  0.5599 -0.4667  0.9556
   38POPC  H14C 5050   2.596   1.924   5.955 -1.4964 -1.8804  1.2746
   38POPC   C15 5051   2.369   1.813   6.015  0.1580 -0.6538 -0.1086
   38POPC  H15A 5052   2.336   1.795   5.914  1.5531 -0.3967 -0.6141
   38POPC  H15B 5053   2.286   1.794   6.081 -0.7724  0.4746 -0.9250
   38POPC  H15C 5054   2.449   1.743   6.031  0.1019 -0.4061  1.3165
   38POPC   C11 5055   2.383   1.934   6.309 -0.3030  1.2484  1.0455
   38POPC  H11A 5056   2.305   2.013   6.316 -0.8619  0.8889 -0.9174
   38POPC  H11B 5057   2.434   1.946   6.407  0.2118 -0.4640  1.0032
   38POPC     P 5058   2.239   1.735   6.408 -0.1936  0.1673  0.1609
   38POPC   O13 5059   2.226   1.592   6.374 -0.2833  0.5829 -0.0171
   38POPC   O14 5060   2.109   1.810   6.426 -0.4099  0.1024 -0.2666
   38POPC   O12 5061   2.326   1.803   6.294 -0.1533  0.4164  0.5681
   38POPC   O11 5062   2.320   1.746   6.539 -0.2977 -0.4550 -0.6660
   38POPC    C1 5063   2.464   1.720   6.545  0.2539  0.1906 -0.3924
   38POPC    HA 5064   2.515   1.812   6.581 -0.5597  0.2554  0.5993
   38POPC    HB 5065   2.508   1.698   6.445  0.3158  1.4418 -0.6484
   38POPC    C2 5066   2.495   1.602   6.636  0.0908 -0.0374  0.1298
   38POPC    HS 5067   2.451   1.508   6.597  0.4471 -1.0268  2.0653
   38POPC   O21 5068   2.448   1.627   6.771  0.2284  0.4873  0.1801
   38POPC   C21 5069   2.328   1.593   6.795 -0.3965  0.1655 -0.0532
   38POPC   O22 5070   2.247   1.541   6.719  0.3591 -0.3516 -0.9532
   38POPC   C22 5071   2.308   1.621   6.941 -0.1450  0.2426  0.5945
   38POPC   H2R 5072   2.297   1.729   6.963  0.2576  0.8057 -1.7793
   38POPC   H2S 5073   2.405   1.585   6.981  0.1197 -0.5054 -0.6884
   38POPC    C3 5074   2.642   1.574   6.649  0.0978  0.0752  0.2504
   38POPC    HX 5075   2.697   1.661   6.690 -0.2664  1.1082 -1.4136
   38POPC    HY 5076   2.679   1.563   6.545  2.4376 -1.4985  1.1907
   38POPC   O31 5077   2.673   1.456   6.732  0.0110  0.2211  0.3029
   38POPC   C31 5078   2.661   1.335   6.675 -0.1905 -0.2866  0.6868
   38POPC   O32 5079   2.641   1.313   6.553 -0.7565  0.3857 -0.1628
   38POPC   C32 5080   2.687   1.225   6.787  0.0776  0.3137  0.9481
   38POPC   H2X 5081   2.797   1.213   6.793  0.2383  1.3264  0.0166
   38POPC   H2Y 5082   2.655   1.130   6.739 -0.8129  0.9131  0.3372
   38POPC   C23 5083   2.188   1.542   7.002 -0.2997  0.0042  1.1460
   38POPC   H3R 5084   2.177   1.442   6.956 -0.9714  0.7368 -0.3414
   38POPC   H3S 5085   2.089   1.590   6.983 -1.4918 -2.6210  0.5794
   38POPC   C24 5086   2.195   1.536   7.146 -0.8532 -0.2074  0.1009
   38POPC   H4R 5087   2.098   1.497   7.185 -2.2277  0.0112 -2.9825
   38POPC   H4S 5088   2.227   1.636   7.183 -1.4702  0.2644 -0.6303
   38POPC   C25 5089   2.317   1.448   7.207  0.2615 -0.1106 -0.1355
   38POPC   H5R 5090   2.403   1.505   7.167 -1.0519  1.0951 -1.3177
   38POPC   H5S 5091   2.304   1.352   7.153 -0.2953 -1.0835  1.6774
   38POPC   C26 5092   2.294   1.416   7.355  1.2669  0.6578  0.0318
   38POPC   H6R 5093   2.192   1.376   7.372  1.5471 -0.0467  0.0785
   38POPC   H6S 5094   2.294   1.515   7.405  1.1211  0.7460 -0.1415
   38POPC   C27 5095   2.397   1.321   7.423  0.3532 -0.1514  0.3687
   38POPC   H7R 5096   2.498   1.355   7.392  1.9013 -1.4999  3.6181
   38POPC   H7S 5097   2.377   1.216   7.392  1.8009 -0.7034  1.2278
   38POPC   C28 5098   2.404   1.315   7.574  0.0286 -0.0188  0.7806
   38POPC   H8R 5099   2.450   1.405   7.620  0.2601  1.0358 -1.4755
   38POPC   H8S 5100   2.464   1.226   7.605  0.4833 -0.8254 -2.3001
   38POPC   C29 5101   2.268   1.282   7.636  0.6224  0.4539  0.2599
   38POPC   H91 5102   2.247   1.176   7.618 -0.8598  0.3518  2.3824
   38POPC  C210 5103   2.178   1.357   7.702  0.0707 -0.0742 -0.1037
   38POPC  H101 5104   2.086   1.308   7.737  1.2928 -2.0257  0.4805
   38POPC  C211 5105   2.187   1.500   7.730 -0.6450 -0.2489  0.4544
   38POPC  H11R 5106   2.126   1.551   7.652  2.6100  1.6769 -0.9492
   38POPC  H11S 5107   2.290   1.535   7.710 -0.8282 -0.6666 -1.3850
   38POPC  C212 5108   2.138   1.529   7.874  0.0719  0.0246 -0.5412
   38POPC  H12R 5109   2.153   1.435   7.932  1.8467  0.9583  0.5324
   38POPC  H12S 5110   2.028   1.544   7.865  0.3258  0.7257 -2.7867
   38POPC  C213 5111   2.204   1.658   7.931  0.3484  0.1725 -0.1232
   38POPC  H13R 5112   2.186   1.753   7.875  0.5958  1.1892  1.5027
   38POPC  H13S 5113   2.312   1.632   7.928  0.1634 -0.6913  0.5220
   38POPC  C214 5114   2.172   1.681   8.083  0.4400 -0.1058  0.1353
   38POPC  H14R 5115   2.175   1.588   8.143  0.6602 -0.8669 -1.0430
   38POPC  H14S 5116   2.069   1.722   8.081 -0.3653 -2.1140 -0.8454
   38POPC  C215 5117   2.267   1.786   8.138 -0.2463 -0.2482 -0.7761
   38POPC  H15R 5118   2.271   1.877   8.074  1.9849  0.1257 -0.1373
   38POPC  H15S 5119   2.369   1.744   8.149 -0.5043 -0.4016  1.0408
   38POPC  C216 5120   2.222   1.828   8.280  0.4117 -0.5725  0.0859
   38POPC  H16R 5121   2.252   1.742   8.344  0.3819 -1.2531 -0.8010
   38POPC  H16S 5122   2.112   1.844   8.278  0.6351  0.9841  0.0038
   38POPC  C217 5123   2.292   1.952   8.341 -0.5168 -0.0850 -0.5504
   38POPC  H17R 5124   2.282   2.045   8.282  0.9269  1.5821  1.7374
   38POPC  H17S 5125   2.400   1.938   8.364 -0.7089 -1.2720 -0.3540
   38POPC  C218 5126   2.218   1.991   8.473 -0.4551 -0.3839 -0.3465
   38POPC  H18R 5127   2.263   2.081   8.521  1.0197 -0.2639 -1.8908
   38POPC  H18S 5128   2.198   1.911   8.547  0.4058 -0.9325 -0.6933
   38POPC  H18T 5129   2.109   2.009   8.459 -0.0066  2.3418 -0.7463
   38POPC   C33 5130   2.626   1.248   6.921  0.1537  0.2723 -0.4420
   38POPC   H3X 5131   2.517   1.225   6.918  0.3021 -0.6809  0.7893
   38POPC   H3Y 5132   2.629   1.354   6.951 -1.5828  0.3026 -0.2859
   38POPC   C34 5133   2.690   1.158   7.029 -0.4902  0.6358  0.3360
   38POPC   H4X 5134   2.790   1.199   7.057  0.3952 -2.3493  1.7164
   38POPC   H4Y 5135   2.710   1.064   6.973  1.5710  1.9491 -1.2387
   38POPC   C35 5136   2.602   1.133   7.151 -0.0175 -0.4911 -0.3526
   38POPC   H5X 5137   2.527   1.054   7.130  1.3480 -2.7745  2.9040
   38POPC   H5Y 5138   2.546   1.226   7.174  0.0165  0.1616 -2.7797
   38POPC   C36 5139   2.692   1.086   7.269 -0.2618  0.6390 -0.7335
   38POPC   H6X 5140   2.762   1.167   7.298  1.0246  0.2957 -2.8542
   38POPC   H6Y 5141   2.747   0.999   7.227 -0.2393 -0.7252  1.9314
   38POPC   C37 5142   2.609   1.054   7.399 -0.3187 -0.3020  0.7419
   38POPC   H7X 5143   2.527   0.986   7.366 -0.2703  0.4724 -1.0800
   38POPC   H7Y 5144   2.562   1.143   7.445 -1.8381 -1.7445  2.0753
   38POPC   C38 5145   2.703   0.990   7.500  0.4598  0.1652 -0.2273
   38POPC   H8X 5146   2.788   1.061   7.509 -0.8887  2.0843 -2.3061
   38POPC   H8Y 5147   2.732   0.890   7.460  0.3014 -0.4058  1.0720
   38POPC   C39 5148   2.640   0.967   7.643 -0.7331 -0.1214  0.4011
   38POPC   H9X 5149   2.565   0.885   7.652  0.2143 -1.1912 -1.1573
   38POPC   H9Y 5150   2.590   1.062   7.671  2.7849  1.8582  0.2202
   38POPC  C310 5151   2.755   0.946   7.744  0.2854 -0.8306 -0.2164
   38POPC  H10X 5152   2.800   1.042   7.776  0.6243 -0.9471 -0.3473
   38POPC  H10Y 5153   2.832   0.887   7.690  0.7819  0.7811 -1.3135
   38POPC  C311 5154   2.725   0.887   7.884 -0.5962  0.3395 -0.3261
   38POPC  H11X 5155   2.693   0.781   7.869 -0.6560  0.2702  0.2674
   38POPC  H11Y 5156   2.652   0.957   7.930  1.5424  1.8627  0.8315
   38POPC  C312 5157   2.855   0.887   7.978  0.5835  0.6801  0.0607
   38POPC  H12X 5158   2.912   0.980   7.956  0.3148  1.0717  0.9700
   38POPC  H12Y 5159   2.926   0.811   7.940 -0.9846 -0.4944 -0.5518
   38POPC  C313 5160   2.818   0.872   8.132  0.7966 -0.4625 -0.5215
   38POPC  H13X 5161   2.743   0.951   8.154 -0.7167 -1.2510 -2.6855
   38POPC  H13Y 5162   2.912   0.893   8.186  0.3088  0.8186 -0.1462
   38POPC  C314 5163   2.752   0.729   8.161 -0.4329 -0.0552  0.7037
   38POPC  H14X 5164   2.655   0.719   8.107 -0.0746  1.8259 -0.3067
   38POPC  H14Y 5165   2.716   0.741   8.266  2.1898  2.7309  1.3474
   38POPC  C315 5166   2.855   0.609   8.173  0.5730 -0.1085  0.2055
   38POPC  H15X 5167   2.957   0.643   8.201  0.5062 -0.2860  0.6602
   38POPC  H15Y 5168   2.868   0.561   8.073 -3.6332 -1.0268  0.0365
   38POPC  C316 5169   2.815   0.509   8.280 -0.0306 -0.2723 -0.5749
   38POPC  H16X 5170   2.756   0.424   8.241 -2.8036  1.4409 -0.3096
   38POPC  H16Y 5171   2.778   0.564   8.369 -1.4698  0.4854 -1.6115
   38POPC  H16Z 5172   2.911   0.463   8.312 -0.5917 -1.0389  0.0179
   39POPC     N 5173   6.168   4.811   5.799  0.9313  0.1669 -0.0388
   39POPC   C12 5174   6.126   4.912   5.900 -0.3837  0.5794  0.3447
   39POPC  H12A 5175   6.019   4.904   5.914 -0.2694 -1.7654  0.0578
   39POPC  H12B 5176   6.145   5.006   5.850  0.2174  0.7471  0.8833
   39POPC   C13 5177   6.062   4.800   5.698  1.0183 -0.1765 -0.8043
   39POPC  H13A 5178   5.982   4.735   5.730 -0.2916  1.5023 -0.5780
   39POPC  H13B 5179   6.017   4.892   5.665  0.7879 -0.3789 -1.0533
   39POPC  H13C 5180   6.104   4.748   5.613 -1.6587 -2.5339 -0.7404
   39POPC   C14 5181   6.292   4.861   5.739 -0.1216 -0.5636  0.3942
   39POPC  H14A 5182   6.360   4.891   5.817  0.0028 -1.3745  0.5931
   39POPC  H14B 5183   6.337   4.785   5.678  0.4643  0.1215 -0.0434
   39POPC  H14C 5184   6.278   4.947   5.675  1.8956 -1.2771 -1.0731
   39POPC   C15 5185   6.194   4.679   5.862 -0.3325 -0.9003  0.5951
   39POPC  H15A 5186   6.190   4.599   5.790  1.2230 -0.6075  0.1745
   39POPC  H15B 5187   6.118   4.647   5.933  0.1851 -0.2072  1.4600
   39POPC  H15C 5188   6.281   4.688   5.925 -0.2450  1.2345  0.1749
   39POPC   C11 5189   6.190   4.903   6.043 -0.1932 -0.6658  0.3769
   39POPC  H11A 5190   6.143   4.818   6.097 -2.3994  0.4228  0.2402
   39POPC  H11B 5191   6.158   4.995   6.096 -0.1024  0.5432 -1.6161
   39POPC     P 5192   6.415   5.020   6.042 -0.4843  0.4918 -0.1631
   39POPC   O13 5193   6.369   5.136   5.959  0.3176 -0.8778  0.3849
   39POPC   O14 5194   6.553   4.975   6.027 -0.1413  0.3400 -0.4913
   39POPC   O12 5195   6.331   4.891   6.027 -0.4630 -0.0451  0.2246
   39POPC   O11 5196   6.390   5.070   6.194 -0.3294 -0.5821 -0.1330
   39POPC    C1 5197   6.470   5.025   6.302 -1.0436  0.4739 -0.2405
   39POPC    HA 5198   6.459   5.076   6.401 -0.1627  0.3482 -0.0686
   39POPC    HB 5199   6.577   5.051   6.282 -0.5042 -0.6243  1.1545
   39POPC    C2 5200   6.464   4.875   6.328  0.0113  0.5647 -0.4869
   39POPC    HS 5201   6.455   4.817   6.234 -0.6110 -2.8332  1.5673
   39POPC   O21 5202   6.343   4.849   6.398 -0.0573 -0.0542  0.0627
   39POPC   C21 5203   6.310   4.722   6.427  0.4609  0.6771 -0.7559
   39POPC   O22 5204   6.351   4.618   6.375  0.8081  0.8642 -0.0945
   39POPC   C22 5205   6.187   4.720   6.527  0.4496 -1.0923 -0.6435
   39POPC   H2R 5206   6.181   4.630   6.592 -1.0769  0.0002  0.7477
   39POPC   H2S 5207   6.100   4.718   6.459  0.3564  2.2613 -0.6894
   39POPC    C3 5208   6.589   4.809   6.396  0.0407  0.0083 -0.1911
   39POPC    HX 5209   6.677   4.806   6.329  1.6977  1.4421  1.8519
   39POPC    HY 5210   6.566   4.705   6.425 -1.0302  0.7584  1.7438
   39POPC   O31 5211   6.626   4.894   6.512 -0.3489 -0.0011  0.6104
   39POPC   C31 5212   6.574   4.871   6.627  0.5394  0.1621  0.1555
   39POPC   O32 5213   6.505   4.774   6.659 -0.2696 -0.1731  0.0666
   39POPC   C32 5214   6.601   5.000   6.707  0.4311  0.4190  0.3119
   39POPC   H2X 5215   6.658   4.964   6.795  1.8560  2.2261  0.1827
   39POPC   H2Y 5216   6.676   5.064   6.656  2.3866 -1.1698  1.1446
   39POPC   C23 5217   6.181   4.840   6.627 -0.4933 -0.1890  0.0598
   39POPC   H3R 5218   6.177   4.940   6.579  1.3317  0.1305  0.5437
   39POPC   H3S 5219   6.276   4.843   6.684  0.2101  1.8261 -1.1545
   39POPC   C24 5220   6.066   4.831   6.733  0.7478 -0.4081 -0.2863
   39POPC   H4R 5221   6.080   4.744   6.800  0.4597 -0.1749  0.0819
   39POPC   H4S 5222   5.966   4.838   6.683  0.4646 -0.5771  0.2543
   39POPC   C25 5223   6.071   4.959   6.816 -1.0038  0.5406  0.0966
   39POPC   H5R 5224   6.063   5.047   6.748  0.1008  0.8865  0.4176
   39POPC   H5S 5225   6.170   4.966   6.866  0.0117 -0.4626 -1.7341
   39POPC   C26 5226   5.960   4.965   6.922 -0.1024 -0.7631  0.3949
   39POPC   H6R 5227   5.963   4.873   6.984 -5.3362 -0.7476  0.9619
   39POPC   H6S 5228   5.862   4.972   6.871  0.3916  1.8145 -0.2340
   39POPC   C27 5229   5.969   5.074   7.028 -0.7148 -0.3753 -0.0793
   39POPC   H7R 5230   6.068   5.124   7.027 -0.3796 -1.0570 -2.5607
   39POPC   H7S 5231   5.965   5.028   7.129  1.2086  0.7685  0.5484
   39POPC   C28 5232   5.862   5.180   7.007  0.1973 -0.7490  0.0207
   39POPC   H8R 5233   5.873   5.224   6.906 -0.3421  0.7095  0.5871
   39POPC   H8S 5234   5.881   5.267   7.074  0.1961 -1.2963  0.7428
   39POPC   C29 5235   5.721   5.131   7.010 -0.0134  0.1199  0.0280
   39POPC   H91 5236   5.697   5.061   6.928 -0.5899  0.5732 -0.1983
   39POPC  C210 5237   5.643   5.152   7.117  0.0336  0.1985 -0.0114
   39POPC  H101 5238   5.541   5.111   7.115  0.0174  0.1130  1.7470
   39POPC  C211 5239   5.669   5.222   7.249 -0.1614 -0.8833 -0.1544
   39POPC  H11R 5240   5.587   5.291   7.277  0.0659  0.0471 -1.7553
   39POPC  H11S 5241   5.760   5.285   7.232  0.4219 -0.7359  3.1909
   39POPC  C212 5242   5.695   5.130   7.369 -0.6449 -0.5561  0.5419
   39POPC  H12R 5243   5.773   5.054   7.350 -0.1682  0.0241  0.1751
   39POPC  H12S 5244   5.596   5.086   7.398 -1.1958  0.6919  0.5996
   39POPC  C213 5245   5.736   5.195   7.497 -0.2561 -0.7873 -0.1552
   39POPC  H13R 5246   5.655   5.264   7.529 -1.7887 -1.3602 -2.6590
   39POPC  H13S 5247   5.821   5.264   7.476  0.0005 -0.7807  0.8700
   39POPC  C214 5248   5.779   5.094   7.603  0.0329  0.6777 -0.2654
   39POPC  H14R 5249   5.794   5.136   7.705 -2.2913  0.0209  0.3985
   39POPC  H14S 5250   5.870   5.046   7.562 -0.8301  0.7609 -2.3581
   39POPC  C215 5251   5.676   4.980   7.622 -0.1222 -0.4684 -0.5102
   39POPC  H15R 5252   5.668   4.925   7.526 -0.4919 -0.7239 -0.3362
   39POPC  H15S 5253   5.575   5.019   7.650  0.4711 -0.1563  1.2516
   39POPC  C216 5254   5.713   4.872   7.729 -0.7305  0.1903 -0.0590
   39POPC  H16R 5255   5.818   4.886   7.761 -0.0228 -1.1647 -1.7371
   39POPC  H16S 5256   5.708   4.772   7.681  0.1698  0.6304 -1.0626
   39POPC  C217 5257   5.613   4.862   7.849  1.1006  0.1685 -0.1050
   39POPC  H17R 5258   5.605   4.757   7.886 -0.5141 -0.1890 -1.4536
   39POPC  H17S 5259   5.514   4.896   7.813 -0.3128 -2.4595  1.1870
   39POPC  C218 5260   5.652   4.958   7.965 -0.0386 -0.4050 -0.4587
   39POPC  H18R 5261   5.754   4.932   8.001 -0.7694 -1.4886  0.9306
   39POPC  H18S 5262   5.579   4.935   8.046  0.1995  0.7294  0.0770
   39POPC  H18T 5263   5.656   5.060   7.923 -0.5820 -0.9664 -1.9115
   39POPC   C33 5264   6.476   5.081   6.735  0.1904 -0.2830  0.0882
   39POPC   H3X 5265   6.397   5.012   6.771  0.3647 -0.7481 -0.4290
   39POPC   H3Y 5266   6.440   5.118   6.637 -0.6637 -1.3132  0.0074
   39POPC   C34 5267   6.489   5.192   6.831 -0.0284 -0.8473 -0.6104
   39POPC   H4X 5268   6.385   5.231   6.838  0.6407  0.6435  1.2155
   39POPC   H4Y 5269   6.549   5.277   6.794  0.2175 -1.5848 -1.9507
   39POPC   C35 5270   6.536   5.153   6.974  0.0145 -0.4154  0.4728
   39POPC   H5X 5271   6.512   5.241   7.038  2.7780  2.3681 -2.1849
   39POPC   H5Y 5272   6.644   5.133   6.983  0.3317  1.4112  1.0446
   39POPC   C36 5273   6.455   5.031   7.029  0.5464  0.3642 -0.0409
   39POPC   H6X 5274   6.457   4.937   6.969 -1.0357  0.0293  0.3990
   39POPC   H6Y 5275   6.347   5.058   7.032  0.1680 -1.1700  1.8827
   39POPC   C37 5276   6.501   4.975   7.168  0.3099 -0.5812 -0.4944
   39POPC   H7X 5277   6.606   4.939   7.161  0.8957  0.9825 -0.1070
   39POPC   H7Y 5278   6.443   4.885   7.198 -0.0665 -0.2661 -0.2643
   39POPC   C38 5279   6.496   5.070   7.294  0.2377  0.3595 -0.0373
   39POPC   H8X 5280   6.388   5.097   7.292 -0.0260 -0.4863  2.1089
   39POPC   H8Y 5281   6.552   5.164   7.275 -0.2099  1.1763  2.4934
   39POPC   C39 5282   6.530   4.994   7.424 -0.2980 -0.4625  0.6162
   39POPC   H9X 5283   6.636   4.963   7.413 -0.1014  0.8226 -1.3268
   39POPC   H9Y 5284   6.465   4.905   7.432  2.7845 -2.8183  0.7188
   39POPC  C310 5285   6.513   5.079   7.551 -0.3703  0.2482  0.3963
   39POPC  H10X 5286   6.582   5.165   7.537  4.0194 -3.1330  0.3540
   39POPC  H10Y 5287   6.549   5.016   7.635  1.0939 -1.2122 -1.2938
   39POPC  C311 5288   6.370   5.129   7.572 -0.4784 -0.4601 -0.0823
   39POPC  H11X 5289   6.281   5.065   7.555  0.1882 -1.2897 -0.4571
   39POPC  H11Y 5290   6.353   5.207   7.495 -2.3615  0.6662  1.4263
   39POPC  C312 5291   6.350   5.188   7.710 -0.3837  0.2378  0.5487
   39POPC  H12X 5292   6.261   5.254   7.707  0.3344  1.1638 -0.5600
   39POPC  H12Y 5293   6.425   5.264   7.740 -0.3974  1.1602 -1.6542
   39POPC  C313 5294   6.327   5.086   7.816  0.7401  0.3259 -0.7284
   39POPC  H13X 5295   6.413   5.018   7.830 -1.1884 -1.7961  1.2589
   39POPC  H13Y 5296   6.247   5.020   7.777 -1.7345  1.8308  1.5812
   39POPC  C314 5297   6.268   5.134   7.955  0.5917  0.1355 -0.0482
   39POPC  H14X 5298   6.189   5.209   7.938 -0.3506 -0.8982 -0.2977
   39POPC  H14Y 5299   6.357   5.182   8.001  2.2899 -0.9104 -2.0913
   39POPC  C315 5300   6.212   5.014   8.036  0.2432 -0.0382  0.2358
   39POPC  H15X 5301   6.213   5.037   8.145 -0.1929  2.4765 -0.2698
   39POPC  H15Y 5302   6.280   4.927   8.021  2.0411  1.4992 -0.7814
   39POPC  C316 5303   6.064   4.981   8.005  0.4166  0.1402 -0.5659
   39POPC  H16X 5304   6.042   4.968   7.897  1.9609  1.3300 -1.0381
   39POPC  H16Y 5305   6.006   5.070   8.040  1.4549  0.9401 -0.8455
   39POPC  H16Z 5306   6.034   4.890   8.060 -0.2489  1.3061  1.0473
   40POPC     N 5307   5.082   2.792   6.214  0.1562  0.0554 -0.3127
   40POPC   C12 5308   5.168   2.791   6.330  0.0163  0.7943  0.6168
   40POPC  H12A 5309   5.159   2.696   6.381 -0.6763  0.7831  0.4700
   40POPC  H12B 5310   5.135   2.855   6.411 -3.5192 -1.9580  1.4820
   40POPC   C13 5311   4.944   2.755   6.266 -0.1812  0.8485 -0.7871
   40POPC  H13A 5312   4.864   2.758   6.194 -0.2598  3.2132 -0.6364
   40POPC  H13B 5313   4.954   2.660   6.317 -0.9553  0.6951 -0.9186
   40POPC  H13C 5314   4.924   2.827   6.345  2.8412  2.1495 -1.1380
   40POPC   C14 5315   5.071   2.932   6.150  0.1975 -0.1140 -0.2186
   40POPC  H14A 5316   5.153   2.945   6.081  0.8845 -1.3720  0.3292
   40POPC  H14B 5317   4.985   2.944   6.086  1.2012  2.4897 -1.1202
   40POPC  H14C 5318   5.077   3.019   6.213 -0.3681  0.9343 -1.5699
   40POPC   C15 5319   5.120   2.691   6.109 -0.4509 -0.4346 -0.1404
   40POPC  H15A 5320   5.044   2.674   6.034 -0.4513 -0.2450 -0.1833
   40POPC  H15B 5321   5.156   2.596   6.146 -1.2159 -0.9526 -0.7150
   40POPC  H15C 5322   5.191   2.732   6.039 -0.6074  0.3837  0.1744
   40POPC   C11 5323   5.318   2.807   6.310 -0.0351  0.0665  0.6252
   40POPC  H11A 5324   5.328   2.918   6.316 -0.9238  0.1610  0.3804
   40POPC  H11B 5325   5.350   2.787   6.205  1.0775  1.6287  0.6443
   40POPC     P 5326   5.511   2.653   6.366  0.0956 -0.1615  0.1083
   40POPC   O13 5327   5.616   2.733   6.299  0.1691 -0.6383  0.2535
   40POPC   O14 5328   5.461   2.539   6.286 -0.1445 -0.1063  0.9440
   40POPC   O12 5329   5.394   2.751   6.421 -0.2134  0.2282  0.3954
   40POPC   O11 5330   5.574   2.596   6.491 -0.2276  0.0602 -1.0189
   40POPC    C1 5331   5.602   2.679   6.605  0.3807  0.5993 -0.2494
   40POPC    HA 5332   5.521   2.677   6.681  0.7953  0.4575  0.1827
   40POPC    HB 5333   5.629   2.784   6.580  0.8795  0.9191  1.5816
   40POPC    C2 5334   5.723   2.621   6.684 -0.5476 -0.0781  0.2561
   40POPC    HS 5335   5.790   2.574   6.609 -1.2256 -0.7877  0.0994
   40POPC   O21 5336   5.676   2.521   6.775  1.0056  0.4680  0.3281
   40POPC   C21 5337   5.766   2.445   6.824  0.2310 -0.2263 -0.4021
   40POPC   O22 5338   5.886   2.443   6.801 -0.0898  0.5342  0.1635
   40POPC   C22 5339   5.691   2.345   6.917 -0.1207 -0.1428 -0.1961
   40POPC   H2R 5340   5.705   2.244   6.873 -2.4282  0.3935 -2.3169
   40POPC   H2S 5341   5.583   2.374   6.919 -0.0857 -0.0957  2.0908
   40POPC    C3 5342   5.807   2.736   6.750 -0.1925  0.1317  0.1075
   40POPC    HX 5343   5.836   2.805   6.668 -0.0180  1.6180  1.4177
   40POPC    HY 5344   5.900   2.704   6.801  0.0319  1.8804  0.8119
   40POPC   O31 5345   5.722   2.817   6.831  0.0609  0.0349 -0.5702
   40POPC   C31 5346   5.714   2.783   6.959 -0.3914 -0.9297 -0.6038
   40POPC   O32 5347   5.765   2.685   7.011 -0.1205  0.0525 -0.4441
   40POPC   C32 5348   5.614   2.876   7.033 -0.8846  0.1191  0.4950
   40POPC   H2X 5349   5.520   2.879   6.974  0.2010  0.4657 -1.2399
   40POPC   H2Y 5350   5.677   2.966   7.048  0.0994 -0.3446 -0.7924
   40POPC   C23 5351   5.741   2.349   7.063 -0.5085  0.4853 -0.1884
   40POPC   H3R 5352   5.773   2.449   7.100  1.4945 -0.9909  2.2679
   40POPC   H3S 5353   5.834   2.290   7.074 -0.3796 -0.1327 -4.1478
   40POPC   C24 5354   5.642   2.289   7.168  0.3533  0.2013  0.6895
   40POPC   H4R 5355   5.674   2.183   7.185  2.7181  0.2766 -2.7626
   40POPC   H4S 5356   5.544   2.279   7.116  0.9306  0.8749 -0.5584
   40POPC   C25 5357   5.637   2.368   7.294  1.0740 -0.0663 -0.6218
   40POPC   H5R 5358   5.610   2.474   7.271  1.2324  0.6293  2.1639
   40POPC   H5S 5359   5.742   2.367   7.330  0.7606 -0.0671  0.2996
   40POPC   C26 5360   5.531   2.311   7.391 -0.3002 -1.1261 -0.2838
   40POPC   H6R 5361   5.550   2.202   7.392  0.5259 -1.0105 -1.7459
   40POPC   H6S 5362   5.433   2.342   7.349 -0.0252 -1.1142 -0.9087
   40POPC   C27 5363   5.554   2.389   7.523 -0.0209  0.5542 -0.1150
   40POPC   H7R 5364   5.532   2.498   7.514 -1.6469  0.1784 -0.9009
   40POPC   H7S 5365   5.660   2.369   7.547  0.5994 -0.1070 -3.2154
   40POPC   C28 5366   5.464   2.341   7.643  0.1784  0.3447  0.4375
   40POPC   H8R 5367   5.504   2.239   7.665 -2.4813 -0.4114  1.9101
   40POPC   H8S 5368   5.359   2.338   7.608 -0.0558  0.2422  1.1609
   40POPC   C29 5369   5.472   2.438   7.756  0.9065 -0.5015 -0.1019
   40POPC   H91 5370   5.442   2.542   7.734 -1.9540 -0.6110  2.7895
   40POPC  C210 5371   5.511   2.413   7.885  1.0165  0.0993  0.8440
   40POPC  H101 5372   5.526   2.498   7.953  2.8921  0.2290  0.2969
   40POPC  C211 5373   5.567   2.281   7.939  0.2966 -0.3225  0.0082
   40POPC  H11R 5374   5.611   2.304   8.038  0.0583 -1.5716  0.4027
   40POPC  H11S 5375   5.659   2.246   7.889  0.7627  0.2046  0.4905
   40POPC  C212 5376   5.472   2.160   7.956  0.7481  0.0972 -0.5858
   40POPC  H12R 5377   5.524   2.071   7.997  0.8030  0.5780  0.3968
   40POPC  H12S 5378   5.431   2.124   7.859 -0.6965 -0.6744  0.2961
   40POPC  C213 5379   5.355   2.192   8.053  0.6217 -0.0631  0.3688
   40POPC  H13R 5380   5.289   2.266   8.003 -0.3631 -0.2293  1.3944
   40POPC  H13S 5381   5.393   2.239   8.147 -0.4264 -0.9270  1.2413
   40POPC  C214 5382   5.264   2.070   8.092  0.2011 -0.5142 -0.2335
   40POPC  H14R 5383   5.316   2.014   8.174  0.0082 -0.3949 -0.0290
   40POPC  H14S 5384   5.247   2.002   8.007 -0.2620 -0.9139  0.1766
   40POPC  C215 5385   5.130   2.118   8.138  0.3331 -0.1817  0.8464
   40POPC  H15R 5386   5.089   2.171   8.049 -1.0913 -0.0912  1.5379
   40POPC  H15S 5387   5.133   2.184   8.227  2.4256  0.1547  0.5504
   40POPC  C216 5388   5.047   1.991   8.172 -0.0940 -0.1737 -1.0196
   40POPC  H16R 5389   5.045   1.918   8.088  0.4032  0.6008 -1.7038
   40POPC  H16S 5390   4.945   2.021   8.206 -0.5487 -3.4098  0.7521
   40POPC  C217 5391   5.095   1.899   8.293 -0.2931  0.4468  0.3817
   40POPC  H17R 5392   5.194   1.856   8.266 -0.8202 -0.6016  0.0897
   40POPC  H17S 5393   5.016   1.821   8.298  1.0097 -0.8192  1.5020
   40POPC  C218 5394   5.107   1.963   8.432 -0.3049 -0.0701 -0.4473
   40POPC  H18R 5395   5.155   1.883   8.494  3.5421  2.2141 -0.2861
   40POPC  H18S 5396   5.007   1.969   8.480  0.2601  0.7918  0.6639
   40POPC  H18T 5397   5.165   2.058   8.438 -2.6598  1.2863  1.4753
   40POPC   C33 5398   5.580   2.808   7.167 -0.0468 -0.4502  0.2475
   40POPC   H3X 5399   5.552   2.702   7.154  0.6003 -0.7736  1.4596
   40POPC   H3Y 5400   5.502   2.873   7.213  0.1834 -0.2598  0.3736
   40POPC   C34 5401   5.693   2.817   7.272  0.5968  0.7133 -0.1371
   40POPC   H4X 5402   5.722   2.924   7.281 -0.0974  0.7661  1.5359
   40POPC   H4Y 5403   5.786   2.763   7.244  0.9776  2.0829 -1.5878
   40POPC   C35 5404   5.654   2.768   7.411 -0.3663 -0.3166 -0.3267
   40POPC   H5X 5405   5.620   2.662   7.405  0.1307 -0.4498 -0.8680
   40POPC   H5Y 5406   5.561   2.818   7.445 -0.4361  0.1342 -1.1693
   40POPC   C36 5407   5.762   2.791   7.517  0.1212 -0.0845  0.9455
   40POPC   H6X 5408   5.780   2.900   7.524  1.3727 -0.0035 -2.5860
   40POPC   H6Y 5409   5.854   2.743   7.478 -0.8610 -0.6888 -0.6768
   40POPC   C37 5410   5.713   2.737   7.654 -0.5695 -0.2088 -0.2393
   40POPC   H7X 5411   5.701   2.627   7.645 -0.3644 -0.0856 -2.2279
   40POPC   H7Y 5412   5.614   2.780   7.679 -1.7017 -1.7556 -1.9720
   40POPC   C38 5413   5.804   2.780   7.777  0.1578 -0.6374  0.3533
   40POPC   H8X 5414   5.812   2.890   7.792  0.2964  0.0337 -4.0924
   40POPC   H8Y 5415   5.908   2.747   7.755  0.0535  0.1802 -1.4010
   40POPC   C39 5416   5.762   2.697   7.903 -0.1491 -0.6828 -0.1672
   40POPC   H9X 5417   5.775   2.590   7.876  0.2952 -0.6724  0.0049
   40POPC   H9Y 5418   5.659   2.727   7.930 -0.2173 -0.2177 -0.9377
   40POPC  C310 5419   5.841   2.736   8.025  0.0323 -0.0459 -0.0185
   40POPC  H10X 5420   5.797   2.831   8.063  1.0330  0.4311 -0.0177
   40POPC  H10Y 5421   5.945   2.763   7.995  1.3780 -2.3135  2.4123
   40POPC  C311 5422   5.840   2.613   8.122  0.3801 -0.5578  0.1859
   40POPC  H11X 5423   5.895   2.525   8.081  0.3925  0.5675 -2.2302
   40POPC  H11Y 5424   5.740   2.570   8.143  0.6474 -1.9922 -1.3615
   40POPC  C312 5425   5.918   2.637   8.253 -0.2471 -0.3952  0.4836
   40POPC  H12X 5426   5.850   2.706   8.308  1.1968  1.4138  0.0543
   40POPC  H12Y 5427   6.019   2.679   8.233 -0.1633 -0.4655  0.7577
   40POPC  C313 5428   5.924   2.508   8.342 -0.1669  0.8744 -0.4685
   40POPC  H13X 5429   5.981   2.432   8.284 -2.6201 -0.0360 -1.7756
   40POPC  H13Y 5430   5.816   2.485   8.343 -0.0917  0.4307 -2.0518
   40POPC  C314 5431   5.966   2.522   8.489  0.6693  0.4292 -0.4933
   40POPC  H14X 5432   5.886   2.583   8.536 -1.0506 -2.6303  0.7229
   40POPC  H14Y 5433   6.068   2.567   8.490  1.4966 -1.3997  1.3959
   40POPC  C315 5434   5.961   2.386   8.563 -0.1100  0.5657  0.7012
   40POPC  H15X 5435   6.032   2.317   8.515 -3.5206 -2.1542 -0.6525
   40POPC  H15Y 5436   5.856   2.362   8.535 -0.2624  0.8996  0.9717
   40POPC  C316 5437   5.992   2.393   8.704  0.0397  0.4388  0.2442
   40POPC  H16X 5438   6.088   2.444   8.725  0.3574  0.2297 -0.7061
   40POPC  H16Y 5439   6.006   2.293   8.751 -0.1673 -0.3081 -1.2510
   40POPC  H16Z 5440   5.928   2.462   8.763 -0.1649  0.1539  0.3571
   41CHL1    C3 5441   4.308   0.549  10.008  0.3196  0.5245 -0.5227
   41CHL1    H3 5442   4.414   0.557   9.976 -0.0961 -0.6980 -2.2310
   41CHL1    O3 5443   4.289   0.592  10.145  0.1096 -0.9228  0.4240
   41CHL1   H3' 5444   4.203   0.553  10.163 -0.5768 -0.5301 -1.7871
   41CHL1    C4 5445   4.222   0.646   9.922 -0.1557  0.1132 -0.3253
   41CHL1   H4A 5446   4.116   0.650   9.955 -0.2833  0.6791 -0.8106
   41CHL1   H4B 5447   4.260   0.748   9.945 -1.3050  1.4747 -4.0614
   41CHL1    C5 5448   4.236   0.615   9.778  0.2669 -0.3917 -0.2699
   41CHL1    C6 5449   4.283   0.705   9.686 -0.8027  0.1270  0.8864
   41CHL1    H6 5450   4.320   0.801   9.725 -2.9449  1.7953 -1.0430
   41CHL1    C7 5451   4.308   0.679   9.540 -0.6780 -0.2053  0.4361
   41CHL1   H7A 5452   4.272   0.759   9.471 -1.5635 -0.9359  0.0412
   41CHL1   H7B 5453   4.416   0.668   9.518 -0.0958  3.2947  1.2600
   41CHL1    C8 5454   4.246   0.548   9.491  0.1797  0.0272 -0.6333
   41CHL1    H8 5455   4.140   0.574   9.477  0.4359  2.1933  1.2266
   41CHL1   C14 5456   4.304   0.497   9.361  0.0747 -0.4581  0.4303
   41CHL1   H14 5457   4.405   0.454   9.381  0.0665 -0.8412 -0.3447
   41CHL1   C15 5458   4.321   0.606   9.253 -0.2708  0.0221 -1.2452
   41CHL1  H15A 5459   4.225   0.663   9.250 -0.5754 -0.4923 -1.2631
   41CHL1  H15B 5460   4.409   0.672   9.268 -0.8534  0.9683 -1.8932
   41CHL1   C16 5461   4.306   0.531   9.123  0.7248 -0.5746 -0.1382
   41CHL1  H16A 5462   4.207   0.550   9.076  0.2826  0.3357  1.1378
   41CHL1  H16B 5463   4.388   0.553   9.052  1.1013 -2.0088 -0.1496
   41CHL1   C17 5464   4.312   0.379   9.160 -0.2353 -0.4616  0.0664
   41CHL1   H17 5465   4.419   0.359   9.184 -0.8034  1.4857  4.5211
   41CHL1   C13 5466   4.233   0.379   9.294 -0.6395  0.0926  0.4194
   41CHL1   C18 5467   4.080   0.401   9.271  0.2215  0.4311  0.1678
   41CHL1  H18A 5468   4.060   0.466   9.184  1.9039 -0.8665 -1.2312
   41CHL1  H18B 5469   4.035   0.306   9.237  0.4846  0.7605 -1.1133
   41CHL1  H18C 5470   4.027   0.430   9.364 -0.4643  1.4340 -0.5220
   41CHL1   C12 5471   4.259   0.259   9.388 -0.0509  0.4810 -0.9145
   41CHL1  H12A 5472   4.211   0.165   9.352  0.2398  0.1693 -0.4857
   41CHL1  H12B 5473   4.368   0.240   9.392  0.0209  0.9610 -0.5121
   41CHL1   C11 5474   4.203   0.296   9.530  0.4047  0.3857 -0.4699
   41CHL1  H11A 5475   4.093   0.311   9.524  0.3699  0.2859 -0.1076
   41CHL1  H11B 5476   4.232   0.217   9.603 -3.2895  0.7044  1.4583
   41CHL1    C9 5477   4.252   0.432   9.595 -0.1347  0.1651 -0.0534
   41CHL1    H9 5478   4.360   0.411   9.610 -0.1969 -0.9888 -1.0588
   41CHL1   C10 5479   4.209   0.473   9.742 -0.0620  0.0422  0.7075
   41CHL1   C19 5480   4.057   0.457   9.741 -0.0860 -0.1005 -0.3070
   41CHL1  H19A 5481   4.025   0.351   9.731  2.3461 -0.7725 -1.2509
   41CHL1  H19B 5482   4.005   0.500   9.829 -0.9134  0.2693 -0.9740
   41CHL1  H19C 5483   4.017   0.510   9.652  0.2842 -0.8607 -0.9247
   41CHL1    C1 5484   4.269   0.367   9.837 -0.4652  0.5293 -0.4868
   41CHL1   H1A 5485   4.212   0.272   9.835  0.8074 -0.2778  0.3726
   41CHL1   H1B 5486   4.374   0.344   9.809 -0.1630  1.8989 -0.5162
   41CHL1    C2 5487   4.256   0.411   9.988 -0.4236  0.1965  0.2902
   41CHL1   H2A 5488   4.315   0.336  10.046 -0.3345  0.3892  0.4508
   41CHL1   H2B 5489   4.152   0.402  10.025 -1.0348  2.2829 -0.8216
   41CHL1   C20 5490   4.259   0.289   9.039 -0.8099  0.0198  0.2250
   41CHL1   H20 5491   4.162   0.319   8.994 -0.8936  0.8671  0.9671
   41CHL1   C21 5492   4.258   0.145   9.089  0.4680  0.3070 -0.2774
   41CHL1  H21A 5493   4.230   0.082   9.003  1.1819  0.7863 -0.8664
   41CHL1  H21B 5494   4.177   0.122   9.161  1.5001 -3.0036 -0.1059
   41CHL1  H21C 5495   4.356   0.126   9.138  0.3047 -0.0539 -0.0862
   41CHL1   C22 5496   4.354   0.304   8.911  0.2000 -0.5753 -0.1723
   41CHL1  H22A 5497   4.370   0.411   8.888  0.9051 -0.4119  1.0425
   41CHL1  H22B 5498   4.452   0.263   8.943  1.4855  2.6347  0.1590
   41CHL1   C23 5499   4.310   0.226   8.784  0.1283 -0.4307  0.2603
   41CHL1  H23A 5500   4.285   0.121   8.810 -1.4315  0.5863  3.0806
   41CHL1  H23B 5501   4.225   0.286   8.747  0.1639 -1.2569 -1.2068
   41CHL1   C24 5502   4.421   0.216   8.676 -0.4521 -0.4895 -0.1492
   41CHL1  H24A 5503   4.451   0.321   8.656  0.5997 -1.5566 -4.6735
   41CHL1  H24B 5504   4.512   0.165   8.712  0.8274  1.0301 -1.1355
   41CHL1   C25 5505   4.355   0.147   8.555 -0.6342 -0.0925  0.4556
   41CHL1   H25 5506   4.247   0.162   8.573 -1.1047 -1.2518 -1.2817
   41CHL1   C26 5507   4.407   0.191   8.419  0.4819 -0.8046  0.2183
   41CHL1  H26A 5508   4.517   0.174   8.424  0.6803  0.6402  1.1597
   41CHL1  H26B 5509   4.365   0.127   8.338 -1.0605 -1.0267  1.1831
   41CHL1  H26C 5510   4.372   0.294   8.397 -0.9120 -1.1928  0.5453
   41CHL1   C27 5511   4.391  -0.005   8.568 -0.3464 -0.9489  0.1309
   41CHL1  H27A 5512   4.368  -0.059   8.662 -0.7897 -0.8330  0.0898
   41CHL1  H27B 5513   4.344  -0.063   8.486  1.0309 -1.5760 -0.2242
   41CHL1  H27C 5514   4.500  -0.024   8.561  0.4223  0.9049  4.7908
   42CHL1    C3 5515   4.472   6.578   9.672  0.7367 -0.4983  0.2853
   42CHL1    H3 5516   4.558   6.523   9.628  1.2819  1.6360 -1.4033
   42CHL1    O3 5517   4.491   6.610   9.811  0.3577 -0.8678  0.6454
   42CHL1   H3' 5518   4.407   6.654   9.827  0.5896 -0.6603  1.3129
   42CHL1    C4 5519   4.446   6.704   9.590  0.1030 -0.4787  0.7523
   42CHL1   H4A 5520   4.356   6.753   9.633 -0.8558  0.0197 -1.7643
   42CHL1   H4B 5521   4.525   6.778   9.614 -1.4986  1.6312 -0.3657
   42CHL1    C5 5522   4.430   6.663   9.440 -0.1240 -0.0593 -0.1285
   42CHL1    C6 5523   4.507   6.710   9.336 -0.1527 -0.4968  0.3381
   42CHL1    H6 5524   4.577   6.792   9.357 -0.0377 -1.0008  1.9427
   42CHL1    C7 5525   4.481   6.662   9.192  0.5011 -0.2991  0.6396
   42CHL1   H7A 5526   4.483   6.751   9.126  1.4600 -0.1049  0.9291
   42CHL1   H7B 5527   4.561   6.596   9.154  0.0240 -0.4851 -0.0565
   42CHL1    C8 5528   4.344   6.592   9.169  0.0508  0.8162 -0.0184
   42CHL1    H8 5529   4.261   6.663   9.188  1.0692  1.8346  0.6543
   42CHL1   C14 5530   4.341   6.527   9.031  0.2275  0.1402 -0.4297
   42CHL1   H14 5531   4.435   6.468   9.033 -0.2210 -0.7085 -2.5822
   42CHL1   C15 5532   4.363   6.624   8.912 -0.4851  1.1911  0.0610
   42CHL1  H15A 5533   4.316   6.724   8.919 -0.3734  1.1600  1.3022
   42CHL1  H15B 5534   4.472   6.641   8.901 -0.1966  0.1992  1.2555
   42CHL1   C16 5535   4.319   6.535   8.785 -0.8194  0.0703 -0.0885
   42CHL1  H16A 5536   4.243   6.593   8.729  0.4730  0.1441 -1.8321
   42CHL1  H16B 5537   4.405   6.507   8.720 -1.1797  1.5685 -1.2517
   42CHL1   C17 5538   4.260   6.400   8.843  0.0829 -0.0550 -0.0407
   42CHL1   H17 5539   4.353   6.339   8.847 -0.8410 -1.3887  1.8269
   42CHL1   C13 5540   4.230   6.428   8.992 -0.3860 -0.3979  0.5326
   42CHL1   C18 5541   4.090   6.493   9.003 -0.1285 -0.2424 -0.3566
   42CHL1  H18A 5542   4.083   6.584   8.940 -3.0463 -0.1384  0.0150
   42CHL1  H18B 5543   4.006   6.424   8.981 -0.6836 -0.2120  1.5764
   42CHL1  H18C 5544   4.075   6.522   9.110  0.2809 -2.1272  0.2254
   42CHL1   C12 5545   4.250   6.321   9.095  0.0302 -0.2933 -0.5659
   42CHL1  H12A 5546   4.178   6.236   9.091 -0.7065  0.1918  1.6300
   42CHL1  H12B 5547   4.351   6.281   9.073 -0.1399 -1.5420  0.8652
   42CHL1   C11 5548   4.245   6.363   9.245  0.3602 -1.1116 -0.0909
   42CHL1  H11A 5549   4.139   6.377   9.273  0.2738 -1.9618  0.0340
   42CHL1  H11B 5550   4.274   6.279   9.312  2.3167 -2.0387 -2.0374
   42CHL1    C9 5551   4.335   6.487   9.281  0.3015  0.1027 -0.4425
   42CHL1    H9 5552   4.433   6.433   9.282  0.6055  0.6309 -1.2481
   42CHL1   C10 5553   4.320   6.550   9.420  0.1217 -0.4355 -0.7673
   42CHL1   C19 5554   4.184   6.618   9.433 -0.1193  0.4811  0.4325
   42CHL1  H19A 5555   4.175   6.723   9.396  2.5913  0.7910  0.5590
   42CHL1  H19B 5556   4.098   6.560   9.394  0.1578 -0.9305  1.8658
   42CHL1  H19C 5557   4.166   6.637   9.541 -0.5334  1.2440  0.2371
   42CHL1    C1 5558   4.333   6.434   9.525  0.0989  0.2547  0.6825
   42CHL1   H1A 5559   4.246   6.365   9.515  1.1111 -0.4197 -4.6387
   42CHL1   H1B 5560   4.411   6.362   9.493 -0.7401 -1.9788  3.4034
   42CHL1    C2 5561   4.353   6.484   9.671  1.0190  0.1564  1.3433
   42CHL1   H2A 5562   4.365   6.396   9.738 -0.7393  0.3746  1.9595
   42CHL1   H2B 5563   4.258   6.529   9.707  0.5883  1.7195 -1.5744
   42CHL1   C20 5564   4.152   6.334   8.749 -0.7099 -0.4444  0.3284
   42CHL1   H20 5565   4.065   6.400   8.731 -0.4399 -0.3353 -0.6378
   42CHL1   C21 5566   4.093   6.207   8.816  0.1326  0.6273  0.0281
   42CHL1  H21A 5567   4.025   6.232   8.900  0.5264  1.5754  0.0715
   42CHL1  H21B 5568   4.169   6.135   8.852  3.2366  3.9367  0.4508
   42CHL1  H21C 5569   4.034   6.158   8.736  1.1221 -2.9772  1.4400
   42CHL1   C22 5570   4.197   6.298   8.602  0.4212 -0.3762  0.6118
   42CHL1  H22A 5571   4.117   6.243   8.548  1.8952 -0.5090 -1.5323
   42CHL1  H22B 5572   4.225   6.392   8.550  3.4786 -0.5641  1.8090
   42CHL1   C23 5573   4.323   6.210   8.582 -0.4066 -0.3100 -0.5240
   42CHL1  H23A 5574   4.415   6.256   8.623 -0.3685  1.2244 -2.2871
   42CHL1  H23B 5575   4.305   6.109   8.625  0.2995 -0.9179 -1.6461
   42CHL1   C24 5576   4.355   6.207   8.430 -0.4796  0.8039  0.3805
   42CHL1  H24A 5577   4.279   6.147   8.377  0.4540  0.0717 -0.1584
   42CHL1  H24B 5578   4.351   6.310   8.389  0.5549  0.4386 -0.7012
   42CHL1   C25 5579   4.496   6.163   8.397  0.1751  0.0275  0.2483
   42CHL1   H25 5580   4.572   6.230   8.441  0.0646  1.2204 -1.3556
   42CHL1   C26 5581   4.531   6.025   8.451 -0.1078 -0.0542  0.2689
   42CHL1  H26A 5582   4.459   5.946   8.423 -1.0187  1.0443 -0.5624
   42CHL1  H26B 5583   4.637   5.997   8.432 -0.5867 -1.6754 -0.0826
   42CHL1  H26C 5584   4.514   6.021   8.561  1.5860  1.1731  0.5972
   42CHL1   C27 5585   4.525   6.163   8.246  0.6580  0.5843 -0.1312
   42CHL1  H27A 5586   4.503   6.267   8.213  2.5430  1.3169  0.8312
   42CHL1  H27B 5587   4.624   6.118   8.220  0.3264  0.2670 -0.8506
   42CHL1  H27C 5588   4.444   6.104   8.199  2.5174 -2.7781  0.7002
   43CHL1    C3 5589   5.039   6.761   9.770 -0.9952  0.7365  0.1464
   43CHL1    H3 5590   5.072   6.866   9.756 -0.4333  0.3187 -1.8348
   43CHL1    O3 5591   5.050   6.717   9.905 -0.1618  0.1501 -0.1180
   43CHL1   H3' 5592   4.983   6.649   9.909  0.1368 -0.0540  1.9291
   43CHL1    C4 5593   4.891   6.733   9.713 -0.0877  0.3234  0.2374
   43CHL1   H4A 5594   4.875   6.624   9.723  2.0011 -0.1104 -0.7541
   43CHL1   H4B 5595   4.824   6.786   9.784  0.6104 -0.4572  1.5150
   43CHL1    C5 5596   4.872   6.782   9.575  0.9883  0.0039 -0.0324
   43CHL1    C6 5597   4.791   6.885   9.545  0.4693  0.5257  0.2325
   43CHL1    H6 5598   4.728   6.935   9.620  0.4747  1.2307 -0.2326
   43CHL1    C7 5599   4.777   6.943   9.405  0.5036 -0.0581 -0.1504
   43CHL1   H7A 5600   4.669   6.961   9.390  0.5062  0.6552  0.6727
   43CHL1   H7B 5601   4.819   7.046   9.408  0.0428  0.2224 -2.3301
   43CHL1    C8 5602   4.852   6.872   9.294  0.3376 -0.2781 -0.7747
   43CHL1    H8 5603   4.789   6.783   9.271  0.5890 -1.0884  1.5618
   43CHL1   C14 5604   4.859   6.965   9.175  0.4772 -0.6114 -0.6876
   43CHL1   H14 5605   4.920   7.054   9.202  1.4045 -1.8525  1.4700
   43CHL1   C15 5606   4.726   7.034   9.135 -0.1646  0.7349 -0.3958
   43CHL1  H15A 5607   4.650   6.955   9.154 -1.1551  2.1822  1.8379
   43CHL1  H15B 5608   4.710   7.119   9.204 -2.5431  0.3313 -0.4076
   43CHL1   C16 5609   4.761   7.072   8.991  0.0864  0.4471 -0.4218
   43CHL1  H16A 5610   4.692   7.035   8.912 -0.7247  0.9634  0.0499
   43CHL1  H16B 5611   4.765   7.182   8.982  1.1746  0.4324 -0.1511
   43CHL1   C17 5612   4.903   7.024   8.959 -0.5274 -0.4506 -0.2294
   43CHL1   H17 5613   4.965   7.109   8.994 -0.0856  0.2435 -2.6311
   43CHL1   C13 5614   4.929   6.909   9.055  0.0845 -0.0181 -0.0920
   43CHL1   C18 5615   4.863   6.781   9.001  0.0481  0.4959 -0.3082
   43CHL1  H18A 5616   4.754   6.798   8.987 -0.6156 -2.1158  1.3382
   43CHL1  H18B 5617   4.906   6.765   8.900 -1.3995 -0.5999 -0.7606
   43CHL1  H18C 5618   4.867   6.701   9.078  1.2510 -0.5436 -1.4391
   43CHL1   C12 5619   5.074   6.878   9.105  0.2424  0.1228 -0.1591
   43CHL1  H12A 5620   5.146   6.839   9.029 -0.7234 -1.6542 -0.1897
   43CHL1  H12B 5621   5.109   6.970   9.157 -2.4244  1.0436  0.0390
   43CHL1   C11 5622   5.075   6.781   9.224 -0.3420  1.2482  0.9931
   43CHL1  H11A 5623   5.057   6.678   9.186 -0.6103  0.0043  4.2814
   43CHL1  H11B 5624   5.178   6.779   9.266 -0.5143  1.3950  1.4226
   43CHL1    C9 5625   4.980   6.832   9.344 -0.1271 -0.1949  0.4955
   43CHL1    H9 5626   5.032   6.928   9.367 -1.0065  0.1905  0.9059
   43CHL1   C10 5627   4.977   6.740   9.471  0.5804  0.0853  0.2527
   43CHL1   C19 5628   4.934   6.596   9.431 -0.2173 -0.2112  0.9289
   43CHL1  H19A 5629   4.958   6.514   9.502  1.3516 -1.0534 -0.5134
   43CHL1  H19B 5630   4.823   6.594   9.431 -0.2048 -0.8745  0.9455
   43CHL1  H19C 5631   4.965   6.562   9.330 -0.7968 -0.6622  0.9042
   43CHL1    C1 5632   5.122   6.734   9.534 -0.1847 -0.2639  0.5250
   43CHL1   H1A 5633   5.187   6.664   9.477  0.1348  2.3263 -2.4392
   43CHL1   H1B 5634   5.170   6.834   9.528  0.3493 -0.5909 -0.6957
   43CHL1    C2 5635   5.129   6.678   9.677 -0.6351  0.2774  0.1332
   43CHL1   H2A 5636   5.233   6.681   9.717 -1.6814  0.1069  2.9795
   43CHL1   H2B 5637   5.088   6.577   9.700  0.2752  0.0582  0.8265
   43CHL1   C20 5638   4.927   7.013   8.812  0.2840  0.5848 -0.8056
   43CHL1   H20 5639   4.861   6.933   8.770  0.4698 -0.7474  1.3373
   43CHL1   C21 5640   5.073   6.978   8.794  0.4154 -0.8831 -0.1415
   43CHL1  H21A 5641   5.109   6.878   8.826  1.0025 -0.1641  1.5488
   43CHL1  H21B 5642   5.134   7.053   8.849 -0.4880  0.9448 -1.5848
   43CHL1  H21C 5643   5.091   7.000   8.687 -0.1690  0.9585  0.1152
   43CHL1   C22 5644   4.884   7.140   8.737 -0.0863  0.0696  0.0864
   43CHL1  H22A 5645   4.777   7.158   8.759  0.2366  1.7550  0.3826
   43CHL1  H22B 5646   4.942   7.232   8.762  0.4724 -0.3859  0.4725
   43CHL1   C23 5647   4.885   7.124   8.581  0.1495  0.0389 -0.6991
   43CHL1  H23A 5648   4.991   7.114   8.549  0.0509  0.7901 -1.2879
   43CHL1  H23B 5649   4.841   7.026   8.556  2.3255 -0.6225 -2.1264
   43CHL1   C24 5650   4.812   7.225   8.492  0.3362 -0.6453  0.5232
   43CHL1  H24A 5651   4.702   7.225   8.507  0.2871 -1.9191  0.1932
   43CHL1  H24B 5652   4.852   7.327   8.512  0.3835 -0.4895 -0.3391
   43CHL1   C25 5653   4.825   7.210   8.333  0.0411  0.5816 -0.2597
   43CHL1   H25 5654   4.797   7.105   8.314 -1.2757  1.4139 -3.1404
   43CHL1   C26 5655   4.725   7.297   8.259 -0.0231 -0.4092 -0.1467
   43CHL1  H26A 5656   4.621   7.259   8.270  0.4342 -1.2439  1.6027
   43CHL1  H26B 5657   4.735   7.400   8.298  0.3968 -0.5990  0.2529
   43CHL1  H26C 5658   4.746   7.299   8.150 -0.7313 -2.9516 -0.3771
   43CHL1   C27 5659   4.966   7.237   8.289 -0.5075 -0.6906 -0.4810
   43CHL1  H27A 5660   4.974   7.219   8.179 -2.1838 -3.4598 -0.1789
   43CHL1  H27B 5661   4.993   7.341   8.318  0.7647 -1.2804  0.4828
   43CHL1  H27C 5662   5.038   7.165   8.333  0.3672 -0.1823 -1.0637
   44CHL1    C3 5663   5.454   0.445  10.047 -0.2826  0.3963 -0.1810
   44CHL1    H3 5664   5.497   0.352  10.002 -1.6728 -1.0387  1.3721
   44CHL1    O3 5665   5.504   0.466  10.181 -0.0925 -0.0249 -0.1927
   44CHL1   H3' 5666   5.469   0.392  10.230 -0.1520 -1.5118 -2.4103
   44CHL1    C4 5667   5.488   0.564   9.960  0.1673 -0.4031 -0.3220
   44CHL1   H4A 5668   5.455   0.651  10.021 -2.4166 -1.3447 -0.2949
   44CHL1   H4B 5669   5.597   0.578   9.946 -0.3601  2.0834 -2.6184
   44CHL1    C5 5670   5.424   0.554   9.823 -0.1869  0.0209 -0.0368
   44CHL1    C6 5671   5.492   0.569   9.708  0.4141  0.3483  1.1336
   44CHL1    H6 5672   5.599   0.592   9.709  0.4568  0.2255  0.0558
   44CHL1    C7 5673   5.427   0.550   9.572 -0.6431  0.6018  0.1121
   44CHL1   H7A 5674   5.463   0.632   9.506 -0.7622  1.6897  1.3754
   44CHL1   H7B 5675   5.443   0.456   9.516  1.4642  1.1330 -0.2073
   44CHL1    C8 5676   5.270   0.572   9.582 -0.0659  0.8349  0.1063
   44CHL1    H8 5677   5.249   0.678   9.605 -0.1788  1.3024 -2.0900
   44CHL1   C14 5678   5.201   0.542   9.451  0.1999 -0.2078 -0.2794
   44CHL1   H14 5679   5.222   0.435   9.426  0.7381  0.1179 -1.2239
   44CHL1   C15 5680   5.251   0.618   9.321  0.6313  0.4223  0.3283
   44CHL1  H15A 5681   5.267   0.725   9.348  0.8344  0.7159 -0.9091
   44CHL1  H15B 5682   5.339   0.565   9.281  0.4919 -1.6356  2.6274
   44CHL1   C16 5683   5.122   0.623   9.225  0.4973 -0.1135  0.1454
   44CHL1  H16A 5684   5.109   0.732   9.210  2.2810  0.5704  3.3305
   44CHL1  H16B 5685   5.140   0.558   9.136 -0.3906  1.3442 -1.1270
   44CHL1   C17 5686   5.001   0.560   9.305 -0.2969  0.4515  0.5449
   44CHL1   H17 5687   5.009   0.453   9.275 -0.0195  0.3047  1.1459
   44CHL1   C13 5688   5.048   0.557   9.450  0.2120 -0.0604 -0.5090
   44CHL1   C18 5689   5.018   0.702   9.508  0.0766 -0.2227  0.5451
   44CHL1  H18A 5690   5.052   0.713   9.613  0.4319  0.1416  0.3960
   44CHL1  H18B 5691   5.060   0.779   9.439  0.2417  0.3300  1.2552
   44CHL1  H18C 5692   4.910   0.727   9.503  0.1708  0.0341 -0.4009
   44CHL1   C12 5693   4.997   0.445   9.540  0.0371 -1.2439 -0.0974
   44CHL1  H12A 5694   4.891   0.471   9.562  0.3789 -0.6800  0.9650
   44CHL1  H12B 5695   5.014   0.342   9.502  2.3886 -1.3061  1.0383
   44CHL1   C11 5696   5.064   0.445   9.683  0.7265 -0.4816  0.4199
   44CHL1  H11A 5697   5.009   0.529   9.730  0.4519 -0.0027 -0.7281
   44CHL1  H11B 5698   5.039   0.355   9.743 -1.8827 -0.1309 -0.0719
   44CHL1    C9 5699   5.213   0.482   9.687  0.2717  0.3971 -0.4985
   44CHL1    H9 5700   5.260   0.382   9.675  0.2095 -0.0188  2.3848
   44CHL1   C10 5701   5.267   0.519   9.827 -0.8648  0.4484  0.1897
   44CHL1   C19 5702   5.200   0.641   9.887  0.5011 -0.6863 -0.4008
   44CHL1  H19A 5703   5.234   0.673   9.988 -2.3140  2.0961 -0.2324
   44CHL1  H19B 5704   5.230   0.721   9.816  0.8969  0.5693  1.1366
   44CHL1  H19C 5705   5.089   0.633   9.893  0.1694  1.1976 -2.8860
   44CHL1    C1 5706   5.239   0.401   9.922 -0.2913  0.0593  1.0954
   44CHL1   H1A 5707   5.131   0.402   9.950 -0.9016  0.1495 -1.2219
   44CHL1   H1B 5708   5.263   0.307   9.868 -0.4018 -0.2975  1.6622
   44CHL1    C2 5709   5.308   0.419  10.057 -0.4593 -0.1350 -0.1814
   44CHL1   H2A 5710   5.289   0.335  10.127  0.3393 -0.3692 -0.2442
   44CHL1   H2B 5711   5.246   0.498  10.106 -1.3219 -1.0130  0.1742
   44CHL1   C20 5712   4.870   0.620   9.264 -0.2294  0.1601 -0.1791
   44CHL1   H20 5713   4.873   0.727   9.293  2.9403 -0.4393  1.9380
   44CHL1   C21 5714   4.748   0.555   9.329  0.1811 -0.5474  0.7560
   44CHL1  H21A 5715   4.651   0.569   9.275 -0.4017 -2.4268  1.2956
   44CHL1  H21B 5716   4.726   0.598   9.430  1.0553  1.0258  0.2953
   44CHL1  H21C 5717   4.764   0.446   9.340  1.5245 -0.4925 -0.5573
   44CHL1   C22 5718   4.856   0.624   9.104  0.1913 -0.6813  0.6739
   44CHL1  H22A 5719   4.921   0.702   9.059 -1.0149 -1.7241 -3.0853
   44CHL1  H22B 5720   4.892   0.523   9.075 -3.1245 -2.3076  1.9169
   44CHL1   C23 5721   4.706   0.648   9.053  0.3557  0.4873  0.2687
   44CHL1  H23A 5722   4.637   0.569   9.090  0.0448  0.7825  0.3257
   44CHL1  H23B 5723   4.664   0.742   9.095 -0.8328 -0.4432  1.2105
   44CHL1   C24 5724   4.716   0.660   8.894 -0.0485 -0.0005  0.8091
   44CHL1  H24A 5725   4.779   0.748   8.869 -0.2563 -0.8958 -3.1652
   44CHL1  H24B 5726   4.779   0.571   8.869 -0.5029 -0.1982  0.3705
   44CHL1   C25 5727   4.578   0.655   8.826 -0.4221  0.1662  0.1794
   44CHL1   H25 5728   4.514   0.573   8.865 -0.1694 -0.7865 -1.3627
   44CHL1   C26 5729   4.507   0.784   8.834  0.4539 -0.9965 -0.1482
   44CHL1  H26A 5730   4.505   0.815   8.941  0.0639  1.2347 -0.7834
   44CHL1  H26B 5731   4.559   0.862   8.776 -1.3522 -0.2538 -0.7876
   44CHL1  H26C 5732   4.406   0.778   8.788  0.4304  1.7522 -0.5419
   44CHL1   C27 5733   4.596   0.627   8.673 -0.1333  0.7512 -0.0851
   44CHL1  H27A 5734   4.652   0.531   8.671 -0.6718  0.4251  0.5812
   44CHL1  H27B 5735   4.502   0.624   8.614  0.4004 -4.2080 -0.8575
   44CHL1  H27C 5736   4.662   0.707   8.632 -0.6679  1.3052  0.1215
   45CHL1    C3 5737   2.281   5.466  10.317  0.0438  0.0193 -0.3157
   45CHL1    H3 5738   2.371   5.510  10.365  0.4101 -1.4166  0.3383
   45CHL1    O3 5739   2.212   5.394  10.420  0.5177 -0.6079 -0.6954
   45CHL1   H3' 5740   2.269   5.395  10.497 -0.2343  2.0095 -0.1267
   45CHL1    C4 5741   2.202   5.588  10.265  0.3845 -0.5050  0.0419
   45CHL1   H4A 5742   2.100   5.557  10.235  0.7671 -0.6791 -1.1009
   45CHL1   H4B 5743   2.183   5.644  10.360 -0.1499 -0.2310 -0.2201
   45CHL1    C5 5744   2.243   5.668  10.149 -0.4117  0.0503  0.2111
   45CHL1    C6 5745   2.255   5.802  10.155  0.1069 -0.1291  0.7618
   45CHL1    H6 5746   2.228   5.846  10.253 -0.1988  1.2957  0.0457
   45CHL1    C7 5747   2.316   5.886  10.046 -0.6205 -0.6779 -0.0458
   45CHL1   H7A 5748   2.280   5.990  10.038  1.1067  0.0352  1.0788
   45CHL1   H7B 5749   2.425   5.899  10.066 -0.2672 -0.1381 -2.2404
   45CHL1    C8 5750   2.337   5.811   9.908 -0.0303 -0.2751 -0.1317
   45CHL1    H8 5751   2.423   5.870   9.869 -0.3886 -0.2289 -0.8656
   45CHL1   C14 5752   2.222   5.826   9.802  0.5492 -1.0680  0.7004
   45CHL1   H14 5753   2.128   5.790   9.850 -0.3672  1.7338  1.0726
   45CHL1   C15 5754   2.193   5.976   9.766  0.3723  0.4561 -0.7245
   45CHL1  H15A 5755   2.083   5.986   9.755  0.0992 -0.6154  0.8516
   45CHL1  H15B 5756   2.223   6.052   9.842  1.4459 -1.0252  0.3577
   45CHL1   C16 5757   2.248   5.995   9.625  0.1237  0.0400  1.1184
   45CHL1  H16A 5758   2.158   5.998   9.560  1.1307 -1.0894 -0.3559
   45CHL1  H16B 5759   2.306   6.089   9.609 -0.0805  0.1808  1.2054
   45CHL1   C17 5760   2.322   5.866   9.589 -0.0860  0.5623 -0.1753
   45CHL1   H17 5761   2.418   5.876   9.643 -0.4637  2.1413  0.2533
   45CHL1   C13 5762   2.241   5.756   9.665  0.3165 -0.2052 -1.2604
   45CHL1   C18 5763   2.098   5.728   9.607 -0.1749 -0.2091 -0.6432
   45CHL1  H18A 5764   2.103   5.689   9.503 -0.5922  0.1376 -0.7931
   45CHL1  H18B 5765   2.057   5.642   9.664  0.6643  1.2511  2.2263
   45CHL1  H18C 5766   2.037   5.820   9.610  1.6486  0.9930  0.1279
   45CHL1   C12 5767   2.303   5.619   9.686 -0.3471  0.3074  0.0851
   45CHL1  H12A 5768   2.229   5.539   9.706 -1.3726  1.5538  1.3457
   45CHL1  H12B 5769   2.348   5.597   9.587  0.8788  3.5640 -0.1281
   45CHL1   C11 5770   2.411   5.605   9.794 -0.4305 -0.3176  0.4030
   45CHL1  H11A 5771   2.440   5.499   9.811  1.2970  0.3061  1.3912
   45CHL1  H11B 5772   2.501   5.651   9.748 -1.0770 -0.4494 -1.0147
   45CHL1    C9 5773   2.373   5.666   9.929 -0.0718 -0.6499 -0.3662
   45CHL1    H9 5774   2.471   5.676   9.982 -1.0972 -0.8314  1.6055
   45CHL1   C10 5775   2.289   5.580  10.033  0.3505  0.3716  0.6146
   45CHL1   C19 5776   2.155   5.517   9.971 -0.6435 -1.0344  0.0285
   45CHL1  H19A 5777   2.100   5.601   9.924 -1.1874 -0.5452  1.4917
   45CHL1  H19B 5778   2.178   5.442   9.893  1.0053 -0.8564  0.3257
   45CHL1  H19C 5779   2.088   5.466  10.044  0.0563 -2.1493 -0.0840
   45CHL1    C1 5780   2.386   5.467  10.079  0.1814  0.2350 -0.3441
   45CHL1   H1A 5781   2.421   5.405   9.994 -1.5717 -0.9196 -0.2548
   45CHL1   H1B 5782   2.470   5.518  10.129  1.3830 -1.4978 -0.5424
   45CHL1    C2 5783   2.325   5.381  10.193 -0.3995  0.1318  0.3389
   45CHL1   H2A 5784   2.404   5.308  10.221 -0.2695 -0.4947 -1.6480
   45CHL1   H2B 5785   2.235   5.333  10.149 -1.3418  1.0742  1.2051
   45CHL1   C20 5786   2.354   5.846   9.444  0.3471 -0.5735  0.0137
   45CHL1   H20 5787   2.367   5.736   9.435  4.3338 -0.2096  0.5121
   45CHL1   C21 5788   2.473   5.920   9.394 -0.0222 -0.6256 -0.8118
   45CHL1  H21A 5789   2.528   5.852   9.325 -0.8941 -0.9497 -1.2003
   45CHL1  H21B 5790   2.546   5.941   9.475  0.9570 -0.7750 -1.6491
   45CHL1  H21C 5791   2.442   6.013   9.342 -0.9694 -0.7842 -0.5382
   45CHL1   C22 5792   2.237   5.877   9.339 -1.0138 -0.3712 -0.5703
   45CHL1  H22A 5793   2.138   5.838   9.371  0.2633 -1.7244  1.8858
   45CHL1  H22B 5794   2.240   5.986   9.321  3.9534 -0.0303  1.4686
   45CHL1   C23 5795   2.277   5.801   9.210  0.0839  0.5586 -0.4526
   45CHL1  H23A 5796   2.352   5.863   9.157  1.2471 -0.4519  0.0021
   45CHL1  H23B 5797   2.314   5.706   9.253  1.9258  1.8606  0.9104
   45CHL1   C24 5798   2.166   5.781   9.106 -0.0881  0.4852 -0.0544
   45CHL1  H24A 5799   2.102   5.702   9.150  1.0477 -0.2523  0.3202
   45CHL1  H24B 5800   2.099   5.867   9.084  0.5047  0.9213 -0.1721
   45CHL1   C25 5801   2.214   5.733   8.968 -0.2475  0.1287  0.5381
   45CHL1   H25 5802   2.261   5.633   8.979  0.4419  0.2713 -0.9440
   45CHL1   C26 5803   2.089   5.704   8.880 -0.3675  0.4070  0.1438
   45CHL1  H26A 5804   2.013   5.650   8.941  0.5823 -0.8240  0.2391
   45CHL1  H26B 5805   2.036   5.794   8.841  0.9546  2.6985  3.4552
   45CHL1  H26C 5806   2.116   5.640   8.794  0.5781 -0.8397  1.3640
   45CHL1   C27 5807   2.314   5.833   8.901  0.1518  0.0294 -0.6924
   45CHL1  H27A 5808   2.412   5.821   8.952 -0.5254  0.6981  0.7728
   45CHL1  H27B 5809   2.324   5.817   8.791 -0.4834 -1.9425 -0.4805
   45CHL1  H27C 5810   2.276   5.937   8.913  0.7260 -0.0959  2.5004
   46CHL1    C3 5811   5.128   3.332  10.020 -0.2416 -0.1440 -0.5067
   46CHL1    H3 5812   5.213   3.275   9.977 -0.9498 -0.0199 -2.1303
   46CHL1    O3 5813   5.144   3.326  10.157 -0.1690 -0.1338  0.0327
   46CHL1   H3' 5814   5.112   3.239  10.182  1.1579 -0.1332  1.8379
   46CHL1    C4 5815   5.107   3.472   9.971  0.4085  0.3481 -0.4352
   46CHL1   H4A 5816   5.008   3.501  10.011  0.7905 -1.5418  1.9260
   46CHL1   H4B 5817   5.178   3.543  10.020  0.0728 -0.2630  0.9357
   46CHL1    C5 5818   5.099   3.479   9.823 -0.9293  0.2012  0.3715
   46CHL1    C6 5819   5.191   3.552   9.759 -0.1396  0.4736 -0.2018
   46CHL1    H6 5820   5.270   3.602   9.817 -0.2164  0.6625 -0.2603
   46CHL1    C7 5821   5.215   3.569   9.613  0.2921  0.3346 -0.3816
   46CHL1   H7A 5822   5.216   3.676   9.582  2.0273  0.4695  0.0652
   46CHL1   H7B 5823   5.306   3.516   9.579  1.2749  0.3060  2.1395
   46CHL1    C8 5824   5.090   3.514   9.540  0.2495  0.1261  0.1616
   46CHL1    H8 5825   5.016   3.596   9.534  1.4132  1.1824 -0.0907
   46CHL1   C14 5826   5.143   3.477   9.399  0.1073  0.3081  0.1414
   46CHL1   H14 5827   5.210   3.389   9.412  0.4828  0.6980  0.9427
   46CHL1   C15 5828   5.223   3.577   9.308 -0.1653  0.2841  0.1135
   46CHL1  H15A 5829   5.177   3.678   9.310 -0.7076  0.0584 -0.6240
   46CHL1  H15B 5830   5.326   3.573   9.350 -0.3106 -1.7323  0.3171
   46CHL1   C16 5831   5.206   3.521   9.165  0.5057 -0.0963 -0.6560
   46CHL1  H16A 5832   5.181   3.604   9.095 -0.2457 -0.0278 -0.3066
   46CHL1  H16B 5833   5.306   3.484   9.134 -0.1855 -0.0058 -3.1100
   46CHL1   C17 5834   5.103   3.408   9.176  0.7046  0.2520 -0.3296
   46CHL1   H17 5835   5.160   3.313   9.191  0.4433  0.1187 -0.1874
   46CHL1   C13 5836   5.031   3.426   9.309 -0.2879  0.8693 -0.5429
   46CHL1   C18 5837   4.920   3.539   9.293 -1.2218  0.1177 -0.4114
   46CHL1  H18A 5838   4.838   3.497   9.231 -2.6856  0.5660  1.2079
   46CHL1  H18B 5839   4.873   3.588   9.381  1.0446 -0.1865  1.0203
   46CHL1  H18C 5840   4.966   3.620   9.232  0.5569 -1.3429 -1.0685
   46CHL1   C12 5841   4.967   3.296   9.374 -0.0211 -0.1163  0.3535
   46CHL1  H12A 5842   4.873   3.262   9.324  0.5971 -2.9053  0.9908
   46CHL1  H12B 5843   5.038   3.211   9.375 -0.7774 -0.8355 -2.2908
   46CHL1   C11 5844   4.916   3.326   9.520 -0.3483  0.5482 -0.5598
   46CHL1  H11A 5845   4.835   3.399   9.503 -0.2089  0.4255 -1.8800
   46CHL1  H11B 5846   4.867   3.236   9.562  0.7169 -0.0651 -0.6208
   46CHL1    C9 5847   5.031   3.385   9.608  0.7007  0.6546  0.5453
   46CHL1    H9 5848   5.106   3.304   9.594 -0.6836 -0.5944  0.3073
   46CHL1   C10 5849   4.993   3.396   9.761 -0.1442  0.6678 -0.2125
   46CHL1   C19 5850   4.860   3.470   9.776  0.5619  0.5044 -0.1778
   46CHL1  H19A 5851   4.868   3.577   9.750  0.0917  0.4876 -0.3992
   46CHL1  H19B 5852   4.780   3.427   9.712  1.0827 -0.0289 -0.4815
   46CHL1  H19C 5853   4.831   3.464   9.883  3.0630 -1.0408  0.4602
   46CHL1    C1 5854   4.987   3.255   9.824 -0.3320  0.2736 -0.5361
   46CHL1   H1A 5855   4.895   3.196   9.802 -0.3114 -0.0856  0.2952
   46CHL1   H1B 5856   5.078   3.200   9.792 -1.8224 -1.8476 -1.2354
   46CHL1    C2 5857   5.005   3.252   9.983  0.1954 -0.3682 -0.0834
   46CHL1   H2A 5858   5.012   3.149  10.024  2.9816 -0.3494 -0.3939
   46CHL1   H2B 5859   4.915   3.301  10.027  0.4085 -1.7101  1.8755
   46CHL1   C20 5860   5.016   3.378   9.052  0.2171  0.3806  0.1151
   46CHL1   H20 5861   4.926   3.329   9.093 -0.2484 -0.4748 -1.8887
   46CHL1   C21 5862   5.106   3.282   8.966  0.1577 -0.1100 -0.2852
   46CHL1  H21A 5863   5.076   3.270   8.860 -0.4259 -1.6471  0.0517
   46CHL1  H21B 5864   5.103   3.182   9.015  2.4735  0.0907  0.3520
   46CHL1  H21C 5865   5.212   3.312   8.983 -0.2434  0.9850  0.3027
   46CHL1   C22 5866   4.970   3.492   8.956 -0.9524  0.3547  0.1672
   46CHL1  H22A 5867   4.945   3.579   9.020 -0.0885  1.4765 -1.0038
   46CHL1  H22B 5868   5.057   3.522   8.894 -0.5208 -0.4378  0.3822
   46CHL1   C23 5869   4.860   3.441   8.864 -0.7717  0.4416 -0.5088
   46CHL1  H23A 5870   4.899   3.394   8.771 -3.5883 -0.1945 -1.4223
   46CHL1  H23B 5871   4.802   3.362   8.917  0.7337 -0.5714 -0.3682
   46CHL1   C24 5872   4.761   3.551   8.831  0.2087 -0.2939  0.4855
   46CHL1  H24A 5873   4.682   3.507   8.766  1.9618 -2.3684 -0.3033
   46CHL1  H24B 5874   4.702   3.583   8.920 -0.5559 -1.9448  0.5870
   46CHL1   C25 5875   4.819   3.680   8.761  0.3951  0.9608  0.5148
   46CHL1   H25 5876   4.892   3.714   8.837  1.5552  0.1470 -0.2197
   46CHL1   C26 5877   4.887   3.647   8.625  0.4891  0.5550 -0.3725
   46CHL1  H26A 5878   4.973   3.580   8.645 -1.2555 -1.3238  0.9448
   46CHL1  H26B 5879   4.812   3.595   8.562 -0.9245 -0.1054  1.8167
   46CHL1  H26C 5880   4.924   3.742   8.579  0.1641  0.0693 -1.6629
   46CHL1   C27 5881   4.720   3.795   8.739  0.1658 -0.4403 -0.3958
   46CHL1  H27A 5882   4.770   3.871   8.676  1.1476 -0.2196  0.6382
   46CHL1  H27B 5883   4.630   3.750   8.692 -1.0681  1.6581 -0.1079
   46CHL1  H27C 5884   4.686   3.838   8.835  0.7288  0.0128 -0.3963
   47CHL1    C3 5885   5.529   6.722  10.000 -0.2137  0.4834 -0.1977
   47CHL1    H3 5886   5.429   6.680   9.979  0.2298 -0.9987  0.5521
   47CHL1    O3 5887   5.543   6.688  10.139  0.3248 -0.6012 -0.0217
   47CHL1   H3' 5888   5.530   6.593  10.144  0.7246 -0.7522 -1.5050
   47CHL1    C4 5889   5.643   6.667   9.924 -0.0558 -0.2866  0.2878
   47CHL1   H4A 5890   5.726   6.725   9.970  0.7943 -0.8039 -0.6014
   47CHL1   H4B 5891   5.656   6.561   9.955 -0.1374 -0.6016 -0.7366
   47CHL1    C5 5892   5.640   6.691   9.777  0.5785  0.1690  0.4877
   47CHL1    C6 5893   5.639   6.594   9.687  0.1595  0.5291 -0.1421
   47CHL1    H6 5894   5.641   6.489   9.719 -2.5937  0.0688 -1.3304
   47CHL1    C7 5895   5.611   6.616   9.537  0.0664  0.1315  0.0283
   47CHL1   H7A 5896   5.669   6.555   9.465  1.4372  0.1011  1.1351
   47CHL1   H7B 5897   5.508   6.579   9.519  0.2240 -0.2909  0.0111
   47CHL1    C8 5898   5.627   6.758   9.488 -0.0783  0.4169 -0.1507
   47CHL1    H8 5899   5.736   6.783   9.488 -0.0000  0.1858  2.2461
   47CHL1   C14 5900   5.569   6.786   9.347  0.0313  0.3157 -0.0758
   47CHL1   H14 5901   5.461   6.764   9.358  0.0648 -1.4023 -2.6733
   47CHL1   C15 5902   5.618   6.693   9.232 -0.2651  0.1137  0.3333
   47CHL1  H15A 5903   5.724   6.663   9.239 -0.4867 -0.9149 -0.6066
   47CHL1  H15B 5904   5.556   6.600   9.232 -1.6465  1.0133 -0.5835
   47CHL1   C16 5905   5.584   6.768   9.107 -0.3614  0.4529  0.7762
   47CHL1  H16A 5906   5.670   6.770   9.036  1.2597 -0.1160  2.7008
   47CHL1  H16B 5907   5.497   6.721   9.057  0.1168  0.2554  0.1186
   47CHL1   C17 5908   5.527   6.903   9.152  0.1211  0.0772  0.7407
   47CHL1   H17 5909   5.420   6.880   9.174 -0.5692  1.7641 -0.7208
   47CHL1   C13 5910   5.590   6.926   9.296 -0.3823 -0.4978  0.3649
   47CHL1   C18 5911   5.744   6.964   9.277  0.1862  0.4719  0.0775
   47CHL1  H18A 5912   5.739   7.074   9.269 -1.1106  0.3152 -1.7505
   47CHL1  H18B 5913   5.790   6.927   9.371  0.1951 -2.9194 -1.1684
   47CHL1  H18C 5914   5.790   6.917   9.187 -0.0348 -1.4063  0.9123
   47CHL1   C12 5915   5.513   7.016   9.392 -0.0756  0.1815 -0.3953
   47CHL1  H12A 5916   5.528   7.124   9.367  1.0422  0.0572 -0.3125
   47CHL1  H12B 5917   5.404   6.996   9.391 -0.4615  1.7693  3.1019
   47CHL1   C11 5918   5.566   7.005   9.537  0.1050 -0.1294  0.2552
   47CHL1  H11A 5919   5.670   7.041   9.544  0.4032 -0.7318 -0.8555
   47CHL1  H11B 5920   5.505   7.067   9.606 -1.1340 -1.4575  0.3800
   47CHL1    C9 5921   5.557   6.857   9.586  0.3107 -0.0619  0.3510
   47CHL1    H9 5922   5.448   6.832   9.591 -0.0854  1.6082  0.3187
   47CHL1   C10 5923   5.605   6.842   9.736 -0.0503  0.0721  0.5083
   47CHL1   C19 5924   5.732   6.930   9.753  0.3373  0.9788 -0.5136
   47CHL1  H19A 5925   5.802   6.910   9.669  0.1799 -0.0680 -0.4006
   47CHL1  H19B 5926   5.696   7.035   9.753 -0.2251  0.7829 -1.0625
   47CHL1  H19C 5927   5.787   6.908   9.847  1.0762  0.6455 -1.0171
   47CHL1    C1 5928   5.501   6.909   9.836 -0.4916 -0.0548  0.2364
   47CHL1   H1A 5929   5.477   7.016   9.816 -1.6561 -0.6352 -1.6155
   47CHL1   H1B 5930   5.406   6.853   9.828  0.8749 -2.4308  0.3826
   47CHL1    C2 5931   5.523   6.875   9.984  0.1776  1.1039  0.6396
   47CHL1   H2A 5932   5.452   6.930  10.050 -0.2836 -0.0459  1.0979
   47CHL1   H2B 5933   5.625   6.911  10.011  1.1132 -1.0937  0.1144
   47CHL1   C20 5934   5.536   7.016   9.048 -1.0450  0.5481  0.4036
   47CHL1   H20 5935   5.633   7.069   9.058 -0.4326 -0.6357  0.8109
   47CHL1   C21 5936   5.434   7.124   9.082  0.3052 -0.3364  0.2638
   47CHL1  H21A 5937   5.456   7.218   9.027  0.3873 -0.7895 -0.4851
   47CHL1  H21B 5938   5.430   7.148   9.191 -3.3136 -0.7111  0.2789
   47CHL1  H21C 5939   5.336   7.087   9.045  1.6954 -2.9556 -0.8877
   47CHL1   C22 5940   5.529   6.971   8.898 -1.2499  0.8344 -0.2569
   47CHL1  H22A 5941   5.601   6.893   8.864 -0.9035  0.7901  0.5749
   47CHL1  H22B 5942   5.434   6.920   8.871 -0.6669 -0.5854  0.3212
   47CHL1   C23 5943   5.550   7.087   8.797 -0.5459 -0.1751 -0.1948
   47CHL1  H23A 5944   5.456   7.147   8.793 -0.0154  0.5653 -1.7865
   47CHL1  H23B 5945   5.624   7.155   8.844 -0.1002 -1.9461  1.7330
   47CHL1   C24 5946   5.595   7.061   8.652  0.1850  0.2381  0.0267
   47CHL1  H24A 5947   5.609   7.163   8.610 -0.6832  0.3657  0.0401
   47CHL1  H24B 5948   5.693   7.010   8.649  1.5449  2.5263  3.0689
   47CHL1   C25 5949   5.492   6.990   8.558  0.0046  0.3222 -0.3367
   47CHL1   H25 5950   5.457   6.903   8.617 -0.1273 -1.2470 -2.6461
   47CHL1   C26 5951   5.372   7.082   8.527 -0.6292 -0.5446 -0.2278
   47CHL1  H26A 5952   5.417   7.170   8.477 -0.8713 -0.1486  0.2452
   47CHL1  H26B 5953   5.324   7.122   8.619  1.5162  2.2432 -0.2648
   47CHL1  H26C 5954   5.303   7.023   8.464 -3.3905  0.8784  1.3656
   47CHL1   C27 5955   5.562   6.940   8.432  0.3614 -0.6751 -0.0553
   47CHL1  H27A 5956   5.652   6.882   8.458  0.1481 -1.8185 -1.7799
   47CHL1  H27B 5957   5.478   6.893   8.376 -0.9782  2.0156 -0.4045
   47CHL1  H27C 5958   5.597   7.023   8.366 -1.4102 -0.3221 -0.5956
   48CHL1    C3 5959   6.412   0.708  10.071  0.1523 -0.1749  0.7714
   48CHL1    H3 5960   6.494   0.782  10.059 -1.2398  1.3213  0.3577
   48CHL1    O3 5961   6.370   0.675  10.206 -0.4172  0.4447 -0.0343
   48CHL1   H3' 5962   6.456   0.666  10.248 -0.0489  0.7067 -0.7169
   48CHL1    C4 5963   6.290   0.743   9.992 -0.1633  0.2226  0.8083
   48CHL1   H4A 5964   6.205   0.672   9.997 -0.3203  0.5193  2.3292
   48CHL1   H4B 5965   6.254   0.843  10.023 -0.7080  0.4292 -0.4695
   48CHL1    C5 5966   6.341   0.762   9.851  0.1546  0.7089 -0.5177
   48CHL1    C6 5967   6.310   0.866   9.778  0.6088  0.0996 -0.1777
   48CHL1    H6 5968   6.242   0.943   9.817  0.5480  0.7672 -1.5741
   48CHL1    C7 5969   6.337   0.891   9.638 -0.6070 -0.3167 -0.2440
   48CHL1   H7A 5970   6.252   0.938   9.582  0.2196  0.4035 -0.9156
   48CHL1   H7B 5971   6.425   0.958   9.629 -0.3068 -0.5377  0.9756
   48CHL1    C8 5972   6.363   0.755   9.555 -0.2690  0.4540 -0.6327
   48CHL1    H8 5973   6.269   0.697   9.542  0.9927 -1.2633 -2.2505
   48CHL1   C14 5974   6.413   0.768   9.411  0.1241 -0.0064  0.9185
   48CHL1   H14 5975   6.514   0.812   9.420  0.6469 -1.5374  3.0421
   48CHL1   C15 5976   6.326   0.846   9.312 -0.8527 -0.0326 -0.0827
   48CHL1  H15A 5977   6.222   0.810   9.328 -0.3624 -2.3889 -1.9440
   48CHL1  H15B 5978   6.334   0.956   9.328 -2.4627 -0.2471  2.5686
   48CHL1   C16 5979   6.378   0.800   9.176  0.6034  0.1598 -0.3364
   48CHL1  H16A 5980   6.284   0.763   9.131  0.5925  0.2802 -0.4108
   48CHL1  H16B 5981   6.407   0.879   9.104  1.8381  0.1754  0.1650
   48CHL1   C17 5982   6.480   0.679   9.201  0.2825 -0.2841 -0.5604
   48CHL1   H17 5983   6.583   0.721   9.199  0.9473 -1.8499 -0.0940
   48CHL1   C13 5984   6.442   0.634   9.342  0.1814  0.3861  0.1726
   48CHL1   C18 5985   6.321   0.544   9.327  0.1580  0.4768 -0.4573
   48CHL1  H18A 5986   6.267   0.530   9.423  1.2515  0.9812  0.2450
   48CHL1  H18B 5987   6.241   0.588   9.263  0.6161  1.1619 -0.5625
   48CHL1  H18C 5988   6.344   0.440   9.294  0.6562  1.3307 -2.9212
   48CHL1   C12 5989   6.563   0.575   9.412 -0.0708  0.0653  0.6567
   48CHL1  H12A 5990   6.599   0.474   9.384 -0.5635 -0.2323  1.0700
   48CHL1  H12B 5991   6.645   0.649   9.410 -0.5270  0.5192 -2.2722
   48CHL1   C11 5992   6.532   0.550   9.568  0.2512 -0.6154  0.3422
   48CHL1  H11A 5993   6.461   0.464   9.563  0.3389 -0.7134  0.7912
   48CHL1  H11B 5994   6.618   0.524   9.633 -0.1484  1.3255  1.6836
   48CHL1    C9 5995   6.462   0.671   9.638 -0.6422 -0.6350 -0.2088
   48CHL1    H9 5996   6.549   0.740   9.646  0.3024 -1.6881 -1.2002
   48CHL1   C10 5997   6.419   0.643   9.783 -0.0888  0.4562  0.1854
   48CHL1   C19 5998   6.310   0.529   9.774 -0.6499  0.1399 -0.1318
   48CHL1  H19A 5999   6.284   0.506   9.880  0.5775 -3.2795 -0.4944
   48CHL1  H19B 6000   6.221   0.557   9.714 -0.5712  1.1449  0.2193
   48CHL1  H19C 6001   6.366   0.438   9.741 -0.5524  0.5774 -1.1873
   48CHL1    C1 6002   6.535   0.595   9.873  0.0639  0.0517  0.1113
   48CHL1   H1A 6003   6.575   0.495   9.847  2.0643  0.1161  2.7138
   48CHL1   H1B 6004   6.619   0.667   9.869 -1.7220  2.2255  0.4160
   48CHL1    C2 6005   6.486   0.582  10.027  0.0705  0.3210  0.1265
   48CHL1   H2A 6006   6.565   0.553  10.100  0.5300  2.3470  0.4547
   48CHL1   H2B 6007   6.418   0.494  10.036  1.2415 -0.7563 -1.2858
   48CHL1   C20 6008   6.485   0.583   9.073 -0.2835  0.7718  0.0422
   48CHL1   H20 6009   6.383   0.543   9.054 -0.3419  0.4735  0.9434
   48CHL1   C21 6010   6.586   0.475   9.098 -0.6074  0.4782 -0.0787
   48CHL1  H21A 6011   6.690   0.511   9.114 -0.1205 -0.9206 -0.0179
   48CHL1  H21B 6012   6.590   0.414   9.006 -0.5005  0.2387  0.0836
   48CHL1  H21C 6013   6.557   0.409   9.183 -2.2884  0.2833 -0.7752
   48CHL1   C22 6014   6.523   0.664   8.947 -0.2862 -0.3644  0.8628
   48CHL1  H22A 6015   6.498   0.771   8.962 -0.9230 -0.7981  3.1016
   48CHL1  H22B 6016   6.634   0.663   8.948 -0.2656 -2.2318 -0.3721
   48CHL1   C23 6017   6.470   0.601   8.825  0.1160 -0.0364  0.3310
   48CHL1  H23A 6018   6.516   0.499   8.823  0.8285  0.1929  2.9944
   48CHL1  H23B 6019   6.361   0.581   8.823 -0.1778  1.6467 -0.9642
   48CHL1   C24 6020   6.511   0.689   8.704 -0.1283 -0.8782  0.2279
   48CHL1  H24A 6021   6.475   0.792   8.725 -1.2207 -0.6717 -2.4357
   48CHL1  H24B 6022   6.622   0.694   8.697 -0.1889 -0.8495 -0.7990
   48CHL1   C25 6023   6.443   0.632   8.576 -0.1548  0.3214 -0.4713
   48CHL1   H25 6024   6.455   0.522   8.568 -0.9181  0.1951  0.1216
   48CHL1   C26 6025   6.303   0.682   8.568  0.0110  0.1398 -0.5310
   48CHL1  H26A 6026   6.301   0.792   8.576  0.9968  0.1622 -0.5571
   48CHL1  H26B 6027   6.251   0.651   8.475 -1.5639  1.2262 -0.0336
   48CHL1  H26C 6028   6.237   0.644   8.649 -0.6957 -0.7053 -1.4823
   48CHL1   C27 6029   6.526   0.683   8.457  0.5826 -0.4267 -0.5377
   48CHL1  H27A 6030   6.517   0.620   8.366  1.0016 -1.2382 -0.0225
   48CHL1  H27B 6031   6.499   0.789   8.437  0.3794 -0.3125  0.3351
   48CHL1  H27C 6032   6.630   0.684   8.495  0.4296 -0.0624 -0.1294
   49CHL1    C3 6033   4.583   3.181  10.208  0.0078  0.4109 -0.0694
   49CHL1    H3 6034   4.646   3.273  10.213 -0.5453  0.7920 -0.0233
   49CHL1    O3 6035   4.579   3.112  10.334  0.2354  0.2928  0.4133
   49CHL1   H3' 6036   4.636   3.036  10.326 -0.1839 -0.2193  1.9716
   49CHL1    C4 6037   4.439   3.213  10.175  0.1614  0.9376 -0.2232
   49CHL1   H4A 6038   4.387   3.116  10.188  1.7404 -0.1916 -2.1447
   49CHL1   H4B 6039   4.405   3.288  10.250  0.1650  0.7237 -0.0108
   49CHL1    C5 6040   4.415   3.258  10.035 -0.4943 -0.4405 -0.8681
   49CHL1    C6 6041   4.336   3.370  10.011  0.3754  0.0242  0.0280
   49CHL1    H6 6042   4.290   3.416  10.100 -1.2059  0.4259 -0.9906
   49CHL1    C7 6043   4.297   3.414   9.868  0.0246  0.1548  0.1961
   49CHL1   H7A 6044   4.186   3.411   9.860  0.0435 -0.9014  0.2543
   49CHL1   H7B 6045   4.340   3.511   9.837  1.4325 -0.7166 -0.6613
   49CHL1    C8 6046   4.346   3.315   9.753 -0.1016 -0.2166  0.0779
   49CHL1    H8 6047   4.268   3.238   9.767  0.0705 -0.3574  0.2589
   49CHL1   C14 6048   4.335   3.373   9.615  0.1427 -0.0097  0.4796
   49CHL1   H14 6049   4.419   3.446   9.612  0.2790  0.1906  5.4060
   49CHL1   C15 6050   4.204   3.449   9.573  0.6352  0.4480 -0.7166
   49CHL1  H15A 6051   4.117   3.404   9.626  2.0910 -0.6932  0.7407
   49CHL1  H15B 6052   4.221   3.554   9.607  2.5392 -0.0524 -0.0696
   49CHL1   C16 6053   4.201   3.430   9.419  0.0218  0.3165  0.2774
   49CHL1  H16A 6054   4.116   3.360   9.402  0.3011  0.4959 -2.0765
   49CHL1  H16B 6055   4.193   3.530   9.370 -0.7203  0.2219  0.1917
   49CHL1   C17 6056   4.327   3.346   9.379 -0.1363 -0.4061 -0.3987
   49CHL1   H17 6057   4.402   3.425   9.357 -0.2331 -0.0404  0.5581
   49CHL1   C13 6058   4.365   3.269   9.506 -0.0347  0.2782 -0.6414
   49CHL1   C18 6059   4.259   3.151   9.517  0.5146 -0.3602 -0.4001
   49CHL1  H18A 6060   4.263   3.112   9.621  0.5765 -0.0359 -0.2776
   49CHL1  H18B 6061   4.154   3.177   9.489 -0.0626 -0.6243  1.4469
   49CHL1  H18C 6062   4.292   3.074   9.445  1.0470 -1.0483  0.5603
   49CHL1   C12 6063   4.511   3.221   9.530 -0.2144  0.6550 -0.2997
   49CHL1  H12A 6064   4.546   3.153   9.449  2.8534  0.3095  1.2366
   49CHL1  H12B 6065   4.582   3.306   9.522 -0.2506  0.8569  1.4181
   49CHL1   C11 6066   4.538   3.162   9.663 -0.1890 -0.3249 -0.9205
   49CHL1  H11A 6067   4.485   3.064   9.665 -1.7157  0.5084  0.8485
   49CHL1  H11B 6068   4.646   3.158   9.686 -0.5794 -0.1177  1.0066
   49CHL1    C9 6069   4.481   3.254   9.781 -0.1207 -0.0039 -0.0265
   49CHL1    H9 6070   4.554   3.338   9.782 -0.9125  0.6774  1.8284
   49CHL1   C10 6071   4.487   3.185   9.919 -0.0095 -0.1725  0.5638
   49CHL1   C19 6072   4.425   3.036   9.902 -0.1141  0.0203 -0.0135
   49CHL1  H19A 6073   4.384   3.001   9.999  0.3009  0.8165  0.4572
   49CHL1  H19B 6074   4.347   3.028   9.824  0.6374  0.3012 -0.8107
   49CHL1  H19C 6075   4.500   2.956   9.881 -1.3681 -1.1014 -0.2575
   49CHL1    C1 6076   4.629   3.152   9.972 -0.6213 -0.0617  0.2361
   49CHL1   H1A 6077   4.687   3.092   9.898 -2.2108 -0.5970 -0.6118
   49CHL1   H1B 6078   4.685   3.246   9.957 -0.5575 -0.4529 -2.1695
   49CHL1    C2 6079   4.646   3.088  10.110 -0.1843 -0.2737  0.1775
   49CHL1   H2A 6080   4.754   3.071  10.132 -0.2032 -2.7527 -1.4507
   49CHL1   H2B 6081   4.579   2.999  10.115  1.4845 -1.5673  0.0845
   49CHL1   C20 6082   4.308   3.258   9.252 -0.1718  0.4782  0.3038
   49CHL1   H20 6083   4.227   3.185   9.273 -1.3753  0.8998 -2.5917
   49CHL1   C21 6084   4.434   3.186   9.205  0.4504  0.4067 -0.1343
   49CHL1  H21A 6085   4.460   3.102   9.274 -2.7347 -0.2817  0.3123
   49CHL1  H21B 6086   4.514   3.262   9.197 -0.7637  1.5144 -2.2157
   49CHL1  H21C 6087   4.427   3.141   9.104 -1.4001  0.1519  0.0744
   49CHL1   C22 6088   4.251   3.346   9.133  0.1194 -0.2757  0.1757
   49CHL1  H22A 6089   4.163   3.389   9.185  0.4432  1.5244 -0.7399
   49CHL1  H22B 6090   4.317   3.430   9.103 -0.0878 -0.0265  0.4171
   49CHL1   C23 6091   4.194   3.278   9.010  0.5585  0.4062  0.0968
   49CHL1  H23A 6092   4.140   3.345   8.940  0.1455  0.9822  0.9532
   49CHL1  H23B 6093   4.269   3.223   8.949 -2.5856  1.8552 -5.3882
   49CHL1   C24 6094   4.076   3.186   9.050 -0.5018  0.4744  0.2257
   49CHL1  H24A 6095   4.111   3.108   9.122 -0.7013  0.7504  0.6236
   49CHL1  H24B 6096   4.005   3.252   9.104 -0.4330 -1.8531  3.3075
   49CHL1   C25 6097   3.997   3.135   8.925 -0.4174  0.1648 -0.2229
   49CHL1   H25 6098   3.980   3.220   8.856  2.2171  0.7690 -0.1953
   49CHL1   C26 6099   4.084   3.041   8.844 -0.2255 -0.7575 -0.6935
   49CHL1  H26A 6100   4.125   2.959   8.908 -1.0170 -1.0780 -0.5994
   49CHL1  H26B 6101   4.024   2.994   8.763 -0.4091  2.1572 -2.2897
   49CHL1  H26C 6102   4.158   3.114   8.805 -0.3280  0.3632  1.1417
   49CHL1   C27 6103   3.860   3.081   8.954  0.1107 -0.1442 -0.4779
   49CHL1  H27A 6104   3.864   2.992   9.020  0.2997  0.2028 -0.0219
   49CHL1  H27B 6105   3.807   3.157   9.015 -0.6046 -0.3444 -0.8501
   49CHL1  H27C 6106   3.813   3.059   8.856 -0.3821 -3.7476  0.4609
   50CHL1    C3 6107   1.020   4.756  10.192 -0.0388  0.1750 -0.1120
   50CHL1    H3 6108   0.939   4.690  10.155 -0.5944  2.4250 -3.1236
   50CHL1    O3 6109   1.060   4.729  10.326 -0.1967 -0.5531 -0.1662
   50CHL1   H3' 6110   1.116   4.804  10.349 -0.8573 -0.0146 -0.2763
   50CHL1    C4 6111   1.147   4.736  10.098  0.4045  0.3790 -0.4818
   50CHL1   H4A 6112   1.237   4.796  10.124  0.2354 -0.7285  2.8743
   50CHL1   H4B 6113   1.187   4.633  10.101 -0.7750 -0.0589  1.1563
   50CHL1    C5 6114   1.112   4.770   9.955  0.5252 -0.4976  0.0812
   50CHL1    C6 6115   1.114   4.678   9.858 -0.2910 -0.2256  0.2057
   50CHL1    H6 6116   1.134   4.576   9.892 -0.9302 -0.5750 -0.4544
   50CHL1    C7 6117   1.083   4.701   9.712  0.3487  0.3531 -0.5929
   50CHL1   H7A 6118   1.155   4.638   9.655  1.4681 -0.2466  1.4518
   50CHL1   H7B 6119   0.977   4.671   9.697  0.3991 -0.5622  0.8188
   50CHL1    C8 6120   1.097   4.850   9.673  0.9781 -0.5481 -0.1647
   50CHL1    H8 6121   1.204   4.877   9.662  1.1402 -0.9183  0.4749
   50CHL1   C14 6122   1.030   4.868   9.541 -0.4026 -0.3961 -0.0319
   50CHL1   H14 6123   0.927   4.835   9.565 -0.4181  0.5434  1.2578
   50CHL1   C15 6124   1.093   4.792   9.421  1.1977  0.3954  0.4914
   50CHL1  H15A 6125   1.202   4.802   9.437  1.2497  2.0271 -0.8413
   50CHL1  H15B 6126   1.073   4.683   9.415  0.5741  0.6109 -1.5481
   50CHL1   C16 6127   1.045   4.864   9.299 -0.2951 -0.7163  0.3676
   50CHL1  H16A 6128   1.132   4.890   9.235 -0.6254 -1.7871 -0.5457
   50CHL1  H16B 6129   0.972   4.813   9.232  1.6815 -0.7076 -1.8336
   50CHL1   C17 6130   0.970   4.991   9.347  0.5661  0.3849 -0.8922
   50CHL1   H17 6131   0.862   4.963   9.350  1.1555 -1.8089  0.5516
   50CHL1   C13 6132   1.015   5.010   9.497 -0.2442 -0.1696 -1.2032
   50CHL1   C18 6133   1.150   5.087   9.488 -0.7130 -0.5913 -0.2129
   50CHL1  H18A 6134   1.211   5.061   9.577 -0.8003  0.3599  0.1236
   50CHL1  H18B 6135   1.199   5.050   9.395  2.0580 -0.7099  1.2370
   50CHL1  H18C 6136   1.132   5.197   9.484  1.8336  0.0158  2.8993
   50CHL1   C12 6137   0.916   5.084   9.603 -0.0399 -0.4000  0.3804
   50CHL1  H12A 6138   0.913   5.188   9.564  2.4872 -0.8596 -1.2399
   50CHL1  H12B 6139   0.814   5.041   9.596  0.4105 -1.7141  1.6900
   50CHL1   C11 6140   0.971   5.077   9.742 -0.3125  0.1650  0.3935
   50CHL1  H11A 6141   1.061   5.142   9.738 -1.1392  1.3470  0.6789
   50CHL1  H11B 6142   0.903   5.121   9.818 -1.7544 -1.3228 -0.0096
   50CHL1    C9 6143   1.019   4.934   9.781  0.4171 -0.3730 -1.0061
   50CHL1    H9 6144   0.926   4.875   9.796 -0.4115  1.3942  1.0673
   50CHL1   C10 6145   1.066   4.915   9.931 -0.3471 -0.3333 -0.1323
   50CHL1   C19 6146   1.172   5.026   9.941 -0.8419 -0.0287  0.1515
   50CHL1  H19A 6147   1.128   5.126   9.960 -0.2053  0.4369 -0.7465
   50CHL1  H19B 6148   1.251   5.006  10.016 -1.0184  3.8439  1.5246
   50CHL1  H19C 6149   1.232   5.038   9.848  2.5145  2.4884  2.5385
   50CHL1    C1 6150   0.946   4.924  10.027 -0.0259  0.1621 -0.1017
   50CHL1   H1A 6151   0.910   5.029  10.035  0.9700  0.4531  0.6220
   50CHL1   H1B 6152   0.849   4.874  10.003 -0.3788  0.0809  1.4916
   50CHL1    C2 6153   0.983   4.904  10.179  0.3670 -0.1165  0.0876
   50CHL1   H2A 6154   0.896   4.931  10.243 -2.1567 -3.3439 -1.7896
   50CHL1   H2B 6155   1.065   4.976  10.198 -2.3124  3.2368 -0.6691
   50CHL1   C20 6156   0.973   5.107   9.245 -0.3156 -0.0180 -0.5997
   50CHL1   H20 6157   1.079   5.138   9.234 -0.7978  1.7515 -0.3414
   50CHL1   C21 6158   0.893   5.237   9.303 -0.1798  0.6640  0.5411
   50CHL1  H21A 6159   0.904   5.318   9.227  0.9454 -0.1300 -0.1630
   50CHL1  H21B 6160   0.939   5.268   9.399  0.3072 -2.4971  1.3783
   50CHL1  H21C 6161   0.785   5.227   9.324 -0.5964  0.2213 -1.6480
   50CHL1   C22 6162   0.913   5.065   9.117 -0.5398 -0.3286 -0.0320
   50CHL1  H22A 6163   0.969   4.979   9.075  2.7569  1.7772 -0.1341
   50CHL1  H22B 6164   0.805   5.046   9.133  0.0961 -0.0094  5.3950
   50CHL1   C23 6165   0.938   5.168   9.002  0.3154  0.0032 -0.0810
   50CHL1  H23A 6166   0.894   5.270   9.016 -0.3183 -0.2612 -0.1294
   50CHL1  H23B 6167   1.047   5.188   8.993  0.5701 -0.9568  0.8173
   50CHL1   C24 6168   0.885   5.114   8.862  0.1072  0.1258 -0.1176
   50CHL1  H24A 6169   0.934   5.015   8.851  2.4774  1.0447  1.5676
   50CHL1  H24B 6170   0.778   5.087   8.875  0.4808 -2.5163 -2.1332
   50CHL1   C25 6171   0.928   5.205   8.747 -0.0507 -0.5428 -0.2123
   50CHL1   H25 6172   1.035   5.225   8.763  0.6291 -2.1195 -2.4788
   50CHL1   C26 6173   0.940   5.133   8.608  0.3190 -0.0488  0.4055
   50CHL1  H26A 6174   0.836   5.120   8.571 -0.4507 -0.3714  2.6544
   50CHL1  H26B 6175   0.989   5.194   8.529  2.3119 -1.2809  0.6652
   50CHL1  H26C 6176   0.986   5.033   8.623  2.1806  0.5937 -0.7595
   50CHL1   C27 6177   0.857   5.340   8.736  0.7117  0.2452  0.3525
   50CHL1  H27A 6178   0.901   5.396   8.650 -0.8801 -0.8553 -1.2138
   50CHL1  H27B 6179   0.751   5.324   8.708  0.8713 -0.8216  0.3570
   50CHL1  H27C 6180   0.850   5.395   8.832  1.3938 -1.0109  1.1261
   51CHL1    C3 6181   2.315   0.206  10.194  0.4759 -1.0856 -0.7271
   51CHL1    H3 6182   2.333   0.097  10.201  1.5707 -1.0627 -2.8542
   51CHL1    O3 6183   2.274   0.254  10.323  0.6202  0.0786 -0.1529
   51CHL1   H3' 6184   2.331   0.209  10.386  0.8022 -0.0939 -0.4407
   51CHL1    C4 6185   2.446   0.284  10.144  0.0581 -0.0963 -0.2899
   51CHL1   H4A 6186   2.434   0.392  10.165 -0.9669 -0.2399 -0.1086
   51CHL1   H4B 6187   2.520   0.237  10.212 -1.8480  0.7867  2.4779
   51CHL1    C5 6188   2.473   0.278   9.997  0.4613  0.6094 -0.5542
   51CHL1    C6 6189   2.594   0.238   9.956  0.1666 -1.0450  0.1901
   51CHL1    H6 6190   2.675   0.219  10.028  1.0094 -0.6863 -0.6508
   51CHL1    C7 6191   2.644   0.250   9.812  0.0954 -0.5446 -0.0707
   51CHL1   H7A 6192   2.741   0.303   9.810  0.2097 -0.7620 -0.4705
   51CHL1   H7B 6193   2.656   0.146   9.773  1.0463 -0.1788 -0.7850
   51CHL1    C8 6194   2.544   0.335   9.726  0.4372 -0.0988 -0.1836
   51CHL1    H8 6195   2.547   0.442   9.755 -3.3540  0.3323 -1.1488
   51CHL1   C14 6196   2.569   0.318   9.567 -0.5638 -0.5158 -0.6520
   51CHL1   H14 6197   2.562   0.208   9.559  2.6191 -1.0111  2.2056
   51CHL1   C15 6198   2.713   0.351   9.510  0.4500  0.2693 -0.5964
   51CHL1  H15A 6199   2.747   0.449   9.550  2.1561 -0.6021  0.1641
   51CHL1  H15B 6200   2.783   0.272   9.546  1.3150  0.9381 -0.7901
   51CHL1   C16 6201   2.689   0.375   9.363 -0.0229 -0.3056 -0.5683
   51CHL1  H16A 6202   2.716   0.481   9.345  0.1260  0.1648  2.1518
   51CHL1  H16B 6203   2.743   0.318   9.285 -0.0980  1.4212 -1.8931
   51CHL1   C17 6204   2.537   0.349   9.340 -0.2818  0.0922 -0.2204
   51CHL1   H17 6205   2.526   0.240   9.320 -0.8255  0.0452  0.3144
   51CHL1   C13 6206   2.469   0.381   9.474  0.0768 -0.4319 -0.6662
   51CHL1   C18 6207   2.480   0.535   9.498 -0.3926  0.0649 -0.7969
   51CHL1  H18A 6208   2.582   0.571   9.519 -0.4866  0.0171 -0.2631
   51CHL1  H18B 6209   2.451   0.603   9.414  0.5803  2.6558  0.9033
   51CHL1  H18C 6210   2.429   0.558   9.594 -1.6236 -1.9689 -0.9241
   51CHL1   C12 6211   2.331   0.322   9.509  0.3807 -0.0561 -0.1201
   51CHL1  H12A 6212   2.250   0.363   9.445 -0.7412 -1.5432  0.3455
   51CHL1  H12B 6213   2.332   0.213   9.489  2.0016 -0.2158  0.7491
   51CHL1   C11 6214   2.293   0.342   9.655 -0.3895  0.1142 -1.0560
   51CHL1  H11A 6215   2.268   0.449   9.674 -1.7895 -0.3783 -0.0654
   51CHL1  H11B 6216   2.197   0.289   9.674  0.7907 -1.1950  1.4640
   51CHL1    C9 6217   2.400   0.286   9.753  0.4105  0.6354 -0.0263
   51CHL1    H9 6218   2.391   0.176   9.741  0.9458  0.5944 -0.0694
   51CHL1   C10 6219   2.353   0.310   9.898  0.6010 -0.1312  0.3446
   51CHL1   C19 6220   2.326   0.464   9.921  0.3827 -0.0869  0.1441
   51CHL1  H19A 6221   2.298   0.477  10.028 -1.1332 -1.2950 -0.0973
   51CHL1  H19B 6222   2.416   0.524   9.896 -0.9087  1.1331 -1.6297
   51CHL1  H19C 6223   2.240   0.503   9.864  0.2771 -1.0669 -0.3811
   51CHL1    C1 6224   2.230   0.227   9.949 -0.6171 -0.5368 -0.2632
   51CHL1   H1A 6225   2.144   0.274   9.897 -0.1754  2.5599  1.6977
   51CHL1   H1B 6226   2.227   0.118   9.926  0.6175 -0.5766 -0.2774
   51CHL1    C2 6227   2.198   0.242  10.104 -0.1357 -0.0078 -0.0109
   51CHL1   H2A 6228   2.107   0.184  10.128  0.8592 -1.2483  0.8899
   51CHL1   H2B 6229   2.163   0.346  10.119 -1.6488 -0.4149 -0.6474
   51CHL1   C20 6230   2.482   0.407   9.204 -0.1188  0.0225  0.3788
   51CHL1   H20 6231   2.466   0.516   9.223  3.7363  0.7883 -0.3744
   51CHL1   C21 6232   2.347   0.345   9.174  0.6296 -0.4624 -0.5388
   51CHL1  H21A 6233   2.338   0.257   9.242 -0.7111 -0.0004 -0.1078
   51CHL1  H21B 6234   2.349   0.301   9.072  2.1255 -2.4094  0.2959
   51CHL1  H21C 6235   2.261   0.411   9.196  1.3801  0.9288 -1.6809
   51CHL1   C22 6236   2.575   0.394   9.074 -0.1459 -0.3328  0.9935
   51CHL1  H22A 6237   2.675   0.428   9.106 -0.1378  0.3132  0.2945
   51CHL1  H22B 6238   2.593   0.289   9.043  0.1867  0.4155 -1.4744
   51CHL1   C23 6239   2.530   0.463   8.945 -0.0092  0.0780  0.4416
   51CHL1  H23A 6240   2.581   0.410   8.862 -3.3598 -1.6858 -0.5951
   51CHL1  H23B 6241   2.420   0.450   8.936  0.1560 -0.7459 -0.4261
   51CHL1   C24 6242   2.571   0.617   8.938 -0.3060  0.1798 -0.2426
   51CHL1  H24A 6243   2.521   0.667   9.024 -1.7129 -2.8370  0.7840
   51CHL1  H24B 6244   2.679   0.633   8.956 -0.4443  2.8298 -1.4394
   51CHL1   C25 6245   2.522   0.692   8.809  0.1830 -0.8220 -0.0246
   51CHL1   H25 6246   2.586   0.662   8.723 -0.4515  0.5600 -1.0040
   51CHL1   C26 6247   2.374   0.659   8.776 -0.2039  0.1808 -0.3978
   51CHL1  H26A 6248   2.350   0.691   8.672  1.3482  0.2616 -0.7492
   51CHL1  H26B 6249   2.362   0.549   8.771 -1.6224  0.1637  2.4253
   51CHL1  H26C 6250   2.314   0.707   8.856 -0.0593  0.4226 -0.4332
   51CHL1   C27 6251   2.545   0.844   8.811  0.5075  0.0028 -0.4482
   51CHL1  H27A 6252   2.569   0.882   8.709  1.6431  0.4237 -0.0333
   51CHL1  H27B 6253   2.446   0.886   8.841  0.0825 -0.7864 -0.7098
   51CHL1  H27C 6254   2.630   0.877   8.874 -0.7346  3.1970 -0.3456
   52CHL1    C3 6255   5.342   6.013   9.935  0.3484  0.1770 -0.3426
   52CHL1    H3 6256   5.397   5.930   9.886  0.4227 -2.7708  4.4431
   52CHL1    O3 6257   5.355   5.991  10.073  0.0509 -0.0018  0.3212
   52CHL1   H3' 6258   5.363   6.080  10.108 -3.9829  1.3683 -1.9772
   52CHL1    C4 6259   5.410   6.150   9.905  0.5677 -0.8165  0.4283
   52CHL1   H4A 6260   5.359   6.232   9.959  0.5984 -0.7579  0.3677
   52CHL1   H4B 6261   5.509   6.135   9.952 -0.2596 -0.9986  2.1894
   52CHL1    C5 6262   5.405   6.183   9.756 -0.2218 -0.0404 -0.4485
   52CHL1    C6 6263   5.521   6.202   9.690 -0.0869 -0.4918  0.5090
   52CHL1    H6 6264   5.609   6.188   9.755 -0.9654 -4.7240  0.9608
   52CHL1    C7 6265   5.542   6.240   9.546 -0.4367  0.2156  0.7726
   52CHL1   H7A 6266   5.603   6.333   9.551  0.3850 -0.2141 -1.0503
   52CHL1   H7B 6267   5.595   6.162   9.488 -0.9356  0.8902 -0.6305
   52CHL1    C8 6268   5.404   6.263   9.482 -0.3675 -0.0787 -0.2319
   52CHL1    H8 6269   5.381   6.369   9.504 -0.7962 -0.1935 -0.1222
   52CHL1   C14 6270   5.410   6.241   9.331  0.3198 -0.1162 -0.3541
   52CHL1   H14 6271   5.416   6.131   9.317 -2.5507 -0.0760 -2.1639
   52CHL1   C15 6272   5.528   6.302   9.249 -0.6915  0.1317  0.2782
   52CHL1  H15A 6273   5.559   6.398   9.295 -0.1381  0.9312 -1.6958
   52CHL1  H15B 6274   5.612   6.231   9.237 -0.8824  0.0896 -0.8430
   52CHL1   C16 6275   5.465   6.330   9.108  0.7593  0.2438  0.0514
   52CHL1  H16A 6276   5.459   6.437   9.081 -3.1616 -0.5264 -2.5231
   52CHL1  H16B 6277   5.524   6.281   9.028 -0.1723 -1.8414  0.5947
   52CHL1   C17 6278   5.318   6.273   9.106  0.6566 -0.5530 -0.4508
   52CHL1   H17 6279   5.326   6.165   9.082  0.7662 -0.3906 -1.1614
   52CHL1   C13 6280   5.283   6.289   9.257 -0.5546  0.8848 -0.5484
   52CHL1   C18 6281   5.263   6.440   9.284  0.9262 -0.0621  0.1669
   52CHL1  H18A 6282   5.342   6.514   9.258  0.0354  1.3038  1.2857
   52CHL1  H18B 6283   5.167   6.471   9.237  0.1068  0.1596  1.9461
   52CHL1  H18C 6284   5.239   6.464   9.390 -0.7373 -0.2305 -0.1588
   52CHL1   C12 6285   5.166   6.202   9.309  0.3746 -0.1365 -1.0329
   52CHL1  H12A 6286   5.067   6.240   9.274  2.1019  4.1617 -1.5781
   52CHL1  H12B 6287   5.193   6.100   9.277 -0.2223 -0.1419 -1.5279
   52CHL1   C11 6288   5.154   6.205   9.460  0.1235 -0.1714  0.2099
   52CHL1  H11A 6289   5.117   6.307   9.487 -0.6668 -0.9369  2.1316
   52CHL1  H11B 6290   5.077   6.137   9.502  0.8298 -0.8169  0.4581
   52CHL1    C9 6291   5.285   6.176   9.538  0.1369 -0.2106 -0.1002
   52CHL1    H9 6292   5.317   6.075   9.507  1.1868 -0.2046  0.9437
   52CHL1   C10 6293   5.265   6.175   9.692  0.3430  0.3821  0.4008
   52CHL1   C19 6294   5.187   6.295   9.745 -0.6299 -0.1339 -0.3336
   52CHL1  H19A 6295   5.183   6.284   9.856  1.2042 -0.8841 -0.3359
   52CHL1  H19B 6296   5.244   6.385   9.714  1.6102 -1.7177 -0.8599
   52CHL1  H19C 6297   5.083   6.303   9.706 -0.8691 -2.3804 -0.2153
   52CHL1    C1 6298   5.192   6.044   9.738  0.3530 -0.6498  0.3978
   52CHL1   H1A 6299   5.088   6.034   9.701  0.9877  1.4517 -2.1133
   52CHL1   H1B 6300   5.244   5.959   9.690 -2.0607 -2.2712  0.6009
   52CHL1    C2 6301   5.198   6.010   9.890 -0.2243 -0.1536  0.3138
   52CHL1   H2A 6302   5.152   5.909   9.904  1.3653 -0.8290  0.7541
   52CHL1   H2B 6303   5.150   6.089   9.952 -3.2588  0.0912 -2.2192
   52CHL1   C20 6304   5.231   6.344   9.006 -0.3180  0.0528  0.0429
   52CHL1   H20 6305   5.218   6.449   9.041 -2.0730  0.3883 -1.4933
   52CHL1   C21 6306   5.088   6.285   8.994  0.1151 -0.6150  0.4712
   52CHL1  H21A 6307   5.091   6.175   9.010  0.5099 -0.8065 -0.8923
   52CHL1  H21B 6308   5.038   6.321   8.902  1.8663  0.3344 -0.1366
   52CHL1  H21C 6309   5.026   6.337   9.070 -0.9238 -0.8574 -0.1969
   52CHL1   C22 6310   5.288   6.335   8.861 -0.1501  0.3665  0.3117
   52CHL1  H22A 6311   5.389   6.383   8.868 -1.4535  3.1800  0.5378
   52CHL1  H22B 6312   5.298   6.231   8.824 -1.9949  0.2792  0.0258
   52CHL1   C23 6313   5.213   6.428   8.761  0.7222  0.1683  0.3818
   52CHL1  H23A 6314   5.122   6.378   8.721 -0.0830  0.3692  1.9242
   52CHL1  H23B 6315   5.179   6.518   8.818  0.5158 -0.4693  1.2876
   52CHL1   C24 6316   5.301   6.470   8.649  0.2130  0.5368 -0.1608
   52CHL1  H24A 6317   5.394   6.506   8.697 -0.6968  0.8678  1.4058
   52CHL1  H24B 6318   5.317   6.374   8.596 -3.8472  0.5241 -1.5622
   52CHL1   C25 6319   5.245   6.582   8.553  0.1936 -0.2962  0.3511
   52CHL1   H25 6320   5.147   6.549   8.512 -0.9746  2.0876  1.1526
   52CHL1   C26 6321   5.212   6.719   8.632 -0.0457 -0.2878 -0.0994
   52CHL1  H26A 6322   5.113   6.712   8.684 -1.1227 -1.9179 -2.2651
   52CHL1  H26B 6323   5.299   6.726   8.700 -0.0999  1.5395 -0.2075
   52CHL1  H26C 6324   5.215   6.808   8.567 -0.5374 -0.9956 -1.1105
   52CHL1   C27 6325   5.351   6.614   8.444  0.6286 -0.1942 -0.3485
   52CHL1  H27A 6326   5.323   6.707   8.390  1.5240  0.2312 -0.0823
   52CHL1  H27B 6327   5.450   6.618   8.494  0.5582  1.0261 -0.2926
   52CHL1  H27C 6328   5.366   6.536   8.366  1.9055  0.4203 -0.7265
   53CHL1    C3 6329   6.412   6.018  10.004 -0.0711  0.7847 -0.4213
   53CHL1    H3 6330   6.462   5.922  10.031  0.3287  1.4443  1.2439
   53CHL1    O3 6331   6.331   6.063  10.111 -0.4623 -0.2237  0.8486
   53CHL1   H3' 6332   6.381   6.037  10.189  0.8058  1.6621  0.7184
   53CHL1    C4 6333   6.521   6.124   9.976 -0.0534 -0.2692 -0.2409
   53CHL1   H4A 6334   6.484   6.228   9.967 -0.0871 -0.2109  0.5329
   53CHL1   H4B 6335   6.584   6.131  10.067  0.8665 -0.4360 -0.8573
   53CHL1    C5 6336   6.606   6.080   9.859  0.9586  0.0892 -0.1504
   53CHL1    C6 6337   6.739   6.067   9.866  0.3874 -0.1708 -0.7999
   53CHL1    H6 6338   6.800   6.083   9.956  1.0745 -3.0485 -0.7286
   53CHL1    C7 6339   6.823   6.021   9.742  0.6789  0.1904 -0.9519
   53CHL1   H7A 6340   6.919   6.077   9.741  0.4963  0.5101 -0.7465
   53CHL1   H7B 6341   6.845   5.913   9.747  0.2183  0.1628  0.8014
   53CHL1    C8 6342   6.746   6.045   9.613 -0.6547  0.9031  0.9804
   53CHL1    H8 6343   6.744   6.154   9.593 -0.6815  0.9656  1.3278
   53CHL1   C14 6344   6.827   5.983   9.499 -0.4443 -0.1183 -0.5504
   53CHL1   H14 6345   6.820   5.872   9.508  0.1962 -0.1776 -0.7678
   53CHL1   C15 6346   6.972   6.012   9.493  0.5491 -0.6775 -0.3883
   53CHL1  H15A 6347   6.988   6.122   9.494  2.2627 -0.9115  0.0984
   53CHL1  H15B 6348   7.041   5.967   9.568 -0.6109 -0.0253  1.0960
   53CHL1   C16 6349   7.016   5.974   9.347 -0.4167 -0.2991 -0.0832
   53CHL1  H16A 6350   7.058   6.066   9.303  1.4168 -0.7382  0.7249
   53CHL1  H16B 6351   7.085   5.887   9.338 -1.6649 -1.4685  1.1435
   53CHL1   C17 6352   6.883   5.941   9.268 -0.0076  0.6074  0.6147
   53CHL1   H17 6353   6.863   5.832   9.276  1.6988  0.1706 -0.8658
   53CHL1   C13 6354   6.773   6.004   9.354 -0.1792 -0.2941 -0.8309
   53CHL1   C18 6355   6.777   6.152   9.310  0.5470  0.5495  0.0180
   53CHL1  H18A 6356   6.727   6.230   9.372 -0.4840 -0.3228  0.2949
   53CHL1  H18B 6357   6.882   6.183   9.294  1.5342 -2.1162  1.0217
   53CHL1  H18C 6358   6.727   6.156   9.210 -2.3861 -4.1589  1.1266
   53CHL1   C12 6359   6.632   5.951   9.346 -0.1052 -0.4016 -0.4190
   53CHL1  H12A 6360   6.588   5.982   9.248 -0.4313 -0.9802 -0.4595
   53CHL1  H12B 6361   6.635   5.840   9.353 -2.4243 -0.4800 -0.3309
   53CHL1   C11 6362   6.542   6.008   9.465 -0.0347  0.2783 -0.1906
   53CHL1  H11A 6363   6.530   6.117   9.445 -0.9912  0.5703  1.8281
   53CHL1  H11B 6364   6.441   5.963   9.453  0.0309 -0.0879  0.6308
   53CHL1    C9 6365   6.605   5.994   9.609  0.1112 -0.0472 -0.1392
   53CHL1    H9 6366   6.616   5.887   9.636  1.9714 -0.2049 -1.4067
   53CHL1   C10 6367   6.520   6.060   9.725  1.0746  0.1055  0.0510
   53CHL1   C19 6368   6.480   6.208   9.693  0.1139  0.7620 -0.7730
   53CHL1  H19A 6369   6.416   6.258   9.769 -0.7255  1.8697 -2.1816
   53CHL1  H19B 6370   6.571   6.264   9.667  0.8636  0.3913  0.9484
   53CHL1  H19C 6371   6.412   6.212   9.605  0.6059  0.6940 -1.1582
   53CHL1    C1 6372   6.399   5.965   9.761  0.2866 -0.3342 -0.3187
   53CHL1   H1A 6373   6.327   5.962   9.676  0.5632 -0.2965 -0.5563
   53CHL1   H1B 6374   6.433   5.862   9.783  0.6932 -0.3882 -1.1524
   53CHL1    C2 6375   6.319   6.008   9.884 -0.1350 -0.1103  0.5705
   53CHL1   H2A 6376   6.241   5.942   9.927 -1.0157  1.0785  0.8536
   53CHL1   H2B 6377   6.270   6.107   9.867 -0.3821 -0.7215 -2.7042
   53CHL1   C20 6378   6.890   5.975   9.117 -0.0207 -0.4764 -0.4519
   53CHL1   H20 6379   6.883   6.085   9.109  2.1567  0.0694  3.5861
   53CHL1   C21 6380   6.770   5.921   9.034  0.3315  0.7470  1.3369
   53CHL1  H21A 6381   6.750   5.814   9.057  1.9660 -0.7203 -3.3650
   53CHL1  H21B 6382   6.768   5.938   8.924 -0.7025 -2.4039  0.8046
   53CHL1  H21C 6383   6.679   5.966   9.080  0.7978  2.7939  0.3355
   53CHL1   C22 6384   7.023   5.927   9.062  0.0881 -0.2637  0.8872
   53CHL1  H22A 6385   7.112   5.975   9.109  1.1569 -0.4090 -0.9648
   53CHL1  H22B 6386   7.033   5.816   9.072 -1.9062 -0.8034 -2.3201
   53CHL1   C23 6387   7.035   5.951   8.911  0.4422 -0.8804 -0.1080
   53CHL1  H23A 6388   6.986   5.869   8.854 -0.8543  1.4579 -2.4760
   53CHL1  H23B 6389   6.994   6.050   8.882  0.3715 -0.9175 -0.1333
   53CHL1   C24 6390   7.181   5.950   8.865  0.6062  0.4253  0.3955
   53CHL1  H24A 6391   7.235   6.027   8.925 -0.6839 -0.7025  3.0951
   53CHL1  H24B 6392   7.238   5.858   8.893 -0.2909 -0.4352 -0.5830
   53CHL1   C25 6393   7.194   5.971   8.715  0.1163  0.5312  0.1522
   53CHL1   H25 6394   7.116   6.038   8.673  0.2777 -0.6064 -2.0369
   53CHL1   C26 6395   7.323   6.049   8.678 -0.0964  0.1987 -0.1511
   53CHL1  H26A 6396   7.409   5.992   8.718  1.1470 -0.0842 -3.0764
   53CHL1  H26B 6397   7.348   6.073   8.572 -0.3244  2.4128  0.2650
   53CHL1  H26C 6398   7.317   6.145   8.735 -0.1057 -2.1414  3.9665
   53CHL1   C27 6399   7.172   5.840   8.646 -0.5359 -0.3606 -0.2029
   53CHL1  H27A 6400   7.164   5.856   8.536 -2.6515  0.8521  0.1084
   53CHL1  H27B 6401   7.251   5.762   8.656 -0.3917 -0.0272  1.2888
   53CHL1  H27C 6402   7.074   5.800   8.678 -0.1253 -1.2866 -0.0651
   54CHL1    C3 6403   6.611   6.736  10.210 -0.3784 -0.0385  0.4117
   54CHL1    H3 6404   6.716   6.760  10.184 -0.4714  1.1807  1.1503
   54CHL1    O3 6405   6.584   6.753  10.345  0.5501 -0.3392  0.1457
   54CHL1   H3' 6406   6.612   6.673  10.389 -2.0478 -1.3960 -0.0100
   54CHL1    C4 6407   6.518   6.833  10.134 -0.1142 -0.9973  0.0551
   54CHL1   H4A 6408   6.416   6.796  10.159 -0.2551 -1.5820 -1.3788
   54CHL1   H4B 6409   6.540   6.932  10.179  0.3473 -1.2870  0.4750
   54CHL1    C5 6410   6.543   6.824   9.990 -0.0926 -0.0246 -0.1026
   54CHL1    C6 6411   6.583   6.941   9.928  0.4345 -0.6764  0.2435
   54CHL1    H6 6412   6.564   7.032   9.986 -2.7174 -1.0639 -0.0949
   54CHL1    C7 6413   6.610   6.958   9.786 -0.2441 -0.9875 -0.1027
   54CHL1   H7A 6414   6.557   7.038   9.731  0.6520  0.4837  1.1401
   54CHL1   H7B 6415   6.717   6.987   9.776 -0.2781 -0.5308  0.8187
   54CHL1    C8 6416   6.586   6.829   9.713  0.2717 -0.0770  0.3380
   54CHL1    H8 6417   6.475   6.825   9.702  0.1273  1.7155  1.0168
   54CHL1   C14 6418   6.653   6.831   9.573 -0.4522  0.3867  0.0058
   54CHL1   H14 6419   6.763   6.848   9.577 -0.2252 -1.6652  4.6568
   54CHL1   C15 6420   6.612   6.946   9.475  0.6132  0.2181 -0.3783
   54CHL1  H15A 6421   6.503   6.961   9.492  0.8639  0.5598  0.9867
   54CHL1  H15B 6422   6.665   7.038   9.508  3.3610 -1.1121 -0.9423
   54CHL1   C16 6423   6.640   6.895   9.323  0.7323 -0.0401 -0.1433
   54CHL1  H16A 6424   6.551   6.902   9.257  0.8388  0.2204 -0.2623
   54CHL1  H16B 6425   6.723   6.960   9.287 -0.2703  0.3779 -1.7630
   54CHL1   C17 6426   6.686   6.741   9.354  0.0453 -0.2769 -0.4639
   54CHL1   H17 6427   6.795   6.757   9.373  0.7060 -1.4183 -3.1044
   54CHL1   C13 6428   6.628   6.702   9.491  0.2182  1.0802 -0.6132
   54CHL1   C18 6429   6.468   6.676   9.478  0.6555  0.2909 -0.6834
   54CHL1  H18A 6430   6.447   6.574   9.441 -1.2345 -0.2277  1.7213
   54CHL1  H18B 6431   6.414   6.661   9.574  1.3537  0.9787 -0.1814
   54CHL1  H18C 6432   6.430   6.755   9.409  3.1234  1.3040 -0.9395
   54CHL1   C12 6433   6.699   6.587   9.564 -0.1099 -0.0317 -0.5422
   54CHL1  H12A 6434   6.673   6.494   9.510 -1.4744  0.7899 -1.3222
   54CHL1  H12B 6435   6.808   6.609   9.574 -0.2779  0.4384  0.3107
   54CHL1   C11 6436   6.644   6.583   9.709 -0.5598  0.6954 -0.3077
   54CHL1  H11A 6437   6.553   6.521   9.702 -0.1001  0.0368 -0.5186
   54CHL1  H11B 6438   6.715   6.517   9.764  1.3873  1.1340 -2.2161
   54CHL1    C9 6439   6.627   6.708   9.791  0.0115  0.0631  0.4984
   54CHL1    H9 6440   6.728   6.731   9.830  0.8158 -0.9461 -0.9653
   54CHL1   C10 6441   6.552   6.692   9.924  0.2132  0.3762  0.6417
   54CHL1   C19 6442   6.411   6.643   9.893 -0.0174  0.0453 -0.1779
   54CHL1  H19A 6443   6.415   6.537   9.858 -1.4000 -0.2993  0.6695
   54CHL1  H19B 6444   6.354   6.634   9.988  0.9271 -1.0217  0.3095
   54CHL1  H19C 6445   6.354   6.707   9.823  1.7095  0.7625 -0.9528
   54CHL1    C1 6446   6.627   6.582  10.018 -0.2203 -0.1551  0.0647
   54CHL1   H1A 6447   6.613   6.476   9.988 -2.6469  0.5600 -1.3965
   54CHL1   H1B 6448   6.735   6.604  10.007  0.5175 -1.8257  3.3177
   54CHL1    C2 6449   6.589   6.586  10.172  1.1404 -0.6188  0.1256
   54CHL1   H2A 6450   6.673   6.529  10.215  2.4538  0.8414 -0.4450
   54CHL1   H2B 6451   6.484   6.558  10.197  0.7553  0.7188  0.0659
   54CHL1   C20 6452   6.672   6.646   9.233  0.2544  0.9968 -0.9168
   54CHL1   H20 6453   6.565   6.616   9.225  0.8285 -0.7155 -2.5546
   54CHL1   C21 6454   6.730   6.507   9.251 -0.5988  1.0500  0.0946
   54CHL1  H21A 6455   6.656   6.424   9.253 -0.2837  0.6344 -2.8768
   54CHL1  H21B 6456   6.801   6.508   9.337 -3.0976  0.4041  2.2308
   54CHL1  H21C 6457   6.780   6.483   9.155 -0.2896  1.5994  0.1159
   54CHL1   C22 6458   6.721   6.703   9.097 -0.6976  0.0374  0.3086
   54CHL1  H22A 6459   6.687   6.632   9.019  0.6468  0.9990 -1.1702
   54CHL1  H22B 6460   6.662   6.794   9.074 -1.1831 -0.3804 -0.1063
   54CHL1   C23 6461   6.866   6.727   9.075  0.4419 -0.5668  0.1389
   54CHL1  H23A 6462   6.906   6.801   9.147  0.0142  1.0204 -1.2200
   54CHL1  H23B 6463   6.910   6.627   9.097 -2.2342 -1.3147  2.3781
   54CHL1   C24 6464   6.897   6.793   8.937 -0.9683  0.5830 -0.1816
   54CHL1  H24A 6465   6.891   6.719   8.855  1.2699  2.1859 -1.8598
   54CHL1  H24B 6466   6.825   6.872   8.904 -0.1507  1.5994  0.4291
   54CHL1   C25 6467   7.036   6.852   8.933 -0.2918  0.0753 -0.4495
   54CHL1   H25 6468   7.110   6.778   8.971  0.9089  2.5732  2.2935
   54CHL1   C26 6469   7.073   6.880   8.780 -0.6083  0.6237 -0.7456
   54CHL1  H26A 6470   7.049   6.788   8.722  1.2594 -1.2941  1.3934
   54CHL1  H26B 6471   7.015   6.969   8.747 -1.7558  0.6267  1.1785
   54CHL1  H26C 6472   7.181   6.904   8.772  0.1995 -1.5980  2.3786
   54CHL1   C27 6473   7.053   6.979   9.023 -0.2398  0.9437  0.4519
   54CHL1  H27A 6474   7.151   7.022   8.994 -0.6023  0.4511 -1.5884
   54CHL1  H27B 6475   6.976   7.054   8.994  0.1039  0.9841 -0.3667
   54CHL1  H27C 6476   7.058   6.955   9.131 -1.3263 -1.2884  0.0456
   55CHL1    C3 6477   0.701   4.364  10.280 -0.1344  0.1372 -0.5307
   55CHL1    H3 6478   0.697   4.253  10.274 -1.9791  0.1558  0.0822
   55CHL1    O3 6479   0.711   4.397  10.417  0.4117  0.2633  0.3604
   55CHL1   H3' 6480   0.644   4.346  10.465  0.4141  0.4538  0.5677
   55CHL1    C4 6481   0.818   4.434  10.210 -0.1173 -0.0719  0.1978
   55CHL1   H4A 6482   0.808   4.543  10.223 -1.6307 -0.0157 -1.1469
   55CHL1   H4B 6483   0.912   4.408  10.263  0.3329  0.2204 -0.4500
   55CHL1    C5 6484   0.822   4.407  10.060  0.1353  0.5353 -0.1778
   55CHL1    C6 6485   0.930   4.352  10.001 -0.4536  0.1968 -0.0359
   55CHL1    H6 6486   1.027   4.339  10.050 -0.3818 -0.4468 -0.3441
   55CHL1    C7 6487   0.929   4.309   9.858 -0.3555  0.2994  0.0944
   55CHL1   H7A 6488   1.028   4.328   9.812 -1.0527 -0.5987 -1.8727
   55CHL1   H7B 6489   0.918   4.199   9.846  2.5945 -0.0120  0.0169
   55CHL1    C8 6490   0.822   4.378   9.774  0.5559  0.2345  0.3723
   55CHL1    H8 6491   0.840   4.486   9.758 -0.1084  0.3953  0.6659
   55CHL1   C14 6492   0.802   4.306   9.642  0.8613 -0.2378 -0.3390
   55CHL1   H14 6493   0.788   4.198   9.664 -0.1790 -0.3848 -1.6153
   55CHL1   C15 6494   0.920   4.314   9.537 -0.0014  0.2110  0.1406
   55CHL1  H15A 6495   0.962   4.417   9.534  0.2332  0.1232  0.3827
   55CHL1  H15B 6496   0.998   4.242   9.572 -2.0287 -1.7598  0.7476
   55CHL1   C16 6497   0.851   4.279   9.403  0.1623 -0.5322  0.6156
   55CHL1  H16A 6498   0.866   4.360   9.329 -1.6498  0.0968  0.9106
   55CHL1  H16B 6499   0.894   4.181   9.374  0.1544 -0.5492  0.6632
   55CHL1   C17 6500   0.703   4.279   9.428 -0.2000  0.0766  0.4758
   55CHL1   H17 6501   0.682   4.173   9.454 -0.4116  0.3552  1.4527
   55CHL1   C13 6502   0.685   4.353   9.563  0.9580 -0.7846  0.1797
   55CHL1   C18 6503   0.686   4.511   9.536  0.2427  1.0986 -0.0196
   55CHL1  H18A 6504   0.678   4.570   9.631 -3.7024 -2.2250  1.8351
   55CHL1  H18B 6505   0.776   4.541   9.477 -1.4452  1.3292 -2.5333
   55CHL1  H18C 6506   0.592   4.542   9.487 -0.8073 -2.5526 -0.4293
   55CHL1   C12 6507   0.552   4.323   9.635 -0.4645 -0.3480  0.1124
   55CHL1  H12A 6508   0.461   4.367   9.589 -1.2757 -1.2203  0.8308
   55CHL1  H12B 6509   0.537   4.213   9.641  1.8885 -0.5983  2.1331
   55CHL1   C11 6510   0.549   4.393   9.773  0.6321 -0.0327  0.8812
   55CHL1  H11A 6511   0.520   4.499   9.762 -1.9931 -0.5607  2.2595
   55CHL1  H11B 6512   0.468   4.335   9.823  0.0797  0.7659  0.9101
   55CHL1    C9 6513   0.680   4.367   9.848 -0.9451 -0.3191 -0.4445
   55CHL1    H9 6514   0.671   4.263   9.886 -1.7811  0.8575  2.7904
   55CHL1   C10 6515   0.686   4.427   9.991  0.1927 -0.0069  0.2964
   55CHL1   C19 6516   0.656   4.581   9.988  1.1649 -0.3391  0.3815
   55CHL1  H19A 6517   0.738   4.628   9.930  0.0650 -0.6408 -1.4831
   55CHL1  H19B 6518   0.565   4.620   9.938  0.4995 -1.2191  0.8825
   55CHL1  H19C 6519   0.672   4.626  10.088 -1.5230 -0.4045  0.8636
   55CHL1    C1 6520   0.564   4.369  10.074 -0.2542  0.1426 -0.1301
   55CHL1   H1A 6521   0.470   4.414  10.036  0.1740  0.5536 -0.7052
   55CHL1   H1B 6522   0.555   4.258  10.078  1.2702  0.0039 -0.3171
   55CHL1    C2 6523   0.569   4.404  10.221  0.4715  0.2396 -0.4574
   55CHL1   H2A 6524   0.482   4.358  10.273  1.3236 -0.4329  0.3955
   55CHL1   H2B 6525   0.553   4.514  10.231 -0.2760  0.0225  0.8675
   55CHL1   C20 6526   0.618   4.315   9.304 -0.0410  0.4411 -0.6568
   55CHL1   H20 6527   0.636   4.424   9.286  0.6892  1.0293  3.1059
   55CHL1   C21 6528   0.471   4.294   9.327  0.1160 -0.0581 -0.4915
   55CHL1  H21A 6529   0.442   4.207   9.390 -1.7993  1.0057  0.1314
   55CHL1  H21B 6530   0.409   4.273   9.237 -1.0971 -0.0698  0.3370
   55CHL1  H21C 6531   0.434   4.387   9.374  0.5357 -0.2742  0.2753
   55CHL1   C22 6532   0.670   4.240   9.181 -0.0019  0.5038 -0.1192
   55CHL1  H22A 6533   0.781   4.244   9.168  0.1556  0.0607  1.0710
   55CHL1  H22B 6534   0.636   4.135   9.185 -0.1490  0.6031  1.5850
   55CHL1   C23 6535   0.619   4.311   9.054 -0.1966  0.3326  0.1248
   55CHL1  H23A 6536   0.510   4.321   9.074 -0.0082 -0.3972  1.6175
   55CHL1  H23B 6537   0.670   4.408   9.037 -0.3489  0.3966  0.0353
   55CHL1   C24 6538   0.627   4.222   8.932  0.9021 -0.6624 -0.0576
   55CHL1  H24A 6539   0.735   4.207   8.912  1.0405 -0.1264  0.2870
   55CHL1  H24B 6540   0.579   4.129   8.968 -0.3959 -0.4900 -1.3025
   55CHL1   C25 6541   0.554   4.273   8.814  0.1536 -0.5245  0.6682
   55CHL1   H25 6542   0.445   4.293   8.827  0.1168 -0.9845  1.0611
   55CHL1   C26 6543   0.617   4.399   8.754  0.2410  1.0316  0.1942
   55CHL1  H26A 6544   0.726   4.402   8.770  0.5098  2.1327 -1.6600
   55CHL1  H26B 6545   0.585   4.396   8.648 -0.8329 -1.3040  0.5406
   55CHL1  H26C 6546   0.581   4.499   8.789  1.6015  1.9186 -0.8909
   55CHL1   C27 6547   0.561   4.162   8.706 -0.1920  0.3526 -0.7378
   55CHL1  H27A 6548   0.486   4.181   8.627 -0.4821  3.0888  0.1326
   55CHL1  H27B 6549   0.661   4.144   8.662  0.2795  1.0525  0.0212
   55CHL1  H27C 6550   0.546   4.069   8.766  1.2358  0.5422 -0.0503
   56CHL1    C3 6551   4.918   2.702  10.030  0.8960 -0.8057 -0.3913
   56CHL1    H3 6552   4.829   2.674   9.970 -0.6766  0.8105  1.1592
   56CHL1    O3 6553   4.896   2.697  10.173  0.1076  0.3710  0.4241
   56CHL1   H3' 6554   4.979   2.724  10.213 -0.3449  0.7619  1.1069
   56CHL1    C4 6555   5.045   2.636   9.991  0.9892  0.5514 -0.3197
   56CHL1   H4A 6556   5.116   2.662  10.073  0.0166  1.1391  0.3526
   56CHL1   H4B 6557   5.030   2.527  10.006  2.0881  0.0852 -2.4624
   56CHL1    C5 6558   5.100   2.653   9.847  0.5767 -0.2789 -1.1902
   56CHL1    C6 6559   5.117   2.555   9.766 -0.1289  1.2104  0.5663
   56CHL1    H6 6560   5.104   2.454   9.807  1.1695  0.1089 -1.6687
   56CHL1    C7 6561   5.157   2.567   9.623  0.0154  0.3209  0.5470
   56CHL1   H7A 6562   5.213   2.484   9.576 -3.7083 -1.9822 -0.0170
   56CHL1   H7B 6563   5.069   2.582   9.556  1.6290  1.5705 -1.3408
   56CHL1    C8 6564   5.235   2.705   9.596 -0.4325  1.2710  0.2682
   56CHL1    H8 6565   5.336   2.687   9.638 -1.1359 -3.0416  0.3649
   56CHL1   C14 6566   5.247   2.724   9.440  0.2813 -0.4243  0.4125
   56CHL1   H14 6567   5.140   2.727   9.409  1.1522  0.4307 -2.6904
   56CHL1   C15 6568   5.313   2.619   9.353 -0.0871 -0.6677 -0.4694
   56CHL1  H15A 6569   5.418   2.601   9.385  0.5941  3.0152 -0.4252
   56CHL1  H15B 6570   5.244   2.533   9.345  0.4381 -1.4442  2.6409
   56CHL1   C16 6571   5.330   2.695   9.217 -0.3871  0.1789 -0.4693
   56CHL1  H16A 6572   5.437   2.685   9.187 -0.4608  0.9165 -0.9851
   56CHL1  H16B 6573   5.265   2.658   9.134 -0.6717 -0.8162  0.1965
   56CHL1   C17 6574   5.303   2.851   9.249  0.2949  0.2397 -0.3153
   56CHL1   H17 6575   5.199   2.873   9.219 -0.2245  0.6201  1.6857
   56CHL1   C13 6576   5.308   2.862   9.404  0.6155 -0.0378  0.0887
   56CHL1   C18 6577   5.453   2.870   9.445  0.2253  0.3200 -1.0547
   56CHL1  H18A 6578   5.509   2.964   9.426  1.7389 -0.4033 -0.3010
   56CHL1  H18B 6579   5.441   2.859   9.555 -0.0911  1.5553 -0.9590
   56CHL1  H18C 6580   5.507   2.778   9.414  0.2807 -1.1373  3.1173
   56CHL1   C12 6581   5.222   2.972   9.460  0.6047 -0.2577 -0.2164
   56CHL1  H12A 6582   5.254   3.074   9.428 -0.7878 -0.1854 -1.4411
   56CHL1  H12B 6583   5.115   2.957   9.432  0.4807  0.3092 -0.0570
   56CHL1   C11 6584   5.207   2.967   9.616  0.6979  0.0533  0.0254
   56CHL1  H11A 6585   5.306   2.995   9.658  1.1838  1.0086 -1.7281
   56CHL1  H11B 6586   5.133   3.042   9.653 -1.5932 -2.1233  0.0233
   56CHL1    C9 6587   5.154   2.825   9.662 -0.3639  0.0387  0.2416
   56CHL1    H9 6588   5.058   2.812   9.608 -0.7417  0.7784  0.7206
   56CHL1   C10 6589   5.115   2.804   9.811 -0.4571 -0.1261 -0.3174
   56CHL1   C19 6590   5.233   2.853   9.887 -0.1362 -0.1697  0.2556
   56CHL1  H19A 6591   5.327   2.794   9.881  0.4667  0.7814  0.2543
   56CHL1  H19B 6592   5.249   2.961   9.864 -3.7220  0.1457 -1.0441
   56CHL1  H19C 6593   5.194   2.856   9.991 -0.6669 -3.7807  0.2196
   56CHL1    C1 6594   4.979   2.876   9.849  0.5163  0.1185  0.1214
   56CHL1   H1A 6595   4.996   2.986   9.841  0.2160  0.3730  2.6302
   56CHL1   H1B 6596   4.893   2.847   9.785  1.5759  1.5213 -2.0134
   56CHL1    C2 6597   4.935   2.853   9.995 -0.6236  0.2571 -0.2095
   56CHL1   H2A 6598   4.840   2.909  10.011 -1.2982 -0.3660 -1.9302
   56CHL1   H2B 6599   5.016   2.879  10.067 -1.7274  2.7498  0.1720
   56CHL1   C20 6600   5.401   2.932   9.159  0.5665 -0.4591  0.4374
   56CHL1   H20 6601   5.505   2.920   9.197  0.8553 -0.6429 -0.3930
   56CHL1   C21 6602   5.372   3.081   9.183  0.4392  0.1299  0.4007
   56CHL1  H21A 6603   5.444   3.139   9.122  0.4025 -1.4419 -1.1800
   56CHL1  H21B 6604   5.392   3.103   9.290 -1.1782 -0.5909  0.8658
   56CHL1  H21C 6605   5.270   3.116   9.156  0.6331 -0.1023 -0.6455
   56CHL1   C22 6606   5.397   2.899   9.005  0.0218 -0.1570  0.1105
   56CHL1  H22A 6607   5.479   2.952   8.950 -1.1665 -0.3742 -1.9249
   56CHL1  H22B 6608   5.428   2.794   8.988 -3.6705 -1.0775 -1.4347
   56CHL1   C23 6609   5.254   2.918   8.946  0.0996  1.0117  0.4191
   56CHL1  H23A 6610   5.178   2.856   8.998 -0.1167  0.5568 -0.4206
   56CHL1  H23B 6611   5.225   3.025   8.948 -0.7583  0.8857 -2.2523
   56CHL1   C24 6612   5.253   2.864   8.803  0.1329  0.3833  0.3972
   56CHL1  H24A 6613   5.321   2.915   8.732  1.1493  1.6123  2.2138
   56CHL1  H24B 6614   5.284   2.758   8.810 -2.8353 -0.4777  1.3498
   56CHL1   C25 6615   5.109   2.873   8.745  0.0407  0.2619  0.0048
   56CHL1   H25 6616   5.036   2.872   8.829 -0.1937 -0.4990 -0.2079
   56CHL1   C26 6617   5.100   3.009   8.672 -0.3925  0.2228 -0.2917
   56CHL1  H26A 6618   5.180   3.029   8.598 -1.9521  0.5392 -1.9435
   56CHL1  H26B 6619   5.001   3.013   8.622 -0.1228 -0.2438 -0.8692
   56CHL1  H26C 6620   5.106   3.086   8.751  1.5949  0.2495 -0.4627
   56CHL1   C27 6621   5.084   2.754   8.651 -0.0764 -1.1160  0.3489
   56CHL1  H27A 6622   4.976   2.752   8.625  0.1740 -1.0291 -0.7504
   56CHL1  H27B 6623   5.136   2.766   8.553  0.4061  1.0840  0.8482
   56CHL1  H27C 6624   5.120   2.655   8.687  1.9813 -0.3275  0.5025
   57CHL1    C3 6625   0.985   5.415  10.463  0.3779 -0.1781 -0.5348
   57CHL1    H3 6626   1.089   5.391  10.432  1.0300  1.3847  0.3856
   57CHL1    O3 6627   0.977   5.423  10.607 -0.3900 -0.1821 -0.0313
   57CHL1   H3' 6628   0.975   5.332  10.639  0.6374 -0.3561 -0.4547
   57CHL1    C4 6629   0.943   5.557  10.411  0.4334  1.0613  0.0575
   57CHL1   H4A 6630   0.857   5.597  10.468  0.9064 -0.4441  1.8935
   57CHL1   H4B 6631   1.037   5.615  10.426  0.4214  1.4719 -1.4023
   57CHL1    C5 6632   0.911   5.577  10.263  0.5017  0.2597  0.2007
   57CHL1    C6 6633   0.966   5.670  10.184  0.7101 -0.8877 -0.7076
   57CHL1    H6 6634   1.037   5.745  10.223  1.3323 -2.5367  1.4275
   57CHL1    C7 6635   0.919   5.705  10.044 -0.1006  0.1568 -0.0587
   57CHL1   H7A 6636   0.877   5.808  10.047 -0.5770 -0.0336 -0.3094
   57CHL1   H7B 6637   1.006   5.714   9.975 -1.0766  1.7738 -1.1001
   57CHL1    C8 6638   0.804   5.614   9.997 -0.4306  0.1001 -0.5236
   57CHL1    H8 6639   0.707   5.661  10.026 -0.0869  1.1507 -1.0473
   57CHL1   C14 6640   0.821   5.606   9.845 -0.1455  0.3246 -0.1168
   57CHL1   H14 6641   0.915   5.549   9.829  0.2035  0.7084  0.5501
   57CHL1   C15 6642   0.845   5.726   9.755  0.1974 -0.2838  0.2506
   57CHL1  H15A 6643   0.781   5.813   9.782  0.4353 -1.0696  3.6125
   57CHL1  H15B 6644   0.949   5.766   9.759  0.6172 -1.0704 -2.2142
   57CHL1   C16 6645   0.811   5.673   9.620  0.3636 -0.5309  0.1473
   57CHL1  H16A 6646   0.737   5.740   9.573 -0.6646  0.5898  3.2670
   57CHL1  H16B 6647   0.900   5.688   9.554 -0.7591 -1.8759 -1.7524
   57CHL1   C17 6648   0.748   5.536   9.629 -0.1575 -0.0813 -0.4336
   57CHL1   H17 6649   0.825   5.458   9.612  1.1702  1.0989  0.1485
   57CHL1   C13 6650   0.717   5.512   9.775 -0.5217  0.2984  0.5257
   57CHL1   C18 6651   0.572   5.567   9.806 -0.3164 -0.2309 -0.0026
   57CHL1  H18A 6652   0.497   5.499   9.763  0.3626 -0.0874 -1.4358
   57CHL1  H18B 6653   0.550   5.574   9.915 -0.1280 -2.1730  0.1807
   57CHL1  H18C 6654   0.564   5.667   9.759  1.2554 -0.6596 -1.2330
   57CHL1   C12 6655   0.743   5.368   9.819  0.7994 -0.5525  0.0670
   57CHL1  H12A 6656   0.665   5.304   9.771  0.7954 -0.2274 -0.3533
   57CHL1  H12B 6657   0.840   5.323   9.789  2.1107  1.7594  0.7217
   57CHL1   C11 6658   0.738   5.364   9.976  0.5099 -0.4900 -0.3740
   57CHL1  H11A 6659   0.630   5.377   9.999  0.6317  0.3720 -0.2594
   57CHL1  H11B 6660   0.769   5.264  10.013  1.1018 -0.1765 -0.0037
   57CHL1    C9 6661   0.823   5.475  10.049 -0.6689  0.5377 -0.5315
   57CHL1    H9 6662   0.929   5.450  10.028 -0.1213  2.3350  0.0778
   57CHL1   C10 6663   0.818   5.462  10.203  0.2756  0.2292  0.7248
   57CHL1   C19 6664   0.672   5.501  10.250  0.2777  0.2091 -0.1295
   57CHL1  H19A 6665   0.595   5.423  10.230  0.5249 -0.4518  1.4125
   57CHL1  H19B 6666   0.661   5.512  10.360  0.0304 -1.3204  0.0143
   57CHL1  H19C 6667   0.632   5.597  10.212 -0.6201 -0.2236 -0.2956
   57CHL1    C1 6668   0.873   5.328  10.255  0.9014  0.4764  0.9116
   57CHL1   H1A 6669   0.814   5.246  10.208  0.8679  1.2114 -0.3463
   57CHL1   H1B 6670   0.971   5.318  10.204  0.8195  0.7287  0.7008
   57CHL1    C2 6671   0.887   5.310  10.406 -0.3996  0.7533  0.5262
   57CHL1   H2A 6672   0.916   5.206  10.432  0.2402  0.6755 -0.4726
   57CHL1   H2B 6673   0.787   5.328  10.451 -1.1304 -0.7194 -0.4758
   57CHL1   C20 6674   0.640   5.526   9.522 -0.5944  0.1404 -0.2707
   57CHL1   H20 6675   0.547   5.581   9.548 -0.7657 -1.1883  2.0592
   57CHL1   C21 6676   0.594   5.378   9.518 -0.4486 -0.0933  0.9417
   57CHL1  H21A 6677   0.523   5.355   9.436  0.3201 -1.7253  0.7049
   57CHL1  H21B 6678   0.541   5.337   9.607 -2.3759  0.8035  0.2249
   57CHL1  H21C 6679   0.680   5.318   9.481 -1.3291 -0.8624  0.1014
   57CHL1   C22 6680   0.693   5.569   9.379  0.6348 -0.2729 -0.3238
   57CHL1  H22A 6681   0.717   5.676   9.364 -1.1142  0.3148  0.8755
   57CHL1  H22B 6682   0.782   5.503   9.367 -0.3175 -2.2685  2.9100
   57CHL1   C23 6683   0.598   5.546   9.255 -0.5858 -0.7929 -0.6298
   57CHL1  H23A 6684   0.584   5.436   9.261  0.5139 -0.9283 -0.5763
   57CHL1  H23B 6685   0.507   5.604   9.283 -0.6228 -0.7520 -0.8292
   57CHL1   C24 6686   0.656   5.596   9.125 -0.3386 -0.7987 -0.8534
   57CHL1  H24A 6687   0.665   5.707   9.130 -1.3963 -0.6389 -2.1378
   57CHL1  H24B 6688   0.761   5.562   9.113 -0.1919 -0.0190 -1.8673
   57CHL1   C25 6689   0.577   5.550   8.998 -0.1307  0.1602 -0.3402
   57CHL1   H25 6690   0.473   5.589   9.008  0.4310  1.2800  1.4319
   57CHL1   C26 6691   0.633   5.623   8.873  0.0565 -0.3835  0.2218
   57CHL1  H26A 6692   0.568   5.596   8.787 -1.7531 -0.5458  1.6055
   57CHL1  H26B 6693   0.632   5.732   8.889 -1.7261 -0.5297  1.1919
   57CHL1  H26C 6694   0.732   5.587   8.837 -0.6715 -1.4149 -0.7842
   57CHL1   C27 6695   0.570   5.395   8.985  0.9711  0.2555  0.9454
   57CHL1  H27A 6696   0.665   5.342   8.967 -0.5144 -1.1885 -3.1576
   57CHL1  H27B 6697   0.511   5.357   9.072  0.7540 -1.5853  0.0175
   57CHL1  H27C 6698   0.510   5.371   8.895  0.6725 -0.4333  1.3271
   58CHL1    C3 6699   3.056   3.902  10.119  0.0466 -0.2749  0.9740
   58CHL1    H3 6700   2.968   3.952  10.075 -0.4507 -1.6737  0.3605
   58CHL1    O3 6701   3.014   3.845  10.237  0.2224  0.1375 -0.0513
   58CHL1   H3' 6702   3.089   3.836  10.296  0.1063 -2.5161 -0.2656
   58CHL1    C4 6703   3.110   3.803  10.020  0.0825  0.3680  0.0774
   58CHL1   H4A 6704   3.177   3.736  10.077  0.0366 -0.8879 -1.3244
   58CHL1   H4B 6705   3.025   3.733  10.003 -0.1771  0.4152  1.1918
   58CHL1    C5 6706   3.183   3.844   9.896 -0.3550 -0.0330  0.0879
   58CHL1    C6 6707   3.157   3.789   9.785  0.0220  0.5199 -0.4498
   58CHL1    H6 6708   3.091   3.702   9.778 -0.7337  1.2593 -3.4604
   58CHL1    C7 6709   3.219   3.815   9.650  0.5540  0.6519  0.5634
   58CHL1   H7A 6710   3.250   3.720   9.601 -1.3122 -0.8057  2.1068
   58CHL1   H7B 6711   3.145   3.862   9.582 -1.7045 -2.7363  0.5872
   58CHL1    C8 6712   3.334   3.920   9.661  0.2810 -0.8014 -0.1441
   58CHL1    H8 6713   3.421   3.858   9.691  0.1565 -0.7301  0.3713
   58CHL1   C14 6714   3.362   4.000   9.535 -0.5997 -0.5190  0.1429
   58CHL1   H14 6715   3.265   4.050   9.513 -0.7903 -1.8875 -2.2686
   58CHL1   C15 6716   3.395   3.923   9.410 -0.2337 -0.7064 -0.9717
   58CHL1  H15A 6717   3.462   3.841   9.444  0.2024 -1.3863 -3.3222
   58CHL1  H15B 6718   3.304   3.883   9.359 -1.1505 -0.3379  0.3696
   58CHL1   C16 6719   3.465   4.027   9.318 -0.2269 -0.3339 -0.1626
   58CHL1  H16A 6720   3.560   3.986   9.278 -0.1185  0.5626 -0.8518
   58CHL1  H16B 6721   3.394   4.049   9.235 -0.0561 -1.1348 -0.5223
   58CHL1   C17 6722   3.485   4.157   9.405  0.0311 -0.5763  0.6040
   58CHL1   H17 6723   3.407   4.235   9.393  0.4136 -0.6508 -2.6885
   58CHL1   C13 6724   3.472   4.106   9.550 -0.0315 -0.9468 -0.0879
   58CHL1   C18 6725   3.611   4.044   9.591  0.8206  0.1373 -0.2383
   58CHL1  H18A 6726   3.619   3.986   9.686  3.7710  0.0473 -0.4831
   58CHL1  H18B 6727   3.633   3.968   9.513 -0.0463 -1.5533  1.1222
   58CHL1  H18C 6728   3.692   4.120   9.604  0.4158  0.6312 -0.6073
   58CHL1   C12 6729   3.436   4.210   9.653 -0.5914 -0.2633 -0.6852
   58CHL1  H12A 6730   3.520   4.278   9.678 -1.1016 -0.3785  1.5100
   58CHL1  H12B 6731   3.353   4.268   9.607 -2.4571 -1.1270  1.4834
   58CHL1   C11 6732   3.402   4.137   9.783  0.3106  0.1647 -0.1742
   58CHL1  H11A 6733   3.490   4.090   9.830  0.1347 -1.0115 -1.0012
   58CHL1  H11B 6734   3.363   4.210   9.856 -1.9839 -2.3565  1.1921
   58CHL1    C9 6735   3.302   4.024   9.779 -0.8869 -0.6347  0.1638
   58CHL1    H9 6736   3.205   4.072   9.756 -0.5426  0.3483  0.7561
   58CHL1   C10 6737   3.278   3.962   9.914  0.3945 -0.7229 -0.1755
   58CHL1   C19 6738   3.405   3.904   9.983 -0.1621 -0.4840 -0.8653
   58CHL1  H19A 6739   3.487   3.977   9.998 -1.1198  0.9261 -2.3783
   58CHL1  H19B 6740   3.390   3.852  10.081 -1.0147 -0.8357 -1.1772
   58CHL1  H19C 6741   3.453   3.830   9.915  1.7440  0.1882 -0.2766
   58CHL1    C1 6742   3.213   4.064  10.011 -0.2307 -0.4618 -0.8604
   58CHL1   H1A 6743   3.280   4.144  10.049  0.7242 -0.9058 -1.6084
   58CHL1   H1B 6744   3.130   4.117   9.959 -0.4052  0.9714  0.8300
   58CHL1    C2 6745   3.160   4.010  10.147 -0.2477  0.1458 -0.1513
   58CHL1   H2A 6746   3.125   4.096  10.209  0.3579 -0.9052  1.6848
   58CHL1   H2B 6747   3.252   3.977  10.200  0.2495  1.2413 -0.3293
   58CHL1   C20 6748   3.610   4.230   9.355 -0.0989  0.2620 -0.7932
   58CHL1   H20 6749   3.692   4.156   9.346 -0.8362 -0.7395  0.6011
   58CHL1   C21 6750   3.654   4.343   9.448 -0.2371 -0.8705 -0.1857
   58CHL1  H21A 6751   3.690   4.319   9.550 -0.2064  0.1941  0.0567
   58CHL1  H21B 6752   3.573   4.418   9.448  0.1156 -0.4841 -0.3945
   58CHL1  H21C 6753   3.746   4.393   9.410  0.7269 -1.1570  1.7418
   58CHL1   C22 6754   3.576   4.296   9.215 -0.1806  0.2569  0.2762
   58CHL1  H22A 6755   3.509   4.236   9.150  1.6056 -1.9889  0.4251
   58CHL1  H22B 6756   3.514   4.383   9.242 -2.0527 -0.6057 -1.1176
   58CHL1   C23 6757   3.692   4.353   9.131 -0.0696  0.4184  0.2274
   58CHL1  H23A 6758   3.747   4.431   9.188 -1.9265  0.8849  1.4100
   58CHL1  H23B 6759   3.762   4.268   9.116  0.3872  0.6390  1.0656
   58CHL1   C24 6760   3.645   4.428   9.003  0.1015 -0.2472  0.8713
   58CHL1  H24A 6761   3.567   4.357   8.969  1.4159 -0.6996 -1.3094
   58CHL1  H24B 6762   3.598   4.526   9.027 -0.8005 -0.4167 -0.1658
   58CHL1   C25 6763   3.753   4.453   8.892  0.5249 -0.4466  0.6872
   58CHL1   H25 6764   3.832   4.519   8.933 -0.0692  0.6651  0.0695
   58CHL1   C26 6765   3.827   4.321   8.851 -0.2272 -0.4839  0.1212
   58CHL1  H26A 6766   3.896   4.342   8.767  0.2935 -1.0997  0.3941
   58CHL1  H26B 6767   3.900   4.283   8.926 -2.4365 -0.8081  2.1862
   58CHL1  H26C 6768   3.752   4.245   8.822 -1.9119  1.0250  0.3964
   58CHL1   C27 6769   3.683   4.518   8.764  0.0418  1.1013  0.1317
   58CHL1  H27A 6770   3.634   4.612   8.796  0.1280  0.5234  2.0338
   58CHL1  H27B 6771   3.765   4.541   8.692  1.1703 -0.2580  0.9563
   58CHL1  H27C 6772   3.609   4.447   8.722  1.5715 -0.3886 -0.0939
   59CHL1    C3 6773   2.185   2.627  10.206 -0.3169 -1.2316  0.4876
   59CHL1    H3 6774   2.167   2.544  10.134  2.2715 -2.3825  1.1047
   59CHL1    O3 6775   2.188   2.580  10.341 -0.1859  0.0256 -0.5228
   59CHL1   H3' 6776   2.219   2.652  10.397  2.2478 -2.2355  1.1983
   59CHL1    C4 6777   2.325   2.684  10.172  0.5007  0.1251  0.2501
   59CHL1   H4A 6778   2.353   2.756  10.252  1.8912  0.4565 -0.5174
   59CHL1   H4B 6779   2.390   2.595  10.183  0.9827  0.4330 -0.0927
   59CHL1    C5 6780   2.332   2.739  10.029 -0.0602  0.0915  0.7142
   59CHL1    C6 6781   2.431   2.691   9.946  0.7533  0.2860 -0.5065
   59CHL1    H6 6782   2.508   2.625   9.988 -0.7913 -1.3389 -0.1898
   59CHL1    C7 6783   2.434   2.722   9.798 -0.0510  0.2925 -0.2864
   59CHL1   H7A 6784   2.534   2.737   9.752  0.4287  0.6763  0.8476
   59CHL1   H7B 6785   2.389   2.635   9.746 -0.9782  1.7063 -1.9215
   59CHL1    C8 6786   2.329   2.839   9.765 -0.4574 -0.1115  0.1404
   59CHL1    H8 6787   2.384   2.934   9.786  0.8618 -0.6186 -0.9453
   59CHL1   C14 6788   2.299   2.828   9.614 -0.4666 -0.1943  0.8710
   59CHL1   H14 6789   2.246   2.733   9.593 -1.0293  0.2383  0.3187
   59CHL1   C15 6790   2.419   2.818   9.524 -0.0565  0.0270  0.7950
   59CHL1  H15A 6791   2.504   2.885   9.550  0.9754 -0.5858 -0.9092
   59CHL1  H15B 6792   2.465   2.717   9.516 -0.9613 -0.2175 -1.6517
   59CHL1   C16 6793   2.368   2.863   9.385 -0.3031  0.1380 -0.2479
   59CHL1  H16A 6794   2.441   2.933   9.340  1.6723 -1.8886 -0.2591
   59CHL1  H16B 6795   2.364   2.779   9.312  0.5924 -2.0149  2.1189
   59CHL1   C17 6796   2.225   2.924   9.405 -0.5892 -0.1420 -0.5878
   59CHL1   H17 6797   2.155   2.840   9.388 -0.7178 -0.0092 -0.7069
   59CHL1   C13 6798   2.208   2.940   9.555  0.0233 -0.0374  0.1717
   59CHL1   C18 6799   2.273   3.074   9.596 -0.3724  0.1005 -0.1497
   59CHL1  H18A 6800   2.230   3.167   9.555  0.0893  1.0860  1.5750
   59CHL1  H18B 6801   2.288   3.086   9.705 -1.8148  1.4270 -0.0874
   59CHL1  H18C 6802   2.377   3.078   9.556  0.3838 -0.3838  1.7551
   59CHL1   C12 6803   2.068   2.921   9.621 -0.0684 -0.0740 -0.2639
   59CHL1  H12A 6804   1.992   2.999   9.601 -1.7341 -1.8378 -0.8882
   59CHL1  H12B 6805   2.028   2.821   9.596  0.3667 -0.3670  0.1914
   59CHL1   C11 6806   2.082   2.921   9.776 -0.1644 -0.4168 -0.0028
   59CHL1  H11A 6807   2.101   3.027   9.805 -2.9898  0.7387 -2.1191
   59CHL1  H11B 6808   1.980   2.892   9.811  0.3988  0.4905  2.5420
   59CHL1    C9 6809   2.196   2.830   9.836  0.5528 -0.3982  0.2795
   59CHL1    H9 6810   2.165   2.730   9.799  0.3667  0.4090 -1.8170
   59CHL1   C10 6811   2.210   2.836   9.986 -0.1583  0.0295 -0.0512
   59CHL1   C19 6812   2.248   2.979  10.037 -0.3447 -0.1141  0.1177
   59CHL1  H19A 6813   2.239   2.978  10.147  1.5232 -1.5865  0.2815
   59CHL1  H19B 6814   2.348   3.015  10.006 -0.4452 -0.9609 -1.2578
   59CHL1  H19C 6815   2.180   3.052   9.987  2.3313  2.7092  0.4934
   59CHL1    C1 6816   2.075   2.788  10.050 -0.8412  0.3313 -0.8274
   59CHL1   H1A 6817   2.001   2.870  10.067 -0.2580  0.3132  2.0242
   59CHL1   H1B 6818   2.017   2.714   9.990 -1.3722  2.4110 -2.9703
   59CHL1    C2 6819   2.086   2.741  10.195 -0.6329 -0.2082  0.0012
   59CHL1   H2A 6820   1.980   2.718  10.222 -1.1989  2.3737  0.1209
   59CHL1   H2B 6821   2.113   2.822  10.266  0.4422  1.6211 -2.4092
   59CHL1   C20 6822   2.174   3.026   9.305 -0.6564 -0.8774  0.3323
   59CHL1   H20 6823   2.242   3.112   9.323 -1.6084  0.0097 -0.2811
   59CHL1   C21 6824   2.029   3.069   9.322  0.7798 -0.2727  0.3308
   59CHL1  H21A 6825   1.961   2.982   9.316  0.9684 -0.3766 -0.2518
   59CHL1  H21B 6826   2.002   3.153   9.255  2.5015  0.8277  0.9638
   59CHL1  H21C 6827   2.033   3.109   9.426 -0.5090  2.2653 -0.5474
   59CHL1   C22 6828   2.200   2.980   9.156  0.0443 -0.1334  0.2126
   59CHL1  H22A 6829   2.304   2.954   9.130  0.8116  0.9949  2.1057
   59CHL1  H22B 6830   2.134   2.892   9.141  0.4032 -0.5079  0.8397
   59CHL1   C23 6831   2.165   3.103   9.068 -0.0364  0.3674 -0.1188
   59CHL1  H23A 6832   2.055   3.111   9.058  0.2184  2.8260 -1.3170
   59CHL1  H23B 6833   2.213   3.193   9.113 -1.1571 -0.0195  1.8799
   59CHL1   C24 6834   2.212   3.077   8.922 -0.4540  0.2526 -0.3774
   59CHL1  H24A 6835   2.323   3.078   8.923 -0.4485  0.0609 -0.9568
   59CHL1  H24B 6836   2.173   2.981   8.883  0.3161 -0.8163  1.4180
   59CHL1   C25 6837   2.173   3.193   8.817  0.9039 -0.6654 -0.0512
   59CHL1   H25 6838   2.064   3.186   8.800  0.5455 -0.7949  2.1981
   59CHL1   C26 6839   2.217   3.328   8.858 -0.6138 -0.7867  0.4871
   59CHL1  H26A 6840   2.177   3.402   8.785 -1.2121 -1.6986 -0.1172
   59CHL1  H26B 6841   2.177   3.364   8.956  1.1490  2.4414  0.1183
   59CHL1  H26C 6842   2.327   3.342   8.860 -0.6834  0.3387 -1.9427
   59CHL1   C27 6843   2.220   3.152   8.676  1.1361  0.3748 -0.0502
   59CHL1  H27A 6844   2.330   3.162   8.677  1.0235  1.6529 -0.5808
   59CHL1  H27B 6845   2.196   3.050   8.638  0.9374  0.1677  0.6179
   59CHL1  H27C 6846   2.172   3.221   8.604 -0.7872 -0.3882  0.4631
   60CHL1    C3 6847   2.342   2.098  10.152  0.2138  0.1972  0.1785
   60CHL1    H3 6848   2.436   2.040  10.152  0.1787  0.1333  1.1488
   60CHL1    O3 6849   2.296   2.066  10.287  0.2901  0.3107  0.2492
   60CHL1   H3' 6850   2.224   2.127  10.307 -0.4160 -0.3409 -0.2618
   60CHL1    C4 6851   2.365   2.245  10.130 -0.1736  0.1086 -0.1282
   60CHL1   H4A 6852   2.268   2.299  10.135 -0.5408 -0.4845 -0.7538
   60CHL1   H4B 6853   2.427   2.287  10.212  0.7700 -0.3712 -0.5927
   60CHL1    C5 6854   2.430   2.260   9.999  0.5078  1.1473  0.6012
   60CHL1    C6 6855   2.551   2.312   9.994  0.4620  0.8058  0.3396
   60CHL1    H6 6856   2.606   2.344  10.084  1.1505  0.0953  0.1880
   60CHL1    C7 6857   2.621   2.338   9.872 -0.2207 -0.5967  0.5271
   60CHL1   H7A 6858   2.658   2.443   9.873  1.3260 -1.1096 -1.5449
   60CHL1   H7B 6859   2.706   2.267   9.862 -0.0250 -0.2921  0.0110
   60CHL1    C8 6860   2.534   2.332   9.749 -0.2405  0.0492 -0.1007
   60CHL1    H8 6861   2.471   2.423   9.740  1.4265  1.1787 -0.5266
   60CHL1   C14 6862   2.618   2.319   9.624 -0.7100 -0.9385  0.4894
   60CHL1   H14 6863   2.678   2.227   9.637 -0.2092 -0.5516  0.9472
   60CHL1   C15 6864   2.726   2.429   9.605  0.9657  0.2850  0.0380
   60CHL1  H15A 6865   2.675   2.517   9.649  0.7577 -0.2386  0.8543
   60CHL1  H15B 6866   2.816   2.403   9.664 -1.3543 -4.2988  1.8775
   60CHL1   C16 6867   2.759   2.421   9.461  0.3336 -0.6016  0.1986
   60CHL1  H16A 6868   2.735   2.519   9.415  0.9084 -1.1028 -1.2001
   60CHL1  H16B 6869   2.866   2.403   9.434 -0.4681 -0.2033 -3.4347
   60CHL1   C17 6870   2.659   2.322   9.401 -0.3700  0.3787 -0.0646
   60CHL1   H17 6871   2.720   2.230   9.414 -0.1229  0.2176 -2.2786
   60CHL1   C13 6872   2.541   2.313   9.497  0.1176 -0.1888  0.0283
   60CHL1   C18 6873   2.453   2.438   9.469  0.4007  0.4177  0.2290
   60CHL1  H18A 6874   2.383   2.434   9.383 -1.6275  1.5523  1.7980
   60CHL1  H18B 6875   2.391   2.478   9.552  1.0256  2.3845 -0.2244
   60CHL1  H18C 6876   2.523   2.523   9.451  0.7523 -0.0084 -0.4218
   60CHL1   C12 6877   2.459   2.184   9.496  0.4445 -0.9629  0.4494
   60CHL1  H12A 6878   2.389   2.156   9.414 -0.4375 -0.3640  0.9881
   60CHL1  H12B 6879   2.521   2.092   9.503 -0.0917 -1.1337  3.2866
   60CHL1   C11 6880   2.372   2.185   9.616  0.0523 -0.3102  0.0358
   60CHL1  H11A 6881   2.306   2.273   9.602  0.8403  0.0085 -1.8820
   60CHL1  H11B 6882   2.297   2.104   9.625 -1.1686  0.2580 -4.2463
   60CHL1    C9 6883   2.444   2.207   9.748  0.1512  0.3651  0.6459
   60CHL1    H9 6884   2.518   2.125   9.757  2.3064  2.3975  2.0128
   60CHL1   C10 6885   2.353   2.206   9.877  0.3114 -0.1916 -0.3023
   60CHL1   C19 6886   2.234   2.299   9.853 -0.6283 -0.5963 -0.1110
   60CHL1  H19A 6887   2.170   2.304   9.944  0.5140  0.5528  0.6296
   60CHL1  H19B 6888   2.263   2.402   9.826 -2.4122 -0.2659 -0.8785
   60CHL1  H19C 6889   2.170   2.258   9.772 -1.4734 -0.8712  0.6863
   60CHL1    C1 6890   2.300   2.059   9.903  0.1608  0.0825 -0.0887
   60CHL1   H1A 6891   2.219   2.029   9.833 -1.2120  1.7509  0.7403
   60CHL1   H1B 6892   2.377   1.979   9.898  0.1896  0.0080  1.3118
   60CHL1    C2 6893   2.249   2.044  10.045  1.1197  0.3878  0.1481
   60CHL1   H2A 6894   2.233   1.936  10.068 -0.4228  0.5655 -0.0264
   60CHL1   H2B 6895   2.153   2.100  10.050  0.4385 -0.7894  0.7102
   60CHL1   C20 6896   2.630   2.322   9.249 -0.1279 -1.0544  0.4106
   60CHL1   H20 6897   2.529   2.363   9.224  1.5128  2.5305 -0.7758
   60CHL1   C21 6898   2.647   2.180   9.208 -0.5021  0.4590  0.0649
   60CHL1  H21A 6899   2.584   2.114   9.272 -0.0959 -0.6722 -0.6861
   60CHL1  H21B 6900   2.755   2.160   9.216 -0.3148  1.1477 -0.6396
   60CHL1  H21C 6901   2.618   2.157   9.103 -0.1248 -2.4622  0.5523
   60CHL1   C22 6902   2.727   2.411   9.171 -0.2301 -1.3179 -0.1689
   60CHL1  H22A 6903   2.726   2.514   9.212  2.2610 -0.9199 -1.0300
   60CHL1  H22B 6904   2.828   2.366   9.164  0.2081 -0.2702 -0.5854
   60CHL1   C23 6905   2.689   2.434   9.025 -0.7375 -0.3267 -0.2256
   60CHL1  H23A 6906   2.667   2.330   8.993 -2.3365 -0.3130  0.7775
   60CHL1  H23B 6907   2.597   2.496   9.026 -1.3530 -1.2039 -1.6396
   60CHL1   C24 6908   2.805   2.487   8.943  0.3374 -1.1449 -0.7853
   60CHL1  H24A 6909   2.859   2.564   9.001 -4.4748  0.8721  1.3184
   60CHL1  H24B 6910   2.874   2.403   8.920  1.2863 -0.3327 -0.9134
   60CHL1   C25 6911   2.768   2.552   8.810 -0.1592  0.3578 -0.0120
   60CHL1   H25 6912   2.722   2.466   8.758 -1.6312 -0.0178  1.8864
   60CHL1   C26 6913   2.659   2.668   8.818  0.2363  0.3666 -0.5863
   60CHL1  H26A 6914   2.558   2.646   8.857  0.0334  0.2284 -1.1807
   60CHL1  H26B 6915   2.694   2.760   8.870 -0.2215  1.2847 -1.8838
   60CHL1  H26C 6916   2.644   2.694   8.711  0.2090  0.1519 -0.6365
   60CHL1   C27 6917   2.889   2.605   8.726 -0.0274  0.1723 -0.4289
   60CHL1  H27A 6918   2.851   2.647   8.631 -0.3195 -2.1786 -1.3864
   60CHL1  H27B 6919   2.947   2.690   8.769  1.0794  0.9531 -3.3685
   60CHL1  H27C 6920   2.966   2.525   8.713 -0.9819 -0.8535  0.0883
   61CHL1    C3 6921   6.092   1.823  10.410 -0.3941  0.7813 -0.4848
   61CHL1    H3 6922   6.005   1.891  10.415 -0.0169  1.4548 -2.7357
   61CHL1    O3 6923   6.125   1.782  10.545  0.3078  0.3546 -0.2372
   61CHL1   H3' 6924   6.174   1.855  10.584 -0.7490 -0.7185  3.3380
   61CHL1    C4 6925   6.055   1.693  10.332 -0.5377  0.0629 -0.4359
   61CHL1   H4A 6926   6.140   1.623  10.349  0.5154  0.9572 -1.8972
   61CHL1   H4B 6927   5.971   1.645  10.387 -2.1692  2.2662 -0.9566
   61CHL1    C5 6928   6.043   1.705  10.183  0.1381  0.5992 -0.6457
   61CHL1    C6 6929   5.934   1.670  10.116 -0.1318  0.2987 -0.1394
   61CHL1    H6 6930   5.868   1.607  10.176  0.7573  0.8025  1.4069
   61CHL1    C7 6931   5.923   1.653   9.968 -0.3926 -0.6245  0.2457
   61CHL1   H7A 6932   5.894   1.552   9.932 -0.1270 -0.3126 -0.8517
   61CHL1   H7B 6933   5.846   1.722   9.928 -0.1164 -1.0979 -1.1468
   61CHL1    C8 6934   6.053   1.678   9.898 -0.3246  0.6464 -0.0790
   61CHL1    H8 6935   6.121   1.591   9.909  0.7529  1.5206  0.2516
   61CHL1   C14 6936   6.029   1.702   9.754  0.6578 -0.4457  0.0981
   61CHL1   H14 6937   5.972   1.797   9.750  0.7047 -0.4621 -1.0443
   61CHL1   C15 6938   5.928   1.609   9.680 -0.4677 -0.0573  0.3104
   61CHL1  H15A 6939   5.950   1.505   9.715  1.4766 -0.3280 -1.5627
   61CHL1  H15B 6940   5.827   1.653   9.692 -1.6781 -2.7074  0.3903
   61CHL1   C16 6941   5.987   1.623   9.540  0.3928 -0.2400  0.7087
   61CHL1  H16A 6942   6.026   1.522   9.514  1.9230  0.4119  0.4340
   61CHL1  H16B 6943   5.898   1.630   9.475  0.2309 -0.2581  0.9244
   61CHL1   C17 6944   6.095   1.733   9.532 -0.3492 -0.4049  0.0404
   61CHL1   H17 6945   6.043   1.831   9.522  0.3663  0.0531  0.7483
   61CHL1   C13 6946   6.156   1.727   9.673  0.0108  0.0841 -0.2389
   61CHL1   C18 6947   6.257   1.609   9.691  0.4996  0.1565  0.2239
   61CHL1  H18A 6948   6.337   1.610   9.615 -1.2552 -1.2457 -1.6869
   61CHL1  H18B 6949   6.304   1.606   9.792  1.0122  1.0027  0.0143
   61CHL1  H18C 6950   6.200   1.515   9.677 -0.4935  0.2902  2.9992
   61CHL1   C12 6951   6.225   1.852   9.731 -1.1893  0.2909  0.0502
   61CHL1  H12A 6952   6.322   1.871   9.678  0.4551 -0.0055  2.8630
   61CHL1  H12B 6953   6.162   1.940   9.705 -1.0291  0.0083 -1.3589
   61CHL1   C11 6954   6.247   1.845   9.883  0.2072 -0.4171 -0.5438
   61CHL1  H11A 6955   6.333   1.775   9.885 -0.5145 -1.3464 -1.3768
   61CHL1  H11B 6956   6.288   1.942   9.918  0.6861 -1.1212  0.8666
   61CHL1    C9 6957   6.128   1.799   9.967 -0.5734  0.4484 -0.5986
   61CHL1    H9 6958   6.057   1.884   9.968 -0.9884  0.1533 -2.4953
   61CHL1   C10 6959   6.166   1.767  10.113  1.1925  0.3048  0.0315
   61CHL1   C19 6960   6.284   1.667  10.126  0.1153 -0.3015  0.1728
   61CHL1  H19A 6961   6.372   1.694  10.066  0.1794  0.0771  0.4355
   61CHL1  H19B 6962   6.313   1.646  10.231 -2.5314 -1.0696  0.7967
   61CHL1  H19C 6963   6.244   1.575  10.078  1.8339 -0.3899 -1.1258
   61CHL1    C1 6964   6.192   1.900  10.190 -0.3702 -0.1833  0.0672
   61CHL1   H1A 6965   6.289   1.936  10.149 -0.3094 -0.9429 -0.4555
   61CHL1   H1B 6966   6.113   1.974  10.165 -0.2914  0.1279  0.7269
   61CHL1    C2 6967   6.210   1.883  10.345 -0.6974  0.4486  0.0258
   61CHL1   H2A 6968   6.252   1.977  10.387  0.4811 -0.1421  0.2025
   61CHL1   H2B 6969   6.291   1.808  10.354  1.4439  2.7586  0.7047
   61CHL1   C20 6970   6.192   1.711   9.416 -0.0080 -0.4259 -0.0675
   61CHL1   H20 6971   6.264   1.628   9.434  1.0650  0.5940  0.3963
   61CHL1   C21 6972   6.268   1.842   9.391  0.3633 -0.0974  0.5382
   61CHL1  H21A 6973   6.195   1.924   9.372 -0.4691 -0.7962  0.6853
   61CHL1  H21B 6974   6.335   1.844   9.302 -1.7915 -3.3966 -1.2637
   61CHL1  H21C 6975   6.321   1.872   9.484  1.8144 -0.1454 -0.2561
   61CHL1   C22 6976   6.110   1.683   9.292 -0.0285 -0.4303  0.6195
   61CHL1  H22A 6977   6.072   1.578   9.293  1.0971 -0.8397  0.8689
   61CHL1  H22B 6978   6.024   1.753   9.288 -0.2125 -0.6377  0.8975
   61CHL1   C23 6979   6.176   1.694   9.157  0.6271 -0.1809  0.3446
   61CHL1  H23A 6980   6.203   1.796   9.122 -2.5304  0.2992 -0.8734
   61CHL1  H23B 6981   6.273   1.639   9.165  1.7845  1.8813  0.9370
   61CHL1   C24 6982   6.096   1.618   9.053  0.8409  0.2094 -0.3114
   61CHL1  H24A 6983   6.075   1.517   9.092 -2.3278  1.5078  1.5484
   61CHL1  H24B 6984   6.006   1.674   9.020  0.5631 -0.3194 -0.4458
   61CHL1   C25 6985   6.171   1.602   8.921  0.1358 -0.6155 -0.2452
   61CHL1   H25 6986   6.262   1.543   8.947  0.2444 -1.2312 -2.0035
   61CHL1   C26 6987   6.082   1.525   8.815 -0.0681  0.1276  0.1988
   61CHL1  H26A 6988   6.135   1.508   8.719 -0.7937  0.1797 -0.2151
   61CHL1  H26B 6989   6.032   1.435   8.856  1.0092  0.0804  1.4566
   61CHL1  H26C 6990   5.996   1.592   8.792 -0.1839 -0.1113 -0.0546
   61CHL1   C27 6991   6.205   1.740   8.860 -0.1592  0.2205  0.2207
   61CHL1  H27A 6992   6.118   1.809   8.851  1.4175  2.3094  0.5924
   61CHL1  H27B 6993   6.282   1.798   8.916 -0.4176  0.9728 -0.1968
   61CHL1  H27C 6994   6.244   1.728   8.757  0.4276 -0.3256  0.5038
   62CHL1    C3 6995   6.797   5.492  10.001 -0.0189  0.5149 -0.3962
   62CHL1    H3 6996   6.713   5.421   9.991  0.7041  0.0106 -3.2835
   62CHL1    O3 6997   6.805   5.528  10.139  0.5681 -0.0075  0.2337
   62CHL1   H3' 6998   6.821   5.443  10.181 -1.0255 -0.5312 -0.1903
   62CHL1    C4 6999   6.932   5.430   9.949 -0.2993 -0.9382  0.7935
   62CHL1   H4A 7000   7.007   5.506   9.976 -2.3013  1.7327 -0.9308
   62CHL1   H4B 7001   6.938   5.335  10.007  0.5355 -1.1648  0.3433
   62CHL1    C5 7002   6.934   5.409   9.798  0.3875  0.0490 -0.2573
   62CHL1    C6 7003   6.964   5.288   9.760 -0.1552 -0.3174  0.2192
   62CHL1    H6 7004   6.998   5.213   9.833 -0.7119 -0.4259  0.3666
   62CHL1    C7 7005   6.976   5.254   9.611  0.2300 -0.0863 -0.3715
   62CHL1   H7A 7006   7.072   5.200   9.594  0.0885  0.0132 -1.5027
   62CHL1   H7B 7007   6.888   5.199   9.574 -0.6971  1.2750 -0.2338
   62CHL1    C8 7008   6.980   5.378   9.513  0.6109  0.0729 -0.4096
   62CHL1    H8 7009   7.079   5.428   9.524 -0.4041  2.3925 -1.5795
   62CHL1   C14 7010   6.941   5.333   9.382  0.5017 -0.4247 -0.2696
   62CHL1   H14 7011   6.834   5.301   9.384  0.3267  0.0097 -1.9321
   62CHL1   C15 7012   7.032   5.225   9.316  0.4598  0.4701 -0.3418
   62CHL1  H15A 7013   7.136   5.246   9.348  0.3175 -1.1640  1.3011
   62CHL1  H15B 7014   7.012   5.120   9.349  1.3773 -0.4367 -2.5791
   62CHL1   C16 7015   7.015   5.243   9.174 -0.3849  0.4324 -0.0710
   62CHL1  H16A 7016   7.122   5.249   9.143 -0.2632  0.3662  0.3253
   62CHL1  H16B 7017   6.970   5.156   9.122 -0.5591  1.4156 -1.6124
   62CHL1   C17 7018   6.933   5.370   9.149 -0.1741 -0.4121  0.3941
   62CHL1   H17 7019   6.828   5.336   9.141 -0.5403  1.3083 -2.3698
   62CHL1   C13 7020   6.941   5.451   9.278  0.4734 -0.0577  0.1780
   62CHL1   C18 7021   7.084   5.519   9.272  0.3409 -0.4091  0.1220
   62CHL1  H18A 7022   7.112   5.561   9.371  0.4320  0.8710 -0.4336
   62CHL1  H18B 7023   7.162   5.444   9.247 -0.0284 -0.7353 -0.0689
   62CHL1  H18C 7024   7.085   5.605   9.201  0.9081 -1.5636 -1.2924
   62CHL1   C12 7025   6.831   5.542   9.315  0.2814 -0.4092 -0.0180
   62CHL1  H12A 7026   6.827   5.627   9.242  0.7768  0.4391  0.9278
   62CHL1  H12B 7027   6.736   5.486   9.305 -0.0903  0.5403 -2.2722
   62CHL1   C11 7028   6.840   5.585   9.455 -0.8664  0.0883  0.1740
   62CHL1  H11A 7029   6.927   5.655   9.453  0.5217 -1.6356 -0.8147
   62CHL1  H11B 7030   6.755   5.651   9.485 -2.0725 -1.5600  0.4328
   62CHL1    C9 7031   6.875   5.475   9.559  0.3836 -0.7915 -0.6410
   62CHL1    H9 7032   6.783   5.414   9.561 -0.4471  0.4066 -1.4863
   62CHL1   C10 7033   6.898   5.523   9.704  0.8761  0.5188  0.2054
   62CHL1   C19 7034   7.005   5.634   9.693  0.5921  0.2955  0.0759
   62CHL1  H19A 7035   7.093   5.595   9.639 -1.1466 -1.4195 -1.6010
   62CHL1  H19B 7036   6.964   5.728   9.651 -1.8007 -0.7111  0.0255
   62CHL1  H19C 7037   7.036   5.663   9.796  1.3407 -0.4511  0.0684
   62CHL1    C1 7038   6.761   5.591   9.764 -0.2699  0.3874  0.1351
   62CHL1   H1A 7039   6.751   5.684   9.704  0.0949 -1.6256 -3.1515
   62CHL1   H1B 7040   6.687   5.515   9.730  0.2979 -1.3302  2.5910
   62CHL1    C2 7041   6.761   5.619   9.912 -0.0598  0.0893 -0.2060
   62CHL1   H2A 7042   6.664   5.667   9.935  0.5351  0.7382  1.0264
   62CHL1   H2B 7043   6.839   5.697   9.925 -0.0196 -0.0058  0.1362
   62CHL1   C20 7044   6.948   5.434   9.013 -1.4401 -0.3020  0.2611
   62CHL1   H20 7045   7.019   5.519   9.020 -0.0304 -1.5037  0.6868
   62CHL1   C21 7046   6.813   5.481   8.965  0.4115 -0.1132 -0.4181
   62CHL1  H21A 7047   6.744   5.397   8.942  1.7515 -1.3512 -0.0186
   62CHL1  H21B 7048   6.813   5.543   8.873 -1.4826 -0.5418 -0.7234
   62CHL1  H21C 7049   6.763   5.545   9.041 -1.4450 -0.2748 -1.4889
   62CHL1   C22 7050   7.012   5.343   8.902  0.5199  0.1494 -0.5395
   62CHL1  H22A 7051   7.116   5.324   8.937 -0.2221 -2.2189  0.4246
   62CHL1  H22B 7052   6.941   5.258   8.900 -2.5815  2.5448  2.5160
   62CHL1   C23 7053   7.020   5.409   8.766  0.2441  0.7102 -0.1976
   62CHL1  H23A 7054   6.922   5.417   8.713 -1.2426 -1.8181  2.1019
   62CHL1  H23B 7055   7.061   5.512   8.770 -2.7710  2.0048 -1.0034
   62CHL1   C24 7056   7.119   5.332   8.671 -0.3406  0.1025 -0.5799
   62CHL1  H24A 7057   7.132   5.389   8.576 -0.3447 -0.9874 -1.2398
   62CHL1  H24B 7058   7.221   5.317   8.712 -0.0249 -1.3366 -1.8466
   62CHL1   C25 7059   7.061   5.190   8.623  0.4771 -0.4242 -0.9996
   62CHL1   H25 7060   6.996   5.148   8.702  1.2399 -0.6020 -0.4625
   62CHL1   C26 7061   6.963   5.206   8.507  0.6446 -0.1295  0.3564
   62CHL1  H26A 7062   6.999   5.275   8.428 -0.9781  1.7689  1.2477
   62CHL1  H26B 7063   6.957   5.107   8.457  3.4601  0.4484 -1.2293
   62CHL1  H26C 7064   6.863   5.248   8.533  0.2420 -0.5033 -0.5626
   62CHL1   C27 7065   7.169   5.085   8.592  0.8019 -0.1244  0.7743
   62CHL1  H27A 7066   7.228   5.123   8.507 -0.2025 -0.1976  0.0338
   62CHL1  H27B 7067   7.235   5.062   8.678  1.6927  0.1315  0.1630
   62CHL1  H27C 7068   7.125   4.987   8.562  2.2770 -0.9736  1.3283
   63CHL1    C3 7069   1.577   0.181  10.250 -0.6895  0.1947  0.0039
   63CHL1    H3 7070   1.626   0.281  10.248 -1.9526  0.8287  0.1864
   63CHL1    O3 7071   1.502   0.166  10.375  0.0615 -0.1721 -0.0309
   63CHL1   H3' 7072   1.442   0.092  10.370 -0.5103  0.1231  2.0707
   63CHL1    C4 7073   1.479   0.168  10.135 -0.1412 -0.1471  0.3259
   63CHL1   H4A 7074   1.422   0.074  10.153 -0.5763  0.2308  0.9220
   63CHL1   H4B 7075   1.408   0.252  10.141 -1.0463 -0.9381  0.8618
   63CHL1    C5 7076   1.553   0.170  10.001 -0.5128 -0.7939  0.1959
   63CHL1    C6 7077   1.509   0.261   9.912 -0.0395  0.1793  0.7709
   63CHL1    H6 7078   1.428   0.331   9.937 -1.1197  0.3436 -2.8681
   63CHL1    C7 7079   1.550   0.263   9.773  0.4833 -0.0118  0.1386
   63CHL1   H7A 7080   1.460   0.262   9.708 -0.5042  0.9221  1.4659
   63CHL1   H7B 7081   1.611   0.354   9.753  1.7384 -0.2388  2.6739
   63CHL1    C8 7082   1.646   0.147   9.725 -0.0871 -0.4756 -0.0655
   63CHL1    H8 7083   1.571   0.069   9.699  2.0744 -2.5406 -0.3254
   63CHL1   C14 7084   1.724   0.167   9.601 -0.0736  0.6685  0.6381
   63CHL1   H14 7085   1.792   0.249   9.633  0.3392 -0.0521  1.6520
   63CHL1   C15 7086   1.648   0.219   9.477  0.4365 -0.2951  0.1276
   63CHL1  H15A 7087   1.558   0.157   9.459  2.1726 -2.5178 -1.1762
   63CHL1  H15B 7088   1.625   0.327   9.485 -0.6493 -0.2682 -2.8699
   63CHL1   C16 7089   1.747   0.195   9.361 -0.1918  1.3650 -0.0611
   63CHL1  H16A 7090   1.703   0.133   9.281 -0.5566  1.3213  0.1768
   63CHL1  H16B 7091   1.782   0.290   9.314 -0.1571  1.1278 -0.5178
   63CHL1   C17 7092   1.867   0.119   9.427 -0.4647  0.0349  0.5343
   63CHL1   H17 7093   1.938   0.198   9.459 -0.7236 -0.3103  1.9903
   63CHL1   C13 7094   1.808   0.056   9.558  0.1806  0.1625  0.3926
   63CHL1   C18 7095   1.722  -0.067   9.522 -0.4904 -0.0397  0.0858
   63CHL1  H18A 7096   1.657  -0.109   9.601  1.1516  0.1762  1.5989
   63CHL1  H18B 7097   1.664  -0.040   9.431  0.5314 -1.3997 -0.9830
   63CHL1  H18C 7098   1.796  -0.143   9.489 -0.0061  0.4508  0.0231
   63CHL1   C12 7099   1.909   0.020   9.663 -0.2427 -0.1534 -0.3265
   63CHL1  H12A 7100   1.979  -0.063   9.641 -0.6689 -0.7312  0.4782
   63CHL1  H12B 7101   1.971   0.110   9.680 -0.1718 -0.1417 -0.6294
   63CHL1   C11 7102   1.842  -0.018   9.798 -0.5255  0.4417  0.1528
   63CHL1  H11A 7103   1.800  -0.121   9.788  0.3205  0.2922 -2.0970
   63CHL1  H11B 7104   1.913  -0.021   9.884  0.2785  0.2982 -0.5124
   63CHL1    C9 7105   1.731   0.087   9.843  0.3193  0.1292  0.3875
   63CHL1    H9 7106   1.791   0.175   9.876 -1.4127  0.8516  1.6652
   63CHL1   C10 7107   1.657   0.065   9.974  0.4005 -0.9849 -0.0934
   63CHL1   C19 7108   1.582  -0.072   9.971  0.3092 -0.1113 -0.2720
   63CHL1  H19A 7109   1.496  -0.066   9.901  1.4519  0.8137 -1.6385
   63CHL1  H19B 7110   1.656  -0.150   9.942 -1.3320 -1.3435 -1.2000
   63CHL1  H19C 7111   1.549  -0.107  10.071  2.7727 -3.1157 -0.4416
   63CHL1    C1 7112   1.748   0.066  10.097 -0.1295 -0.0358  0.4311
   63CHL1   H1A 7113   1.815  -0.022  10.085 -0.7342 -0.4130 -0.2174
   63CHL1   H1B 7114   1.803   0.161  10.079  1.1146 -0.4814  1.7329
   63CHL1    C2 7115   1.685   0.066  10.232 -0.0065 -0.4092  1.2243
   63CHL1   H2A 7116   1.760   0.085  10.312 -0.8271  1.1166  1.6581
   63CHL1   H2B 7117   1.640  -0.033  10.257 -1.8386  0.0554 -0.1844
   63CHL1   C20 7118   1.948   0.028   9.331  0.6008 -0.0251 -0.2365
   63CHL1   H20 7119   1.989  -0.056   9.391 -0.0462  0.1948  0.5230
   63CHL1   C21 7120   2.068   0.111   9.280 -0.3796 -0.0768  0.0272
   63CHL1  H21A 7121   2.035   0.199   9.222  2.0824  0.3052 -0.8425
   63CHL1  H21B 7122   2.123   0.049   9.205 -0.2227 -0.2366  0.2739
   63CHL1  H21C 7123   2.137   0.143   9.361  1.5496  0.9185 -1.9686
   63CHL1   C22 7124   1.870  -0.038   9.212 -0.4776 -0.7976  0.5995
   63CHL1  H22A 7125   1.772  -0.075   9.248 -2.1498  2.4355 -0.5192
   63CHL1  H22B 7126   1.853   0.030   9.126 -3.8001 -1.5380  0.6113
   63CHL1   C23 7127   1.945  -0.158   9.162  0.3573 -0.1823  0.8094
   63CHL1  H23A 7128   2.032  -0.130   9.098 -0.4704 -1.0451 -0.7295
   63CHL1  H23B 7129   1.973  -0.200   9.261 -2.9873  0.4768  2.1042
   63CHL1   C24 7130   1.856  -0.253   9.078  0.8528 -0.7353 -0.5361
   63CHL1  H24A 7131   1.911  -0.346   9.053  2.1906 -0.1051  0.0640
   63CHL1  H24B 7132   1.755  -0.274   9.120  0.0229 -0.5579 -2.3723
   63CHL1   C25 7133   1.817  -0.186   8.945  0.1301  0.1992 -0.2700
   63CHL1   H25 7134   1.791  -0.080   8.966 -0.1553 -0.3692  2.3713
   63CHL1   C26 7135   1.937  -0.180   8.850 -0.3578  0.6674 -0.0472
   63CHL1  H26A 7136   2.041  -0.184   8.889 -0.1196 -2.4706 -0.8817
   63CHL1  H26B 7137   1.921  -0.263   8.778  1.4587 -0.3887  0.7268
   63CHL1  H26C 7138   1.935  -0.086   8.792 -1.4193  1.6330  1.5155
   63CHL1   C27 7139   1.696  -0.247   8.881  0.3400  0.1485 -0.0716
   63CHL1  H27A 7140   1.614  -0.239   8.956  0.5516  0.0448  0.1717
   63CHL1  H27B 7141   1.669  -0.189   8.790 -3.6850  1.4451  1.8388
   63CHL1  H27C 7142   1.716  -0.354   8.859  0.3193  0.0668  0.3013
   64CHL1    C3 7143   0.736   6.029  10.265  0.1074  0.4657 -0.2485
   64CHL1    H3 7144   0.743   5.928  10.220  2.6535  0.7695 -0.5864
   64CHL1    O3 7145   0.676   6.028  10.399 -0.0943 -0.2531  0.3842
   64CHL1   H3' 7146   0.738   5.977  10.452  1.9528  1.1149 -0.6031
   64CHL1    C4 7147   0.883   6.090  10.271  0.8686  0.3529  0.5019
   64CHL1   H4A 7148   0.874   6.191  10.316  0.9081  0.6381 -0.1182
   64CHL1   H4B 7149   0.939   6.027  10.343 -1.3668 -0.8889  1.2028
   64CHL1    C5 7150   0.938   6.086  10.135 -0.0911 -0.5214  0.0233
   64CHL1    C6 7151   1.055   6.017  10.112 -0.6056 -0.4408  0.8660
   64CHL1    H6 7152   1.107   5.966  10.194  0.1655 -1.6797 -0.3704
   64CHL1    C7 7153   1.120   6.018   9.971 -0.4302 -0.1328 -0.9448
   64CHL1   H7A 7154   1.231   6.028   9.982 -0.3999  0.0730 -1.4308
   64CHL1   H7B 7155   1.096   5.919   9.926 -1.4883 -0.7004  0.8258
   64CHL1    C8 7156   1.064   6.124   9.870 -0.4769  0.5767 -0.3888
   64CHL1    H8 7157   1.138   6.207   9.877  3.0076 -2.5192  1.5609
   64CHL1   C14 7158   1.096   6.074   9.728 -0.2592 -0.7510 -0.1996
   64CHL1   H14 7159   1.040   5.980   9.712 -3.4744  0.8459  1.2122
   64CHL1   C15 7160   1.234   6.034   9.700  0.3883 -0.0279 -0.0509
   64CHL1  H15A 7161   1.309   6.107   9.739  0.8858 -0.4678 -0.1870
   64CHL1  H15B 7162   1.264   5.930   9.721 -2.0499 -0.4267  1.5352
   64CHL1   C16 7163   1.245   6.029   9.549  0.1339  0.1474  0.6957
   64CHL1  H16A 7164   1.334   6.080   9.506  0.6808  0.3375  2.0099
   64CHL1  H16B 7165   1.243   5.925   9.510  1.1545 -0.0338  1.0988
   64CHL1   C17 7166   1.123   6.104   9.489 -0.5431 -0.2699 -0.2138
   64CHL1   H17 7167   1.049   6.026   9.460  1.2854 -2.6839  1.4112
   64CHL1   C13 7168   1.058   6.179   9.622 -0.3541  0.8238  0.4075
   64CHL1   C18 7169   1.115   6.320   9.636 -0.7942 -0.2736 -0.4051
   64CHL1  H18A 7170   1.226   6.320   9.631 -0.5636  1.4581  3.1035
   64CHL1  H18B 7171   1.065   6.385   9.561 -0.7570  0.8391  0.5152
   64CHL1  H18C 7172   1.075   6.356   9.733  0.4088  0.6271 -0.2423
   64CHL1   C12 7173   0.901   6.191   9.637  0.0022  0.2907  0.8484
   64CHL1  H12A 7174   0.839   6.255   9.571 -1.4833 -2.7204 -0.7746
   64CHL1  H12B 7175   0.855   6.091   9.622  2.1306 -0.3861 -1.5124
   64CHL1   C11 7176   0.854   6.227   9.781  0.2465 -0.3895 -0.3503
   64CHL1  H11A 7177   0.887   6.330   9.809  0.8394 -1.0852  1.5869
   64CHL1  H11B 7178   0.743   6.230   9.774 -0.0026  0.9665  3.3483
   64CHL1    C9 7179   0.910   6.138   9.887 -0.6065 -0.3596  0.8582
   64CHL1    H9 7180   0.882   6.034   9.859  2.1913 -0.9060 -0.0802
   64CHL1   C10 7181   0.855   6.156  10.026  0.2879  0.1318 -0.6559
   64CHL1   C19 7182   0.876   6.312  10.058  0.2938 -1.0840 -0.4121
   64CHL1  H19A 7183   0.789   6.369  10.019 -0.0004 -0.2176  1.4623
   64CHL1  H19B 7184   0.870   6.334  10.167 -2.5172  1.3916 -1.0155
   64CHL1  H19C 7185   0.976   6.349  10.027  0.9549 -3.3737 -1.0963
   64CHL1    C1 7186   0.701   6.116  10.031  0.1945  0.4470 -0.0573
   64CHL1   H1A 7187   0.644   6.195   9.978 -0.9303  0.0858  0.5885
   64CHL1   H1B 7188   0.673   6.024   9.976  0.5246 -1.1075  2.2796
   64CHL1    C2 7189   0.642   6.108  10.170 -0.3512  0.2310 -0.8089
   64CHL1   H2A 7190   0.552   6.042  10.169  0.6791 -1.2020  0.1731
   64CHL1   H2B 7191   0.630   6.212  10.208 -0.6131  1.0284 -2.9920
   64CHL1   C20 7192   1.153   6.187   9.368 -0.4732 -0.2660  0.6790
   64CHL1   H20 7193   1.229   6.260   9.402  0.0744 -0.6927  0.3860
   64CHL1   C21 7194   1.024   6.258   9.316  0.2160 -0.6296 -0.0944
   64CHL1  H21A 7195   0.943   6.183   9.301  0.7408 -1.5494  1.5462
   64CHL1  H21B 7196   1.040   6.298   9.214  1.4870 -1.6846 -0.3298
   64CHL1  H21C 7197   0.987   6.343   9.378  0.3938  0.6876 -1.7669
   64CHL1   C22 7198   1.220   6.104   9.261  0.0176 -0.3671 -0.1260
   64CHL1  H22A 7199   1.316   6.060   9.293  0.7982  0.8222 -0.7906
   64CHL1  H22B 7200   1.158   6.016   9.233 -0.0016 -1.0072  1.8668
   64CHL1   C23 7201   1.259   6.179   9.130  0.5990 -0.3188 -0.6291
   64CHL1  H23A 7202   1.167   6.208   9.075 -0.0359 -0.4391  0.3515
   64CHL1  H23B 7203   1.313   6.270   9.164  0.8357 -1.4072  2.0057
   64CHL1   C24 7204   1.360   6.115   9.037 -0.5394  0.6210 -0.5997
   64CHL1  H24A 7205   1.442   6.100   9.110  0.5320  1.3396 -1.6442
   64CHL1  H24B 7206   1.320   6.014   9.013  2.9368 -0.9469 -0.0457
   64CHL1   C25 7207   1.390   6.197   8.911  0.0088 -0.2175  0.1293
   64CHL1   H25 7208   1.295   6.233   8.865  0.0937  0.4580  0.4672
   64CHL1   C26 7209   1.473   6.320   8.950  0.5366 -0.2569 -0.7139
   64CHL1  H26A 7210   1.495   6.385   8.863  1.1662 -1.5990 -1.5809
   64CHL1  H26B 7211   1.412   6.388   9.012 -0.4345  0.1657 -2.1226
   64CHL1  H26C 7212   1.572   6.294   8.995 -0.1889  0.5854  1.4360
   64CHL1   C27 7213   1.464   6.106   8.813 -0.7303  0.0800 -0.3952
   64CHL1  H27A 7214   1.490   6.148   8.714 -0.2265 -0.6307 -0.5649
   64CHL1  H27B 7215   1.559   6.073   8.861  0.1092  1.1952 -1.2656
   64CHL1  H27C 7216   1.409   6.012   8.790 -0.4239  0.2783 -1.9954
   65CHL1    C3 7217   2.874   3.138  10.271 -0.3197  0.6811 -0.1608
   65CHL1    H3 7218   2.969   3.090  10.239 -0.1580  1.5523 -1.0113
   65CHL1    O3 7219   2.877   3.168  10.410  0.1801 -0.0496  0.5932
   65CHL1   H3' 7220   2.951   3.226  10.429 -0.3507  0.1111  2.2488
   65CHL1    C4 7221   2.860   3.269  10.191  0.4381  0.4608  0.7919
   65CHL1   H4A 7222   2.766   3.320  10.222  0.6437  0.7234  0.9788
   65CHL1   H4B 7223   2.937   3.345  10.218  1.1891 -0.1576  0.3923
   65CHL1    C5 7224   2.864   3.232  10.045  0.5326  0.5722  0.2759
   65CHL1    C6 7225   2.955   3.282   9.962  0.3707 -1.0178  0.5321
   65CHL1    H6 7226   3.031   3.351  10.001 -0.7293  1.9020 -2.2784
   65CHL1    C7 7227   2.976   3.244   9.820 -0.1479  0.6870  0.1058
   65CHL1   H7A 7228   3.003   3.340   9.772  1.4226 -0.2626 -0.9550
   65CHL1   H7B 7229   3.066   3.180   9.809  0.6863  2.0184 -0.9622
   65CHL1    C8 7230   2.854   3.174   9.745 -0.6602 -0.3901  0.6349
   65CHL1    H8 7231   2.767   3.239   9.725 -0.4803 -0.2011  0.4634
   65CHL1   C14 7232   2.914   3.123   9.617 -0.0495 -0.7144 -0.3718
   65CHL1   H14 7233   3.005   3.071   9.655  1.7437  1.0956 -2.0876
   65CHL1   C15 7234   2.986   3.220   9.514  0.8275 -0.4697  0.9964
   65CHL1  H15A 7235   2.924   3.311   9.497 -0.0825 -0.7627  2.7040
   65CHL1  H15B 7236   3.088   3.243   9.554  0.2731  1.8572  1.1807
   65CHL1   C16 7237   2.985   3.134   9.394 -0.1922 -0.1831  0.2170
   65CHL1  H16A 7238   2.908   3.174   9.325 -1.4010 -1.4376  0.8039
   65CHL1  H16B 7239   3.081   3.125   9.339  0.1583 -1.4262  1.0067
   65CHL1   C17 7240   2.915   2.996   9.426  0.3792  0.0212 -0.9744
   65CHL1   H17 7241   3.002   2.940   9.466  0.8361  0.4939 -1.2921
   65CHL1   C13 7242   2.819   3.030   9.542  0.1731 -0.0675 -0.2374
   65CHL1   C18 7243   2.700   3.110   9.485  0.4774  0.1723 -0.4501
   65CHL1  H18A 7244   2.635   3.038   9.431  1.5219 -0.6730 -0.5808
   65CHL1  H18B 7245   2.644   3.147   9.574  1.5441  0.0657  0.2784
   65CHL1  H18C 7246   2.712   3.193   9.412 -3.2740  0.4547 -0.8347
   65CHL1   C12 7247   2.770   2.922   9.643  0.6451  0.4949 -0.0146
   65CHL1  H12A 7248   2.699   2.846   9.605  0.3586  0.2521  1.0002
   65CHL1  H12B 7249   2.859   2.859   9.664 -1.1278 -1.7379  0.8476
   65CHL1   C11 7250   2.718   2.968   9.782 -0.1311  0.3005  0.4000
   65CHL1  H11A 7251   2.616   3.010   9.770  0.0125  0.8781  1.2074
   65CHL1  H11B 7252   2.702   2.878   9.847  2.0054  0.1712  0.7793
   65CHL1    C9 7253   2.810   3.072   9.851  0.2765  0.5656  0.7599
   65CHL1    H9 7254   2.908   3.021   9.863  0.1730 -0.4661 -2.3040
   65CHL1   C10 7255   2.766   3.126   9.994  0.8937 -0.0718  0.4729
   65CHL1   C19 7256   2.625   3.183   9.979 -0.8824 -0.6139  0.2774
   65CHL1  H19A 7257   2.584   3.229  10.072 -0.4149  0.2988  0.0394
   65CHL1  H19B 7258   2.627   3.272   9.912  1.0024 -1.3850 -0.7438
   65CHL1  H19C 7259   2.557   3.107   9.937  0.3310 -1.7100  0.2587
   65CHL1    C1 7260   2.756   3.004  10.091 -0.8182 -0.0159  0.4122
   65CHL1   H1A 7261   2.673   2.937  10.062 -0.8391  1.7939 -4.2541
   65CHL1   H1B 7262   2.839   2.934  10.067 -0.1907  1.0969 -0.7886
   65CHL1    C2 7263   2.751   3.047  10.241 -0.1146 -0.9213 -0.4148
   65CHL1   H2A 7264   2.774   2.957  10.302  0.9739 -0.5141 -0.2065
   65CHL1   H2B 7265   2.650   3.087  10.265 -0.2787 -0.4894 -1.7936
   65CHL1   C20 7266   2.865   2.914   9.311  0.3912  0.3805  0.2708
   65CHL1   H20 7267   2.774   2.963   9.270  1.2731  1.8485  0.0295
   65CHL1   C21 7268   2.824   2.769   9.362  0.3799  0.5024  0.3287
   65CHL1  H21A 7269   2.791   2.720   9.268  1.4492  0.7080 -0.1542
   65CHL1  H21B 7270   2.731   2.779   9.423 -1.2902 -4.2597 -1.2016
   65CHL1  H21C 7271   2.914   2.722   9.408  0.8787  0.8110 -0.3358
   65CHL1   C22 7272   2.961   2.902   9.189  0.2813  0.0546  0.0450
   65CHL1  H22A 7273   2.903   2.849   9.110 -2.1212  1.3512  0.8671
   65CHL1  H22B 7274   2.989   3.001   9.148 -0.3210  0.6333  1.0073
   65CHL1   C23 7275   3.087   2.822   9.223 -0.4946  0.5282 -0.4690
   65CHL1  H23A 7276   3.156   2.882   9.285  0.6006 -1.0306 -0.1392
   65CHL1  H23B 7277   3.071   2.722   9.269 -0.2938  1.6881  2.1818
   65CHL1   C24 7278   3.166   2.802   9.093  0.1653 -0.4510 -1.0468
   65CHL1  H24A 7279   3.107   2.746   9.017  0.0751  1.4809 -2.4305
   65CHL1  H24B 7280   3.191   2.901   9.050  2.3759 -1.4479 -2.1039
   65CHL1   C25 7281   3.304   2.737   9.103  0.2907 -0.0455 -0.2191
   65CHL1   H25 7282   3.356   2.790   9.186  2.5443  2.3653 -3.0636
   65CHL1   C26 7283   3.278   2.587   9.127 -0.4781 -0.3533 -0.0216
   65CHL1  H26A 7284   3.246   2.577   9.233 -2.0563 -0.2924 -0.4698
   65CHL1  H26B 7285   3.199   2.547   9.059  0.0737  0.5907 -1.2361
   65CHL1  H26C 7286   3.374   2.532   9.126  1.7651  3.3788 -0.1800
   65CHL1   C27 7287   3.383   2.772   8.981 -0.7039 -0.0434 -0.1237
   65CHL1  H27A 7288   3.360   2.704   8.896  0.1160 -1.3142  0.6593
   65CHL1  H27B 7289   3.360   2.873   8.941  0.2684  0.3450  0.2728
   65CHL1  H27C 7290   3.493   2.763   8.996 -0.6566  1.8630  0.8225
   66CHL1    C3 7291   1.419   1.147  10.509 -0.4280  0.5403 -0.0404
   66CHL1    H3 7292   1.514   1.200  10.484  0.3368  0.5526  2.6899
   66CHL1    O3 7293   1.410   1.097  10.644  0.1702  0.7927  0.2146
   66CHL1   H3' 7294   1.499   1.087  10.679  0.6494  2.2455 -0.5490
   66CHL1    C4 7295   1.295   1.238  10.487 -0.1649 -0.1626  1.5863
   66CHL1   H4A 7296   1.204   1.180  10.512  0.1271 -1.7705 -0.9447
   66CHL1   H4B 7297   1.306   1.311  10.570  2.9523  0.1380  0.9938
   66CHL1    C5 7298   1.288   1.292  10.343  0.1462  0.0638 -0.2956
   66CHL1    C6 7299   1.293   1.427  10.323 -0.8148  0.3915 -0.6280
   66CHL1    H6 7300   1.289   1.503  10.402 -0.6968 -0.7080  0.4476
   66CHL1    C7 7301   1.300   1.476  10.184  0.0891 -0.4524 -0.1895
   66CHL1   H7A 7302   1.235   1.565  10.170 -0.4159 -0.8583 -0.4095
   66CHL1   H7B 7303   1.407   1.505  10.175  0.0213 -0.8417 -2.6852
   66CHL1    C8 7304   1.260   1.384  10.069 -0.4786  0.7230 -0.0871
   66CHL1    H8 7305   1.149   1.378  10.073 -0.5055  1.6451  0.6164
   66CHL1   C14 7306   1.311   1.446   9.937  0.3685 -0.1153 -0.4754
   66CHL1   H14 7307   1.422   1.438   9.936  0.4436  0.8670 -1.5495
   66CHL1   C15 7308   1.274   1.590   9.891 -0.8300  0.5161 -0.6823
   66CHL1  H15A 7309   1.163   1.591   9.891 -0.8380  1.6082 -2.5004
   66CHL1  H15B 7310   1.303   1.677   9.953  0.0583 -0.9360  0.9870
   66CHL1   C16 7311   1.321   1.597   9.746 -0.5277 -0.2320 -0.3529
   66CHL1  H16A 7312   1.245   1.650   9.685  0.8808  0.6395 -1.4101
   66CHL1  H16B 7313   1.424   1.638   9.734 -0.9529  0.8875 -0.2025
   66CHL1   C17 7314   1.335   1.443   9.700  0.7301  0.1125 -0.5080
   66CHL1   H17 7315   1.443   1.419   9.700  1.1448  1.8311  1.7714
   66CHL1   C13 7316   1.281   1.355   9.816  0.5891  0.1013 -0.1293
   66CHL1   C18 7317   1.128   1.360   9.797 -1.1032 -0.0384 -0.0960
   66CHL1  H18A 7318   1.083   1.460   9.778  0.9805  1.1491  1.0523
   66CHL1  H18B 7319   1.097   1.298   9.710 -1.7004  1.2405 -0.8047
   66CHL1  H18C 7320   1.086   1.311   9.887 -0.4960  0.9656  0.7485
   66CHL1   C12 7321   1.331   1.211   9.836 -0.1771  0.2353 -0.2763
   66CHL1  H12A 7322   1.310   1.130   9.763  1.2116 -0.2840 -0.1125
   66CHL1  H12B 7323   1.442   1.208   9.836 -0.1697 -0.6234  1.6395
   66CHL1   C11 7324   1.280   1.151   9.973 -0.6448 -0.1379  0.3173
   66CHL1  H11A 7325   1.171   1.128   9.971 -0.6447 -0.2340  1.2780
   66CHL1  H11B 7326   1.330   1.054   9.993 -0.6932  0.0273  1.2583
   66CHL1    C9 7327   1.318   1.244  10.087  0.2342 -0.1375 -0.6830
   66CHL1    H9 7328   1.428   1.259  10.078  0.2460 -0.3381 -0.8977
   66CHL1   C10 7329   1.290   1.186  10.230  0.6522 -0.9815 -0.2561
   66CHL1   C19 7330   1.154   1.122  10.236 -0.0126 -0.4809 -0.2657
   66CHL1  H19A 7331   1.143   1.046  10.155 -2.3809 -0.4256 -0.0213
   66CHL1  H19B 7332   1.138   1.071  10.333  1.1163  2.0337  1.2772
   66CHL1  H19C 7333   1.075   1.198  10.217 -0.9366 -2.0998 -3.3228
   66CHL1    C1 7334   1.400   1.082  10.266 -0.4105  0.1784 -0.5338
   66CHL1   H1A 7335   1.369   0.995  10.205  1.2903 -0.8584  0.0271
   66CHL1   H1B 7336   1.497   1.132  10.243 -1.1240  1.1343 -1.5417
   66CHL1    C2 7337   1.399   1.034  10.415 -0.4125 -0.0359 -0.3932
   66CHL1   H2A 7338   1.484   0.965  10.430 -0.4598  0.2456  1.1927
   66CHL1   H2B 7339   1.300   0.985  10.429 -0.2101 -0.3489 -0.0537
   66CHL1   C20 7340   1.280   1.418   9.556  0.5369  0.2551 -0.1266
   66CHL1   H20 7341   1.171   1.439   9.557  0.8281  1.7526  1.2247
   66CHL1   C21 7342   1.306   1.272   9.506  0.0075  0.0498 -1.1103
   66CHL1  H21A 7343   1.241   1.212   9.575 -0.3280  2.9357  1.1726
   66CHL1  H21B 7344   1.410   1.235   9.519 -0.4366 -0.3221  1.8164
   66CHL1  H21C 7345   1.273   1.254   9.402  0.8719  0.5496 -1.4756
   66CHL1   C22 7346   1.362   1.506   9.455  0.6022 -0.3666  0.1413
   66CHL1  H22A 7347   1.366   1.609   9.496 -2.9125 -0.7659  1.6366
   66CHL1  H22B 7348   1.464   1.463   9.444  0.0887 -1.4322 -0.5395
   66CHL1   C23 7349   1.294   1.515   9.309  0.1703  0.2206  0.2474
   66CHL1  H23A 7350   1.283   1.415   9.264 -1.4315 -0.2282  1.5852
   66CHL1  H23B 7351   1.196   1.567   9.315  1.4978  3.1624 -2.1914
   66CHL1   C24 7352   1.379   1.615   9.224 -0.8705  0.2031  0.0406
   66CHL1  H24A 7353   1.384   1.710   9.280 -1.0811  0.0719  0.2818
   66CHL1  H24B 7354   1.481   1.571   9.216 -0.0630  1.8328  1.1055
   66CHL1   C25 7355   1.315   1.662   9.093  0.0295  0.3994  0.0898
   66CHL1   H25 7356   1.208   1.673   9.117 -0.1725 -3.7778  1.5452
   66CHL1   C26 7357   1.381   1.795   9.051 -0.2243 -0.9031 -0.0319
   66CHL1  H26A 7358   1.316   1.836   8.971 -0.8415  1.3837  1.5670
   66CHL1  H26B 7359   1.373   1.870   9.133 -1.3494  1.6558 -2.3835
   66CHL1  H26C 7360   1.484   1.775   9.016 -1.0899 -1.1919 -2.5031
   66CHL1   C27 7361   1.323   1.549   8.980  0.1160 -0.3648 -0.8231
   66CHL1  H27A 7362   1.278   1.587   8.886 -0.7967  0.4432 -0.0607
   66CHL1  H27B 7363   1.430   1.529   8.956  0.0309 -0.1865 -1.3578
   66CHL1  H27C 7364   1.269   1.454   8.999 -0.0313 -0.3920 -1.3900
   67CHL1    C3 7365   5.631   2.035  10.400 -1.0664  0.5549  0.5118
   67CHL1    H3 7366   5.713   2.107  10.420 -1.0226  0.4915  0.5606
   67CHL1    O3 7367   5.583   1.993  10.527 -0.7193 -0.1512 -0.0024
   67CHL1   H3' 7368   5.581   2.079  10.569  0.5909 -0.3720  0.5430
   67CHL1    C4 7369   5.508   2.096  10.343  0.4059  0.1665 -0.1173
   67CHL1   H4A 7370   5.415   2.038  10.362  0.7485 -1.0011 -1.9025
   67CHL1   H4B 7371   5.480   2.189  10.396 -3.2697 -1.0208  0.1787
   67CHL1    C5 7372   5.522   2.135  10.200  0.3138  0.1903  0.1837
   67CHL1    C6 7373   5.507   2.259  10.154 -0.0020 -0.4066 -0.1778
   67CHL1    H6 7374   5.495   2.339  10.228 -0.5689 -1.8506  1.3322
   67CHL1    C7 7375   5.492   2.288  10.007  0.2614  0.1133 -0.1052
   67CHL1   H7A 7376   5.410   2.362   9.994 -0.3433 -0.1799  1.8668
   67CHL1   H7B 7377   5.584   2.336   9.969 -1.3199  0.9077 -3.1171
   67CHL1    C8 7378   5.467   2.160   9.922 -0.4556 -0.5611  0.2757
   67CHL1    H8 7379   5.363   2.129   9.944 -0.6062 -0.4294 -0.2564
   67CHL1   C14 7380   5.478   2.188   9.767  0.7276 -0.3847  0.1895
   67CHL1   H14 7381   5.582   2.220   9.742 -0.0364 -0.0143 -2.6147
   67CHL1   C15 7382   5.401   2.302   9.707 -0.1963  0.1337  1.0265
   67CHL1  H15A 7383   5.294   2.307   9.735 -0.5012  0.4283 -0.1585
   67CHL1  H15B 7384   5.443   2.404   9.722 -0.2624  0.4206 -0.6611
   67CHL1   C16 7385   5.394   2.272   9.552  0.8121  1.1488 -0.6691
   67CHL1  H16A 7386   5.291   2.262   9.511  1.9638 -1.9646 -2.9468
   67CHL1  H16B 7387   5.452   2.344   9.492 -0.1519  2.1093 -0.4617
   67CHL1   C17 7388   5.462   2.136   9.534 -0.4953 -0.0610 -0.4749
   67CHL1   H17 7389   5.573   2.140   9.526 -0.4049 -1.0925  0.1422
   67CHL1   C13 7390   5.446   2.068   9.676 -0.1751  0.2338  0.0224
   67CHL1   C18 7391   5.294   2.017   9.697  0.1552 -0.5980  0.0448
   67CHL1  H18A 7392   5.279   1.981   9.801 -2.1967  1.5591  0.5075
   67CHL1  H18B 7393   5.226   2.105   9.692 -0.6903 -1.2388  0.1113
   67CHL1  H18C 7394   5.270   1.942   9.619  2.5655  0.9735 -2.3222
   67CHL1   C12 7395   5.548   1.959   9.713  0.3881 -0.2614 -0.3991
   67CHL1  H12A 7396   5.543   1.864   9.654  0.8817 -0.6789  0.2189
   67CHL1  H12B 7397   5.651   1.992   9.686 -0.3967  2.3995 -0.2511
   67CHL1   C11 7398   5.532   1.933   9.864 -0.3751  0.1933  0.2146
   67CHL1  H11A 7399   5.438   1.879   9.888  0.5772 -1.1141  1.0430
   67CHL1  H11B 7400   5.601   1.854   9.901  1.9226  1.2435 -1.6921
   67CHL1    C9 7401   5.554   2.049   9.968 -0.0372  0.5264 -0.0486
   67CHL1    H9 7402   5.658   2.082   9.948  0.1930 -0.5948 -0.7741
   67CHL1   C10 7403   5.546   2.009  10.118 -0.0395 -0.3468 -0.9229
   67CHL1   C19 7404   5.430   1.907  10.139 -0.2014  0.4331  0.8367
   67CHL1  H19A 7405   5.443   1.813  10.083  2.0622 -1.0413  3.6881
   67CHL1  H19B 7406   5.414   1.886  10.247  1.1795  3.6570  1.7436
   67CHL1  H19C 7407   5.339   1.958  10.101 -0.2528  0.4280  0.9503
   67CHL1    C1 7408   5.691   1.960  10.169 -0.2494  0.4183  0.1533
   67CHL1   H1A 7409   5.730   1.877  10.106 -1.1548  0.9004 -1.0614
   67CHL1   H1B 7410   5.770   2.035  10.145 -0.3647 -0.1945 -2.2035
   67CHL1    C2 7411   5.693   1.916  10.316 -0.2941  0.2561 -0.1298
   67CHL1   H2A 7412   5.795   1.884  10.346 -1.2387 -1.0949  1.7348
   67CHL1   H2B 7413   5.626   1.828  10.328 -1.4250  1.1279  0.1460
   67CHL1   C20 7414   5.401   2.059   9.414  0.4644  1.2058  0.2437
   67CHL1   H20 7415   5.290   2.055   9.415  0.4596  1.3753  0.4453
   67CHL1   C21 7416   5.446   1.915   9.408  0.6014  0.2727 -0.1057
   67CHL1  H21A 7417   5.399   1.856   9.490 -1.0480  0.3923 -0.9424
   67CHL1  H21B 7418   5.557   1.914   9.421  0.6261 -1.6029 -0.3342
   67CHL1  H21C 7419   5.422   1.857   9.316  1.8765  1.6299 -1.3237
   67CHL1   C22 7420   5.425   2.138   9.286 -0.0928 -0.3687  0.4752
   67CHL1  H22A 7421   5.403   2.246   9.300  1.2123 -0.2221  1.4166
   67CHL1  H22B 7422   5.531   2.146   9.255 -1.3958  1.8720 -3.8388
   67CHL1   C23 7423   5.345   2.081   9.168  0.1968  0.0808 -0.3623
   67CHL1  H23A 7424   5.376   1.976   9.148  2.7100  0.6547  0.4262
   67CHL1  H23B 7425   5.238   2.069   9.194  0.3326 -3.7822 -1.2455
   67CHL1   C24 7426   5.365   2.160   9.036  0.1639 -0.4707 -1.0468
   67CHL1  H24A 7427   5.318   2.261   9.032 -2.4471 -1.6041  0.2133
   67CHL1  H24B 7428   5.473   2.176   9.018 -0.1158  2.5581 -0.3752
   67CHL1   C25 7429   5.304   2.083   8.913 -0.4095  0.9015  0.6150
   67CHL1   H25 7430   5.359   1.987   8.907 -0.2034  1.0653 -0.2424
   67CHL1   C26 7431   5.149   2.058   8.921  0.2562  0.2772  0.7893
   67CHL1  H26A 7432   5.109   1.999   9.006  2.6613  0.7898  2.2998
   67CHL1  H26B 7433   5.109   2.161   8.909  0.0380  0.0821 -0.2033
   67CHL1  H26C 7434   5.124   2.000   8.829  0.4450 -0.5897  1.2820
   67CHL1   C27 7435   5.326   2.159   8.784  0.0529 -0.5514  0.3960
   67CHL1  H27A 7436   5.288   2.264   8.783  0.3462 -0.4433  0.6197
   67CHL1  H27B 7437   5.435   2.178   8.775 -0.3755  2.4484  0.7688
   67CHL1  H27C 7438   5.285   2.096   8.703 -1.1623 -1.1673  1.4774
   68CHL1    C3 7439   3.309   2.867  10.437 -0.5331 -0.7668  0.4055
   68CHL1    H3 7440   3.381   2.843  10.519 -1.1426 -0.4929  1.0286
   68CHL1    O3 7441   3.183   2.875  10.497 -0.0121  0.1052  0.5545
   68CHL1   H3' 7442   3.206   2.909  10.584  0.0281 -0.6975  0.8637
   68CHL1    C4 7443   3.351   3.000  10.376 -0.5284 -0.8367  0.4239
   68CHL1   H4A 7444   3.261   3.035  10.322 -0.0314 -0.8950 -0.4576
   68CHL1   H4B 7445   3.367   3.077  10.454 -0.5115 -1.5435  1.1315
   68CHL1    C5 7446   3.471   2.991  10.288  0.2017 -0.0793 -0.1266
   68CHL1    C6 7447   3.579   3.070  10.303  0.0287 -0.2514  0.2115
   68CHL1    H6 7448   3.585   3.143  10.385  0.6428  0.9997 -0.9456
   68CHL1    C7 7449   3.682   3.071  10.192 -0.3881 -0.4229  0.2125
   68CHL1   H7A 7450   3.696   3.178  10.163 -1.9218 -0.6791 -1.5828
   68CHL1   H7B 7451   3.776   3.027  10.231  0.3801  1.4506  0.5291
   68CHL1    C8 7452   3.655   2.991  10.059 -0.0871  0.8144 -0.6401
   68CHL1    H8 7453   3.583   3.057  10.007 -2.1549 -0.7640  0.1523
   68CHL1   C14 7454   3.778   2.977   9.980  0.2572 -0.6446  0.3654
   68CHL1   H14 7455   3.854   2.921  10.039 -1.1835 -2.1746  0.8107
   68CHL1   C15 7456   3.853   3.110   9.938  0.5983  0.4349 -0.3824
   68CHL1  H15A 7457   3.775   3.182   9.905 -0.2888 -0.6255 -0.6318
   68CHL1  H15B 7458   3.908   3.143  10.028  3.4926 -1.5299 -1.3367
   68CHL1   C16 7459   3.929   3.074   9.812  0.1014 -0.4371  0.1144
   68CHL1  H16A 7460   3.904   3.140   9.727  2.3864  1.2274  0.6979
   68CHL1  H16B 7461   4.039   3.066   9.822 -0.0791 -1.6705  1.4337
   68CHL1   C17 7462   3.894   2.923   9.783 -0.3279 -0.1445  0.6611
   68CHL1   H17 7463   3.950   2.857   9.852  1.1860  0.0107 -0.4035
   68CHL1   C13 7464   3.752   2.903   9.847 -0.3861  0.4071  0.4552
   68CHL1   C18 7465   3.645   2.972   9.763  0.5252 -0.1715 -0.3363
   68CHL1  H18A 7466   3.666   3.080   9.749 -0.4246  0.0432 -0.1001
   68CHL1  H18B 7467   3.638   2.913   9.669 -2.0881 -1.6862  0.7556
   68CHL1  H18C 7468   3.545   2.960   9.809 -0.8710  1.1324 -2.9436
   68CHL1   C12 7469   3.709   2.760   9.885  0.3933  0.3775 -0.4975
   68CHL1  H12A 7470   3.696   2.689   9.801 -0.2672 -1.3107  0.9869
   68CHL1  H12B 7471   3.785   2.703   9.943 -0.8186 -0.4430  0.3100
   68CHL1   C11 7472   3.580   2.762   9.974 -0.5974  0.4602 -0.3138
   68CHL1  H11A 7473   3.498   2.783   9.901 -1.2322  0.1176  0.3029
   68CHL1  H11B 7474   3.560   2.661  10.014  0.3235  1.0506  1.6842
   68CHL1    C9 7475   3.587   2.861  10.099 -0.1146 -0.3399 -0.0170
   68CHL1    H9 7476   3.660   2.815  10.169  0.4900 -0.0959 -0.4788
   68CHL1   C10 7477   3.457   2.886  10.176 -0.0891 -0.6535  0.2222
   68CHL1   C19 7478   3.342   2.917  10.079 -0.0143  0.5940 -0.5971
   68CHL1  H19A 7479   3.356   3.008  10.016  0.7889  0.4898 -0.5681
   68CHL1  H19B 7480   3.326   2.826  10.017  1.8383  0.8861 -1.5359
   68CHL1  H19C 7481   3.249   2.924  10.140 -1.1203 -3.0716 -1.7194
   68CHL1    C1 7482   3.413   2.749  10.238  0.0072 -0.2943 -0.2818
   68CHL1   H1A 7483   3.382   2.671  10.166 -0.9525  0.4959 -0.7319
   68CHL1   H1B 7484   3.495   2.697  10.292  0.4051 -0.1743 -0.7649
   68CHL1    C2 7485   3.297   2.748  10.341  0.0706 -0.2645  0.3506
   68CHL1   H2A 7486   3.284   2.650  10.393  0.2438 -0.7097 -0.4426
   68CHL1   H2B 7487   3.204   2.767  10.283  0.0171  1.5659  1.0204
   68CHL1   C20 7488   3.915   2.866   9.644  0.0456 -0.6260 -0.0073
   68CHL1   H20 7489   3.852   2.775   9.632 -0.5622 -0.0648 -1.2148
   68CHL1   C21 7490   4.057   2.814   9.651 -0.6844  0.7533 -0.6801
   68CHL1  H21A 7491   4.075   2.752   9.561 -0.9203 -0.8688  0.3514
   68CHL1  H21B 7492   4.077   2.754   9.743 -3.0146  1.6233  0.4325
   68CHL1  H21C 7493   4.120   2.905   9.651 -0.8434  0.8700  0.0439
   68CHL1   C22 7494   3.882   2.969   9.534  0.3801  0.1671  0.3041
   68CHL1  H22A 7495   3.775   3.001   9.537  0.1621 -0.5434  0.2621
   68CHL1  H22B 7496   3.935   3.067   9.542 -1.2489  1.0911  0.0924
   68CHL1   C23 7497   3.907   2.919   9.387 -0.3818  0.0851 -0.2084
   68CHL1  H23A 7498   3.861   2.991   9.316 -2.1886 -1.8280 -1.0748
   68CHL1  H23B 7499   4.017   2.914   9.374 -0.4395 -0.1994 -0.5969
   68CHL1   C24 7500   3.843   2.781   9.354  0.6912  0.8622 -0.2054
   68CHL1  H24A 7501   3.883   2.698   9.415 -0.8025  0.0584 -0.3151
   68CHL1  H24B 7502   3.737   2.778   9.385  1.3880 -3.8695  2.1039
   68CHL1   C25 7503   3.850   2.743   9.205  0.2166 -0.2367 -0.8378
   68CHL1   H25 7504   3.775   2.812   9.161 -0.1818 -0.8395 -1.1212
   68CHL1   C26 7505   3.986   2.759   9.152 -0.0636 -0.5564  1.0043
   68CHL1  H26A 7506   4.050   2.688   9.209  0.8071  0.6271  1.5273
   68CHL1  H26B 7507   3.990   2.752   9.041  0.3804 -0.6254  1.0205
   68CHL1  H26C 7508   4.037   2.854   9.179 -0.9803  0.1442  0.3121
   68CHL1   C27 7509   3.814   2.599   9.182  0.8351  0.0270 -0.4167
   68CHL1  H27A 7510   3.716   2.571   9.226  0.0842  3.1796  0.0597
   68CHL1  H27B 7511   3.807   2.574   9.074  2.2864 -2.1843 -0.0358
   68CHL1  H27C 7512   3.890   2.529   9.223  1.0085 -0.0800 -0.9090
   69CHL1    C3 7513   2.430   0.229   6.934 -0.3896  0.2414  0.6250
   69CHL1    H3 7514   2.381   0.322   6.969  0.6620  1.2190 -0.4786
   69CHL1    O3 7515   2.476   0.241   6.799  0.0572 -0.3661 -0.0621
   69CHL1   H3' 7516   2.417   0.183   6.752  1.7320 -0.7010 -1.8034
   69CHL1    C4 7517   2.548   0.186   7.018  0.7289 -1.1707  0.4013
   69CHL1   H4A 7518   2.577   0.089   6.971  1.2553  0.0607 -1.9215
   69CHL1   H4B 7519   2.630   0.259   7.002 -1.2169  0.7095 -1.2322
   69CHL1    C5 7520   2.516   0.167   7.165  0.1091 -0.6199  0.2204
   69CHL1    C6 7521   2.567   0.238   7.266  0.4669 -0.0769  0.1378
   69CHL1    H6 7522   2.639   0.318   7.247 -0.4777  1.0741  1.2779
   69CHL1    C7 7523   2.532   0.225   7.415  0.2018  0.2604 -0.4246
   69CHL1   H7A 7524   2.611   0.242   7.491  0.5359  0.1215 -0.7378
   69CHL1   H7B 7525   2.470   0.315   7.438 -1.1037 -0.6450 -0.3345
   69CHL1    C8 7526   2.459   0.090   7.447 -0.1151  0.1703  0.8159
   69CHL1    H8 7527   2.537   0.011   7.445 -0.5700 -0.2630 -0.6660
   69CHL1   C14 7528   2.388   0.094   7.576 -0.3587 -0.1573 -0.1602
   69CHL1   H14 7529   2.311   0.174   7.565  0.5764  0.7745  0.0422
   69CHL1   C15 7530   2.464   0.151   7.697 -0.4071 -0.3138 -0.7539
   69CHL1  H15A 7531   2.570   0.117   7.702  0.4239  2.0460 -1.1551
   69CHL1  H15B 7532   2.467   0.262   7.702  1.5314 -0.4554  3.0105
   69CHL1   C16 7533   2.393   0.099   7.817 -0.2639  0.2942 -0.0338
   69CHL1  H16A 7534   2.463   0.034   7.874 -0.2720  1.1997  1.0254
   69CHL1  H16B 7535   2.360   0.181   7.884  3.8353  3.5424 -1.7688
   69CHL1   C17 7536   2.273   0.007   7.760 -0.3630 -0.2381  0.6683
   69CHL1   H17 7537   2.190   0.080   7.749 -0.4077 -0.5912 -1.4523
   69CHL1   C13 7538   2.316  -0.031   7.618  0.0486  0.5050 -0.3777
   69CHL1   C18 7539   2.424  -0.141   7.640 -0.3620 -0.5732 -0.1021
   69CHL1  H18A 7540   2.488  -0.157   7.550  1.2758  1.3512  0.6908
   69CHL1  H18B 7541   2.496  -0.111   7.718 -0.6062  0.8671 -0.4125
   69CHL1  H18C 7542   2.374  -0.237   7.665  1.4465 -1.0155  1.9034
   69CHL1   C12 7543   2.203  -0.065   7.518  0.0645  0.0895  0.3119
   69CHL1  H12A 7544   2.161  -0.166   7.536 -0.1166 -0.1220 -1.1729
   69CHL1  H12B 7545   2.130   0.018   7.529 -1.6400 -1.0308 -2.1386
   69CHL1   C11 7546   2.258  -0.055   7.372 -0.3459 -0.0103  0.1440
   69CHL1  H11A 7547   2.330  -0.139   7.375 -1.9835 -1.4232  0.5336
   69CHL1  H11B 7548   2.182  -0.073   7.293  2.0584 -0.1999 -2.1915
   69CHL1    C9 7549   2.349   0.070   7.339  0.0212  0.0859 -0.5043
   69CHL1    H9 7550   2.280   0.156   7.356 -0.6487 -0.5028 -0.2237
   69CHL1   C10 7551   2.397   0.060   7.186  0.0391 -0.6114 -0.6937
   69CHL1   C19 7552   2.442  -0.083   7.154  0.2622 -0.3599  0.1548
   69CHL1  H19A 7553   2.362  -0.160   7.162 -2.2718  2.1939  0.3491
   69CHL1  H19B 7554   2.481  -0.092   7.051  0.4940 -1.3189  0.3247
   69CHL1  H19C 7555   2.528  -0.117   7.216 -0.6784 -2.6725  0.2324
   69CHL1    C1 7556   2.287   0.092   7.086 -0.2940 -0.0311 -0.4061
   69CHL1   H1A 7557   2.210   0.012   7.087  0.3467 -0.7095 -2.5820
   69CHL1   H1B 7558   2.239   0.186   7.121 -0.0821  0.1838 -0.6837
   69CHL1    C2 7559   2.319   0.125   6.945 -0.4207  0.0015  0.0672
   69CHL1   H2A 7560   2.229   0.166   6.895 -2.1162 -1.2805  1.9740
   69CHL1   H2B 7561   2.349   0.031   6.895  1.9549 -0.0563  1.5358
   69CHL1   C20 7562   2.219  -0.096   7.859  0.6365 -0.1114 -0.4839
   69CHL1   H20 7563   2.306  -0.143   7.909 -0.2381  2.1689  3.3564
   69CHL1   C21 7564   2.122  -0.202   7.804  0.1806 -0.6015  0.1611
   69CHL1  H21A 7565   2.165  -0.280   7.738  0.4031  1.0838 -1.6948
   69CHL1  H21B 7566   2.038  -0.143   7.763  1.8097  0.7325 -1.2865
   69CHL1  H21C 7567   2.084  -0.250   7.897 -0.1401  1.3104  1.0478
   69CHL1   C22 7568   2.158  -0.019   7.972 -0.0329  0.3231 -0.2853
   69CHL1  H22A 7569   2.226   0.065   7.999 -0.1751  0.3331  0.0454
   69CHL1  H22B 7570   2.060   0.025   7.945  0.1736  0.8396 -0.1993
   69CHL1   C23 7571   2.135  -0.092   8.104 -0.1590  0.3106 -0.2014
   69CHL1  H23A 7572   2.074  -0.183   8.087 -0.7944  0.7253 -0.1405
   69CHL1  H23B 7573   2.233  -0.127   8.144 -0.1993  0.6740  0.2198
   69CHL1   C24 7574   2.073  -0.010   8.214  0.4085  0.0505  0.0981
   69CHL1  H24A 7575   2.133   0.083   8.217 -3.0208  2.3442  1.7316
   69CHL1  H24B 7576   1.970   0.023   8.188  0.0948 -2.9484 -2.7173
   69CHL1   C25 7577   2.079  -0.070   8.354  0.3655 -0.5707 -0.3015
   69CHL1   H25 7578   2.178  -0.120   8.360  0.4687 -0.4830 -1.2509
   69CHL1   C26 7579   2.069   0.042   8.458 -0.7197  0.3129 -0.9038
   69CHL1  H26A 7580   1.985   0.110   8.435 -2.0611 -1.4309 -1.2701
   69CHL1  H26B 7581   2.069   0.005   8.562  1.3279 -0.2108 -1.0497
   69CHL1  H26C 7582   2.152   0.115   8.448  2.2646 -2.8361 -0.3439
   69CHL1   C27 7583   1.975  -0.183   8.380 -0.7114  0.2579 -0.2379
   69CHL1  H27A 7584   1.998  -0.261   8.304 -3.2912  0.6798 -1.4968
   69CHL1  H27B 7585   1.982  -0.228   8.482  1.5057  2.3477  0.5894
   69CHL1  H27C 7586   1.869  -0.151   8.371 -0.9809 -0.5147  0.1364
   70CHL1    C3 7587   2.179   3.831   7.028 -0.3728 -0.6029  0.4120
   70CHL1    H3 7588   2.227   3.732   7.020  3.5616  1.0948  1.5457
   70CHL1    O3 7589   2.167   3.873   6.893  0.0576 -0.4370  0.6086
   70CHL1   H3' 7590   2.144   3.966   6.900 -1.1308 -0.6387 -0.3978
   70CHL1    C4 7591   2.040   3.824   7.102 -0.0449  0.0289  0.0696
   70CHL1   H4A 7592   2.000   3.926   7.083 -0.3742  0.2068  1.6976
   70CHL1   H4B 7593   1.972   3.751   7.052  1.6689 -0.2929 -1.8806
   70CHL1    C5 7594   2.051   3.798   7.254  0.1722 -0.9992 -0.1279
   70CHL1    C6 7595   1.981   3.702   7.314  0.3924 -0.7634 -0.5663
   70CHL1    H6 7596   1.911   3.639   7.257 -2.5510  0.0871  1.9732
   70CHL1    C7 7597   1.992   3.686   7.460 -0.4051  0.0654 -0.0811
   70CHL1   H7A 7598   1.893   3.650   7.497 -0.4720 -1.4946 -1.7018
   70CHL1   H7B 7599   2.063   3.602   7.471 -0.3056  0.2604  0.8127
   70CHL1    C8 7600   2.052   3.799   7.545 -0.6596  0.5146 -0.5754
   70CHL1    H8 7601   1.981   3.883   7.533 -0.1053  1.0142 -0.3824
   70CHL1   C14 7602   2.084   3.750   7.687  0.0940  0.3048  0.0565
   70CHL1   H14 7603   2.159   3.670   7.669 -0.9091 -0.9015  1.2162
   70CHL1   C15 7604   1.959   3.696   7.763 -0.5024 -0.2407  0.4008
   70CHL1  H15A 7605   1.870   3.761   7.752  0.4627  1.0357  0.0533
   70CHL1  H15B 7606   1.933   3.591   7.737  0.4845 -0.7184  1.2651
   70CHL1   C16 7607   2.011   3.706   7.905  0.4064 -0.2765  0.5723
   70CHL1  H16A 7608   1.938   3.761   7.969  1.9282  0.8589  1.3664
   70CHL1  H16B 7609   2.026   3.610   7.960  1.9806  1.4358  3.2464
   70CHL1   C17 7610   2.155   3.769   7.913 -0.2168 -0.3588 -0.2516
   70CHL1   H17 7611   2.225   3.683   7.906 -0.5997 -1.0157  3.1199
   70CHL1   C13 7612   2.151   3.850   7.777  0.7480  0.6821 -0.1468
   70CHL1   C18 7613   2.059   3.973   7.791  0.4615  0.1091  0.0421
   70CHL1  H18A 7614   2.041   4.022   7.693 -0.6789  0.2879  0.3297
   70CHL1  H18B 7615   1.963   3.955   7.844  1.2557 -0.2870  1.3745
   70CHL1  H18C 7616   2.105   4.057   7.847  2.2482 -0.5140 -0.4525
   70CHL1   C12 7617   2.284   3.894   7.706  0.2211 -0.0919 -0.0289
   70CHL1  H12A 7618   2.333   3.974   7.766  1.8673 -2.1062  1.4071
   70CHL1  H12B 7619   2.354   3.809   7.726 -0.6759 -0.2838  2.5468
   70CHL1   C11 7620   2.266   3.936   7.559 -0.8372  1.0422 -0.4577
   70CHL1  H11A 7621   2.230   4.041   7.561 -3.1960  0.2562 -0.2708
   70CHL1  H11B 7622   2.367   3.946   7.514 -0.3584  2.3790  0.8791
   70CHL1    C9 7623   2.181   3.840   7.475  0.2074  0.6547 -0.4533
   70CHL1    H9 7624   2.239   3.746   7.461  1.0554  1.2737 -1.1586
   70CHL1   C10 7625   2.157   3.889   7.329  0.4643 -0.0444 -0.1127
   70CHL1   C19 7626   2.099   4.029   7.335  0.1184  0.6000  0.0360
   70CHL1  H19A 7627   2.005   4.045   7.393  0.1671  3.9258 -0.7070
   70CHL1  H19B 7628   2.169   4.102   7.380 -2.1120  0.9341  3.1257
   70CHL1  H19C 7629   2.062   4.049   7.232 -0.6018 -1.7253 -0.1861
   70CHL1    C1 7630   2.290   3.874   7.251  0.2545  0.4659  0.0250
   70CHL1   H1A 7631   2.364   3.944   7.294  1.4220  0.1234 -1.4008
   70CHL1   H1B 7632   2.341   3.776   7.264 -0.3597  0.3766  1.8868
   70CHL1    C2 7633   2.283   3.917   7.098 -0.6593 -0.4490  0.2695
   70CHL1   H2A 7634   2.383   3.894   7.055  0.0153  0.9083  1.0865
   70CHL1   H2B 7635   2.264   4.026   7.086  3.0505  0.4935  2.1355
   70CHL1   C20 7636   2.176   3.848   8.036 -0.2561 -0.1853 -0.5143
   70CHL1   H20 7637   2.102   3.931   8.045  0.4425  0.4316 -0.3951
   70CHL1   C21 7638   2.320   3.908   8.038 -0.6319  0.3270 -0.2848
   70CHL1  H21A 7639   2.364   3.926   8.139 -0.0178 -0.7605 -0.3514
   70CHL1  H21B 7640   2.330   3.996   7.970  1.5464  1.0511  0.9126
   70CHL1  H21C 7641   2.384   3.833   7.987  0.0526  0.2886  0.6121
   70CHL1   C22 7642   2.156   3.759   8.162  0.4187 -0.2972 -0.0021
   70CHL1  H22A 7643   2.083   3.678   8.141 -0.6342  0.3413  1.1645
   70CHL1  H22B 7644   2.255   3.713   8.186 -1.1501 -3.8818 -0.1164
   70CHL1   C23 7645   2.095   3.832   8.286  0.1868 -0.0691 -0.6355
   70CHL1  H23A 7646   2.149   3.925   8.314  1.2232 -0.2897 -1.8605
   70CHL1  H23B 7647   1.993   3.866   8.257 -0.5813 -0.3511  1.6241
   70CHL1   C24 7648   2.077   3.726   8.399 -0.5099  0.3022  0.0342
   70CHL1  H24A 7649   2.001   3.768   8.469  1.8035  0.5491  2.4886
   70CHL1  H24B 7650   2.056   3.626   8.357 -1.3955  1.1917 -1.6852
   70CHL1   C25 7651   2.212   3.719   8.488  0.5383 -0.1945  0.0175
   70CHL1   H25 7652   2.296   3.704   8.417  0.8828 -0.4784  0.4837
   70CHL1   C26 7653   2.237   3.846   8.563  0.1161  0.4954  0.2569
   70CHL1  H26A 7654   2.259   3.935   8.500  0.8285  0.4577  0.4485
   70CHL1  H26B 7655   2.143   3.862   8.621 -0.1778 -1.3963  0.3226
   70CHL1  H26C 7656   2.329   3.828   8.623  1.5676 -0.9152 -2.3379
   70CHL1   C27 7657   2.210   3.595   8.580 -0.4637  0.0223 -0.2188
   70CHL1  H27A 7658   2.305   3.581   8.635 -0.6261 -1.2486 -0.2526
   70CHL1  H27B 7659   2.124   3.590   8.651 -1.0419  0.3260 -0.8889
   70CHL1  H27C 7660   2.205   3.504   8.518 -1.7017 -0.3692  0.4193
   71CHL1    C3 7661   0.729   6.486   6.797 -0.1647  0.4248  0.5701
   71CHL1    H3 7662   0.626   6.489   6.838 -0.5372  1.0344 -0.4016
   71CHL1    O3 7663   0.729   6.550   6.666 -0.4817 -0.3830  0.3696
   71CHL1   H3' 7664   0.820   6.561   6.638  0.1524 -1.3346  2.0397
   71CHL1    C4 7665   0.834   6.556   6.894  0.0097  0.1424 -0.3399
   71CHL1   H4A 7666   0.928   6.551   6.836 -0.3170  1.0763 -0.9614
   71CHL1   H4B 7667   0.802   6.661   6.909 -0.0766 -0.0524  0.9348
   71CHL1    C5 7668   0.859   6.496   7.029  0.2238 -0.2148  0.3568
   71CHL1    C6 7669   0.848   6.571   7.143 -0.7940 -0.0338 -0.0336
   71CHL1    H6 7670   0.824   6.678   7.137 -2.5425 -0.4535 -0.6562
   71CHL1    C7 7671   0.905   6.522   7.266 -0.4712  0.2727 -0.5099
   71CHL1   H7A 7672   0.991   6.584   7.299  0.5049 -0.3085 -1.9205
   71CHL1   H7B 7673   0.824   6.519   7.341 -0.3710  2.4781 -0.2939
   71CHL1    C8 7674   0.960   6.377   7.265  0.0875 -0.3818 -0.2616
   71CHL1    H8 7675   1.069   6.389   7.243  0.1813  0.3210  0.5753
   71CHL1   C14 7676   0.932   6.310   7.396  0.5756 -0.2932 -0.7655
   71CHL1   H14 7677   0.822   6.297   7.402  0.7460 -0.8814  1.5120
   71CHL1   C15 7678   0.972   6.384   7.522 -0.1381 -0.5540  0.6080
   71CHL1  H15A 7679   1.066   6.442   7.510 -1.7656  2.9325  3.7411
   71CHL1  H15B 7680   0.888   6.456   7.533 -0.4919 -1.0090  0.8674
   71CHL1   C16 7681   0.981   6.285   7.642  0.6148  0.2413 -0.4502
   71CHL1  H16A 7682   1.074   6.311   7.696  0.5431  0.7956 -0.5898
   71CHL1  H16B 7683   0.893   6.298   7.708  0.7205 -0.2738 -0.2121
   71CHL1   C17 7684   0.971   6.151   7.572 -0.4530  0.0477 -0.2004
   71CHL1   H17 7685   0.868   6.114   7.585 -0.9131  1.1622 -0.5934
   71CHL1   C13 7686   0.995   6.171   7.425  0.1377 -0.9297  0.4431
   71CHL1   C18 7687   1.146   6.193   7.403 -0.1890  0.3050 -0.4617
   71CHL1  H18A 7688   1.199   6.100   7.434  0.7899  1.9644  3.1329
   71CHL1  H18B 7689   1.185   6.233   7.307  0.1993  2.0293  0.3943
   71CHL1  H18C 7690   1.179   6.271   7.476  0.1141  0.9914 -1.3309
   71CHL1   C12 7691   0.933   6.071   7.322  0.2392  0.2951 -0.1154
   71CHL1  H12A 7692   0.996   5.980   7.336  3.2107  2.5453  1.7984
   71CHL1  H12B 7693   0.829   6.041   7.347  0.5844 -1.7308 -0.9646
   71CHL1   C11 7694   0.941   6.134   7.180 -0.8757  0.4894 -1.4159
   71CHL1  H11A 7695   1.046   6.147   7.146 -0.1318  1.2286  1.0220
   71CHL1  H11B 7696   0.888   6.077   7.101  0.2714 -0.9419 -1.1796
   71CHL1    C9 7697   0.899   6.281   7.166  1.1616 -0.2705  0.3805
   71CHL1    H9 7698   0.795   6.277   7.205  0.2356 -0.7760 -2.0483
   71CHL1   C10 7699   0.891   6.343   7.020 -0.3503 -0.1041 -0.3105
   71CHL1   C19 7700   1.039   6.336   6.969  0.5418 -0.0405  0.2828
   71CHL1  H19A 7701   1.094   6.396   7.045 -1.0745 -0.2917  1.6901
   71CHL1  H19B 7702   1.079   6.234   6.953  0.6452  0.2447 -1.3287
   71CHL1  H19C 7703   1.048   6.382   6.868 -0.9554  4.0744  1.8859
   71CHL1    C1 7704   0.790   6.269   6.924  0.0555 -0.6836  0.1128
   71CHL1   H1A 7705   0.828   6.167   6.906  1.6742  0.1045 -1.1334
   71CHL1   H1B 7706   0.688   6.252   6.967 -0.0457  0.1373  0.2093
   71CHL1    C2 7707   0.770   6.337   6.780 -0.4032 -0.4585 -0.9213
   71CHL1   H2A 7708   0.680   6.283   6.742 -1.2672  0.2312  0.0963
   71CHL1   H2B 7709   0.853   6.328   6.706 -0.5286 -0.3045 -1.0797
   71CHL1   C20 7710   1.045   6.050   7.654 -0.4716  0.0362 -0.8593
   71CHL1   H20 7711   1.155   6.065   7.656 -0.3404 -1.0037  0.7205
   71CHL1   C21 7712   1.032   5.906   7.583  0.0274 -0.2603  0.4684
   71CHL1  H21A 7713   1.074   5.832   7.653 -0.3626 -1.0129 -0.0847
   71CHL1  H21B 7714   1.094   5.911   7.491 -0.1270 -1.2676  0.3046
   71CHL1  H21C 7715   0.924   5.886   7.563  0.0620  0.2167 -0.2426
   71CHL1   C22 7716   1.013   6.031   7.803  0.7226  0.1189 -0.0128
   71CHL1  H22A 7717   0.917   6.078   7.832 -0.4337 -1.5710 -1.0094
   71CHL1  H22B 7718   1.000   5.925   7.832  0.4000  0.8320  2.5904
   71CHL1   C23 7719   1.124   6.077   7.901  0.1501 -0.5222 -0.6510
   71CHL1  H23A 7720   1.201   5.997   7.894  0.8266  0.2478 -2.2353
   71CHL1  H23B 7721   1.160   6.178   7.872 -3.2775  0.9015 -0.1719
   71CHL1   C24 7722   1.080   6.075   8.049 -0.2454  0.0817 -0.4930
   71CHL1  H24A 7723   1.036   5.976   8.075 -0.0225 -0.6686 -2.8251
   71CHL1  H24B 7724   1.173   6.077   8.109 -0.2134  0.1036 -0.5430
   71CHL1   C25 7725   0.989   6.185   8.082 -0.1798 -0.0852 -0.9477
   71CHL1   H25 7726   0.901   6.190   8.015 -0.1684 -0.1103 -0.9640
   71CHL1   C26 7727   0.946   6.164   8.225 -0.1584  0.9841 -0.2416
   71CHL1  H26A 7728   0.870   6.242   8.247 -0.0871  1.0975 -0.3947
   71CHL1  H26B 7729   0.899   6.065   8.241  0.5434  0.7329  0.3284
   71CHL1  H26C 7730   1.033   6.176   8.294  0.9753 -0.2159 -1.4340
   71CHL1   C27 7731   1.061   6.321   8.071 -0.8949 -0.1779 -0.0002
   71CHL1  H27A 7732   1.121   6.338   7.979 -0.8663 -1.7518 -0.2836
   71CHL1  H27B 7733   0.985   6.402   8.072 -1.5855 -0.7917 -1.1256
   71CHL1  H27C 7734   1.129   6.336   8.157 -1.8166 -0.6290  0.8088
   72CHL1    C3 7735   2.438   4.327   7.230  0.4194  0.0137  0.1305
   72CHL1    H3 7736   2.440   4.216   7.242  0.2616  0.0590  0.6188
   72CHL1    O3 7737   2.422   4.357   7.091 -0.0676 -0.4014  0.1923
   72CHL1   H3' 7738   2.331   4.388   7.089  0.3991  1.0159  0.4065
   72CHL1    C4 7739   2.328   4.399   7.307  0.2799 -0.0087 -0.6032
   72CHL1   H4A 7740   2.322   4.503   7.269  1.0185 -0.6777 -2.6119
   72CHL1   H4B 7741   2.229   4.358   7.278 -0.0736  1.7306 -1.9204
   72CHL1    C5 7742   2.346   4.383   7.457  0.5389 -0.7504 -0.1346
   72CHL1    C6 7743   2.245   4.345   7.539 -0.6791 -0.1445 -0.4303
   72CHL1    H6 7744   2.151   4.324   7.485  0.0995 -2.2611 -1.0209
   72CHL1    C7 7745   2.255   4.326   7.684  0.1829  0.0502 -0.4065
   72CHL1   H7A 7746   2.169   4.384   7.722 -0.0353 -0.8137  0.4171
   72CHL1   H7B 7747   2.245   4.217   7.704  0.1087 -0.1566 -1.5308
   72CHL1    C8 7748   2.390   4.381   7.736 -0.5495 -0.1896  0.0337
   72CHL1    H8 7749   2.373   4.491   7.742 -1.0905 -0.2869  0.2863
   72CHL1   C14 7750   2.420   4.327   7.882  0.3395  0.0850  0.3640
   72CHL1   H14 7751   2.440   4.219   7.864 -1.8110 -0.3334  0.3805
   72CHL1   C15 7752   2.304   4.323   7.988  0.4055 -0.8023  0.4860
   72CHL1  H15A 7753   2.253   4.420   8.006  0.9632 -0.3031 -0.5379
   72CHL1  H15B 7754   2.228   4.253   7.948 -2.3325  2.0622  0.5224
   72CHL1   C16 7755   2.375   4.283   8.117 -0.5536  0.1565 -0.1787
   72CHL1  H16A 7756   2.335   4.335   8.207  0.8939  3.3448 -1.3047
   72CHL1  H16B 7757   2.356   4.175   8.137 -0.7278  0.5175  1.7297
   72CHL1   C17 7758   2.531   4.292   8.087  0.1032  0.1645 -0.2804
   72CHL1   H17 7759   2.573   4.199   8.045  1.8139  1.4038 -1.4192
   72CHL1   C13 7760   2.546   4.379   7.957 -0.5068 -0.2043  0.2434
   72CHL1   C18 7761   2.527   4.526   7.995  0.0920 -0.1231  0.4084
   72CHL1  H18A 7762   2.627   4.575   7.999 -1.7320  3.8283  0.1964
   72CHL1  H18B 7763   2.473   4.583   7.916 -1.0394 -2.7222 -0.7832
   72CHL1  H18C 7764   2.469   4.538   8.089 -0.9916 -1.3019 -0.1006
   72CHL1   C12 7765   2.673   4.352   7.869  0.2217  0.3975  0.2361
   72CHL1  H12A 7766   2.759   4.415   7.902 -0.2056  0.4778  1.2108
   72CHL1  H12B 7767   2.699   4.244   7.868  2.0578  0.8078 -2.2031
   72CHL1   C11 7768   2.642   4.398   7.726 -0.5099 -0.3485 -0.3423
   72CHL1  H11A 7769   2.660   4.507   7.716 -0.5631 -0.1034  1.9152
   72CHL1  H11B 7770   2.727   4.356   7.667  1.7300  4.3002 -0.6547
   72CHL1    C9 7771   2.512   4.352   7.649  0.3248 -0.3519 -0.6620
   72CHL1    H9 7772   2.516   4.242   7.635 -2.5817 -0.3694 -1.7802
   72CHL1   C10 7773   2.492   4.410   7.510  0.6023  0.5012 -0.2565
   72CHL1   C19 7774   2.522   4.566   7.506 -0.1307  0.8185 -0.0387
   72CHL1  H19A 7775   2.463   4.635   7.570 -0.5183  1.2409 -0.8542
   72CHL1  H19B 7776   2.633   4.576   7.508 -0.2536  3.0840 -2.1446
   72CHL1  H19C 7777   2.497   4.602   7.404 -0.8244  2.0944  0.5620
   72CHL1    C1 7778   2.590   4.339   7.421  0.1832 -0.9156  0.3856
   72CHL1   H1A 7779   2.698   4.358   7.437 -0.0113 -0.4553  1.1831
   72CHL1   H1B 7780   2.586   4.228   7.427 -0.4992 -0.9573 -0.7370
   72CHL1    C2 7781   2.572   4.381   7.275  0.1336  0.0616  0.5065
   72CHL1   H2A 7782   2.653   4.336   7.214  0.0501  1.0974 -0.3863
   72CHL1   H2B 7783   2.561   4.491   7.262 -0.8584  0.2917  2.9222
   72CHL1   C20 7784   2.615   4.328   8.212 -0.7317  0.0426 -0.0852
   72CHL1   H20 7785   2.583   4.421   8.263  0.8775  0.3343  0.4285
   72CHL1   C21 7786   2.757   4.343   8.165  0.3686  0.3047 -0.4598
   72CHL1  H21A 7787   2.827   4.344   8.251 -0.1449  1.7379 -0.0496
   72CHL1  H21B 7788   2.768   4.445   8.123 -2.1585  1.3872  1.3702
   72CHL1  H21C 7789   2.794   4.260   8.101  0.5833 -0.2921  0.4369
   72CHL1   C22 7790   2.601   4.226   8.323  0.8100  0.2224 -0.2854
   72CHL1  H22A 7791   2.492   4.205   8.332  1.0669 -1.3543 -0.6574
   72CHL1  H22B 7792   2.648   4.133   8.284  3.0844  0.9565  0.6027
   72CHL1   C23 7793   2.657   4.265   8.464 -0.0703  0.2187 -0.5487
   72CHL1  H23A 7794   2.763   4.298   8.462 -0.2948  0.8821 -1.7299
   72CHL1  H23B 7795   2.591   4.350   8.493 -0.6905 -1.2802  2.7308
   72CHL1   C24 7796   2.637   4.154   8.563 -0.5162 -0.6804  0.1776
   72CHL1  H24A 7797   2.537   4.115   8.535 -0.2316 -1.9523  0.9219
   72CHL1  H24B 7798   2.705   4.067   8.558 -1.5518 -1.5726  1.1958
   72CHL1   C25 7799   2.625   4.188   8.715  0.3866  0.1039 -0.1083
   72CHL1   H25 7800   2.720   4.236   8.748  2.6031 -2.1831 -2.8348
   72CHL1   C26 7801   2.517   4.288   8.744 -0.6104  0.8840  0.1486
   72CHL1  H26A 7802   2.420   4.234   8.735  0.1824 -0.9349  2.1229
   72CHL1  H26B 7803   2.535   4.324   8.847  1.3219 -1.7415  0.7978
   72CHL1  H26C 7804   2.516   4.387   8.693 -0.8777 -0.0037 -1.6221
   72CHL1   C27 7805   2.609   4.049   8.799 -0.7652  0.1227 -0.4189
   72CHL1  H27A 7806   2.695   3.981   8.780 -0.9730 -0.3175  0.2097
   72CHL1  H27B 7807   2.610   4.067   8.908 -0.8011  0.7998 -0.5285
   72CHL1  H27C 7808   2.510   4.008   8.768 -0.0310 -0.7217 -1.7187
   73CHL1    C3 7809   1.604   0.740   6.957 -0.0871 -0.1370  0.3908
   73CHL1    H3 7810   1.496   0.714   6.950 -0.2410 -1.5694  5.9682
   73CHL1    O3 7811   1.677   0.738   6.831  0.8822  0.2828  0.3696
   73CHL1   H3' 7812   1.691   0.645   6.816  0.4631  0.2031  0.4710
   73CHL1    C4 7813   1.600   0.883   7.009  0.4918 -0.4022 -0.3163
   73CHL1   H4A 7814   1.702   0.927   7.004  1.6355 -2.6517  1.8748
   73CHL1   H4B 7815   1.537   0.942   6.939  1.4149 -2.5908 -3.1020
   73CHL1    C5 7816   1.547   0.891   7.153 -0.1381  0.3198  0.6490
   73CHL1    C6 7817   1.454   0.979   7.183  0.3959  0.7991  0.9025
   73CHL1    H6 7818   1.407   1.047   7.109  1.0947 -1.5608 -1.7868
   73CHL1    C7 7819   1.397   0.992   7.322  0.6674 -0.5129 -0.6555
   73CHL1   H7A 7820   1.401   1.099   7.353 -0.3567 -0.1675 -1.6779
   73CHL1   H7B 7821   1.292   0.957   7.322  1.5295 -3.1600 -0.8207
   73CHL1    C8 7822   1.483   0.922   7.433  0.4428  0.0651  0.7464
   73CHL1    H8 7823   1.570   0.989   7.449  0.5450  0.4647 -1.4182
   73CHL1   C14 7824   1.401   0.914   7.560 -0.5245 -0.4599  0.4751
   73CHL1   H14 7825   1.313   0.847   7.547 -1.0545  0.3364 -0.1224
   73CHL1   C15 7826   1.362   1.046   7.629 -0.1779 -0.0196  0.0940
   73CHL1  H15A 7827   1.431   1.130   7.605 -1.5564  1.0325 -0.2612
   73CHL1  H15B 7828   1.265   1.081   7.586 -0.8815 -0.3778  1.3851
   73CHL1   C16 7829   1.338   1.014   7.778  0.1765 -0.8313 -0.1258
   73CHL1  H16A 7830   1.399   1.087   7.835  3.1919 -2.3414 -1.3315
   73CHL1  H16B 7831   1.232   1.024   7.810  0.4377 -2.3580  1.2713
   73CHL1   C17 7832   1.385   0.873   7.787  0.5712 -0.3355  0.2832
   73CHL1   H17 7833   1.290   0.821   7.765 -0.0241  1.0523 -0.4944
   73CHL1   C13 7834   1.476   0.843   7.669 -0.2727  0.0373 -0.5158
   73CHL1   C18 7835   1.611   0.900   7.700  0.2689  0.3835 -0.1000
   73CHL1  H18A 7836   1.606   1.011   7.707  1.2697  0.4799 -0.7896
   73CHL1  H18B 7837   1.645   0.859   7.798  1.2013 -1.3454 -1.1298
   73CHL1  H18C 7838   1.691   0.883   7.625 -1.4982 -2.2607 -1.4327
   73CHL1   C12 7839   1.497   0.694   7.629  0.2899  0.2748 -0.0830
   73CHL1  H12A 7840   1.563   0.648   7.705  1.1689  1.4071 -0.1469
   73CHL1  H12B 7841   1.400   0.641   7.617  0.4531  0.1329 -0.7945
   73CHL1   C11 7842   1.574   0.685   7.491  0.9839 -0.6202 -0.5768
   73CHL1  H11A 7843   1.680   0.710   7.512  0.1275  1.6634  1.1822
   73CHL1  H11B 7844   1.577   0.578   7.461  1.1460 -0.9054  0.4420
   73CHL1    C9 7845   1.521   0.783   7.381  0.5065  0.7917 -0.3948
   73CHL1    H9 7846   1.425   0.739   7.347 -0.6559  0.1984  3.4163
   73CHL1   C10 7847   1.606   0.792   7.258 -0.1778  0.1518  0.1842
   73CHL1   C19 7848   1.755   0.843   7.278  0.4220  1.0569 -0.9474
   73CHL1  H19A 7849   1.810   0.783   7.354 -0.2199 -0.6108 -1.8061
   73CHL1  H19B 7850   1.821   0.857   7.190  1.1671  2.9100 -0.1388
   73CHL1  H19C 7851   1.758   0.944   7.326  2.6396  0.0370  1.2021
   73CHL1    C1 7852   1.617   0.655   7.190 -0.1636  0.5059 -0.2887
   73CHL1   H1A 7853   1.662   0.575   7.253 -2.2635 -0.9842 -0.6148
   73CHL1   H1B 7854   1.518   0.605   7.188  1.2059 -2.3220 -0.5288
   73CHL1    C2 7855   1.674   0.644   7.053 -0.2340  0.2662 -0.2782
   73CHL1   H2A 7856   1.672   0.539   7.016 -0.1726 -0.1283  0.8217
   73CHL1   H2B 7857   1.781   0.674   7.060 -0.8661  2.3922  0.7541
   73CHL1   C20 7858   1.429   0.820   7.924  1.3576  0.2555  0.1833
   73CHL1   H20 7859   1.498   0.734   7.908 -0.3008 -1.3280  1.2229
   73CHL1   C21 7860   1.311   0.741   7.993 -0.1191 -0.1473  0.3458
   73CHL1  H21A 7861   1.341   0.688   8.086 -0.1524  1.4700  1.2942
   73CHL1  H21B 7862   1.267   0.662   7.929  1.9741 -1.7149  0.7889
   73CHL1  H21C 7863   1.233   0.810   8.032 -1.0885 -0.3564 -1.1985
   73CHL1   C22 7864   1.486   0.921   8.028  0.0910 -0.4490  0.0335
   73CHL1  H22A 7865   1.546   0.999   7.977  0.2455 -1.7158 -1.7750
   73CHL1  H22B 7866   1.400   0.968   8.080  0.1232  2.9254 -2.8162
   73CHL1   C23 7867   1.559   0.858   8.146 -0.3437  0.3002 -1.0189
   73CHL1  H23A 7868   1.502   0.785   8.208  1.0418  1.4195  1.6389
   73CHL1  H23B 7869   1.638   0.800   8.094 -0.3003  1.8900 -2.8052
   73CHL1   C24 7870   1.630   0.967   8.234  0.3985 -0.4135  0.0865
   73CHL1  H24A 7871   1.680   1.048   8.176 -0.1379 -1.9231 -2.5716
   73CHL1  H24B 7872   1.555   1.011   8.303 -1.7314 -2.2354 -1.0001
   73CHL1   C25 7873   1.730   0.896   8.321  0.7613 -0.2935 -0.3525
   73CHL1   H25 7874   1.791   0.832   8.255  1.4822  1.1234 -1.0775
   73CHL1   C26 7875   1.805   1.017   8.377  0.4185  0.2660 -0.2200
   73CHL1  H26A 7876   1.842   1.092   8.304  1.6340 -0.1123  0.0050
   73CHL1  H26B 7877   1.746   1.070   8.455 -0.4777 -0.7031 -0.2279
   73CHL1  H26C 7878   1.892   0.983   8.437 -0.0092 -0.1397  0.1736
   73CHL1   C27 7879   1.679   0.823   8.440 -0.4510 -0.6897 -0.9185
   73CHL1  H27A 7880   1.648   0.717   8.428  0.7312 -1.2038  0.4685
   73CHL1  H27B 7881   1.755   0.816   8.521 -0.1865 -0.6497 -1.1610
   73CHL1  H27C 7882   1.599   0.886   8.484  0.5442 -0.9356  1.2841
   74CHL1    C3 7883   0.297   5.918   6.888  0.2784 -0.5903  0.8813
   74CHL1    H3 7884   0.332   6.014   6.931 -1.0269 -0.0385  0.7434
   74CHL1    O3 7885   0.261   5.921   6.753  0.3721 -0.1946 -0.0493
   74CHL1   H3' 7886   0.168   5.945   6.752  0.1406 -1.0047  0.9027
   74CHL1    C4 7887   0.418   5.814   6.911  0.1047 -0.4583 -0.0114
   74CHL1   H4A 7888   0.397   5.717   6.861  0.2282  0.2640 -1.4914
   74CHL1   H4B 7889   0.500   5.865   6.856 -0.4523 -1.1064 -1.4796
   74CHL1    C5 7890   0.459   5.789   7.055 -0.2329  0.2673  0.2264
   74CHL1    C6 7891   0.578   5.805   7.103 -0.1654 -0.1066 -0.3312
   74CHL1    H6 7892   0.661   5.841   7.040 -1.4044  0.5940 -1.6028
   74CHL1    C7 7893   0.613   5.778   7.248  0.7597  0.7855 -0.1758
   74CHL1   H7A 7894   0.712   5.727   7.242  1.2586  1.7961 -0.6416
   74CHL1   H7B 7895   0.629   5.876   7.297 -0.3827  1.7990 -1.7945
   74CHL1    C8 7896   0.508   5.696   7.326  0.0728 -0.0808 -0.7593
   74CHL1    H8 7897   0.516   5.588   7.301  1.4397 -0.5544  1.5335
   74CHL1   C14 7898   0.545   5.713   7.472 -0.4102 -0.0801 -0.1416
   74CHL1   H14 7899   0.523   5.819   7.498  1.2756  0.2776 -0.1373
   74CHL1   C15 7900   0.691   5.697   7.529  0.3776 -0.6046  0.8386
   74CHL1  H15A 7901   0.746   5.607   7.495  1.0018  0.1980 -0.3193
   74CHL1  H15B 7902   0.749   5.785   7.494  1.8989 -2.9081 -2.6364
   74CHL1   C16 7903   0.663   5.701   7.682  0.6918  0.0960  0.5346
   74CHL1  H16A 7904   0.717   5.612   7.719  0.6296 -0.8161 -1.5337
   74CHL1  H16B 7905   0.695   5.788   7.744  0.1132  0.4950  0.2853
   74CHL1   C17 7906   0.501   5.691   7.701 -0.1496  1.0141  0.7357
   74CHL1   H17 7907   0.470   5.798   7.705  0.2139  1.1985 -1.1410
   74CHL1   C13 7908   0.453   5.642   7.561 -0.3171 -0.4564 -0.7629
   74CHL1   C18 7909   0.470   5.488   7.569 -0.3073 -0.3364 -0.4625
   74CHL1  H18A 7910   0.399   5.448   7.645 -0.9964 -0.8142 -1.3393
   74CHL1  H18B 7911   0.438   5.450   7.469 -1.2366  1.0506 -0.7041
   74CHL1  H18C 7912   0.574   5.464   7.600 -0.5737 -0.6883  0.1562
   74CHL1   C12 7913   0.298   5.678   7.537 -0.0018 -0.4595 -0.0917
   74CHL1  H12A 7914   0.231   5.628   7.610  2.5644 -0.8236  2.0590
   74CHL1  H12B 7915   0.274   5.783   7.564 -0.2620 -1.0507  2.0689
   74CHL1   C11 7916   0.262   5.668   7.385  0.3395  0.1875  0.1763
   74CHL1  H11A 7917   0.264   5.563   7.350 -0.0641  0.3022 -0.1944
   74CHL1  H11B 7918   0.162   5.710   7.364 -1.5599 -3.2796  1.8438
   74CHL1    C9 7919   0.368   5.742   7.296 -1.0361 -0.0941  0.2842
   74CHL1    H9 7920   0.371   5.849   7.325  2.1085 -0.5213  1.6583
   74CHL1   C10 7921   0.338   5.745   7.140 -0.3007  0.1703  0.1786
   74CHL1   C19 7922   0.301   5.600   7.088 -0.3889 -0.5520  0.2460
   74CHL1  H19A 7923   0.271   5.622   6.984  1.5990  2.5631  0.2581
   74CHL1  H19B 7924   0.391   5.535   7.091 -0.6004 -0.8306  0.6556
   74CHL1  H19C 7925   0.209   5.558   7.136 -0.8783  0.2685  0.0349
   74CHL1    C1 7926   0.216   5.840   7.125 -0.0284  0.5343  0.6304
   74CHL1   H1A 7927   0.126   5.800   7.177  1.0929  0.2471  2.3674
   74CHL1   H1B 7928   0.228   5.930   7.189  0.0701 -0.2271  1.6829
   74CHL1    C2 7929   0.182   5.868   6.975 -0.0685 -0.2264 -0.0720
   74CHL1   H2A 7930   0.106   5.950   6.978  2.2843  2.0421 -1.0580
   74CHL1   H2B 7931   0.133   5.780   6.928 -1.2911  1.5031 -2.1355
   74CHL1   C20 7932   0.454   5.618   7.823 -0.5537  1.2494  0.1924
   74CHL1   H20 7933   0.353   5.575   7.806 -0.0063 -0.5477  1.3573
   74CHL1   C21 7934   0.432   5.733   7.930 -0.1559  0.1519  0.1057
   74CHL1  H21A 7935   0.389   5.691   8.023 -2.2915 -0.1192 -0.9674
   74CHL1  H21B 7936   0.342   5.788   7.894 -2.6236 -4.3615 -0.9414
   74CHL1  H21C 7937   0.515   5.800   7.962 -0.5302  0.5724  0.1962
   74CHL1   C22 7938   0.540   5.500   7.883 -0.1634  0.7309 -0.2753
   74CHL1  H22A 7939   0.562   5.437   7.795 -0.7269  0.2801 -0.0989
   74CHL1  H22B 7940   0.627   5.553   7.926 -0.1394 -0.5303  1.2603
   74CHL1   C23 7941   0.471   5.423   7.992  0.2249 -0.8234 -0.1812
   74CHL1  H23A 7942   0.439   5.501   8.064 -0.4717 -0.7869 -0.5185
   74CHL1  H23B 7943   0.380   5.384   7.941 -1.6773  1.3783  1.4408
   74CHL1   C24 7944   0.561   5.318   8.053  0.5255 -0.1947 -0.6813
   74CHL1  H24A 7945   0.592   5.242   7.979 -2.2050 -1.7583 -0.3062
   74CHL1  H24B 7946   0.651   5.371   8.091  1.0342 -0.4654 -1.4994
   74CHL1   C25 7947   0.500   5.258   8.176 -0.2966  0.3347 -0.2775
   74CHL1   H25 7948   0.469   5.338   8.247  1.9167 -0.4824  1.6835
   74CHL1   C26 7949   0.367   5.173   8.134  0.2043 -0.9162  0.2385
   74CHL1  H26A 7950   0.284   5.239   8.101  0.9953  0.9617  1.9306
   74CHL1  H26B 7951   0.377   5.095   8.055 -0.5972 -0.9038  0.1258
   74CHL1  H26C 7952   0.350   5.119   8.230 -1.7105 -0.3734  0.2210
   74CHL1   C27 7953   0.595   5.158   8.245 -0.0310  0.4168 -0.0791
   74CHL1  H27A 7954   0.570   5.144   8.353 -1.0116 -0.1811 -0.3805
   74CHL1  H27B 7955   0.598   5.057   8.199  2.3251  1.0476 -1.3762
   74CHL1  H27C 7956   0.696   5.204   8.253 -0.4093  1.3953 -0.8101
   75CHL1    C3 7957   3.291   1.232   6.718 -0.2461 -0.0194 -0.1383
   75CHL1    H3 7958   3.402   1.225   6.710 -0.3317 -0.0169 -1.4241
   75CHL1    O3 7959   3.257   1.275   6.590  0.7539 -0.0866  0.3235
   75CHL1   H3' 7960   3.286   1.367   6.586  0.2786  0.0777  0.7091
   75CHL1    C4 7961   3.223   1.100   6.741 -0.2187  0.3142 -0.1687
   75CHL1   H4A 7962   3.116   1.118   6.719 -0.5858  0.3751  1.6452
   75CHL1   H4B 7963   3.264   1.025   6.670 -0.0222  1.7461 -1.5961
   75CHL1    C5 7964   3.233   1.054   6.885  0.4876 -0.7837  0.2508
   75CHL1    C6 7965   3.281   0.937   6.919 -0.4655 -0.2589  0.1598
   75CHL1    H6 7966   3.322   0.863   6.849  0.1453  0.9168 -0.7409
   75CHL1    C7 7967   3.279   0.883   7.059  0.2618  0.1671 -0.3221
   75CHL1   H7A 7968   3.231   0.783   7.052 -0.1537  0.4830 -2.2757
   75CHL1   H7B 7969   3.375   0.852   7.106  0.1778  0.2479 -0.0974
   75CHL1    C8 7970   3.197   0.964   7.163 -0.7675  0.4433  0.2277
   75CHL1    H8 7971   3.088   0.950   7.147 -0.6586  0.9030 -0.9620
   75CHL1   C14 7972   3.244   0.927   7.309  0.9767  0.1353 -0.5446
   75CHL1   H14 7973   3.350   0.960   7.319  1.4106 -1.4628  0.3444
   75CHL1   C15 7974   3.244   0.782   7.360  0.4249 -0.3757 -0.2901
   75CHL1  H15A 7975   3.165   0.715   7.320  1.1529 -1.5955  0.2881
   75CHL1  H15B 7976   3.343   0.746   7.326  0.3289 -0.3920 -0.5569
   75CHL1   C16 7977   3.247   0.794   7.516 -0.9865 -0.1100  0.1342
   75CHL1  H16A 7978   3.169   0.736   7.571 -2.8434  0.0784 -2.2000
   75CHL1  H16B 7979   3.340   0.753   7.561  0.4810  0.3685 -2.4002
   75CHL1   C17 7980   3.227   0.947   7.539 -0.3222 -0.5882 -0.5761
   75CHL1   H17 7981   3.332   0.984   7.545 -0.5246  0.0849 -1.1827
   75CHL1   C13 7982   3.171   1.012   7.413  1.5094 -0.1231 -0.1753
   75CHL1   C18 7983   3.015   0.981   7.415  0.6147 -0.4619 -0.5934
   75CHL1  H18A 7984   2.951   1.021   7.333 -0.0681  0.1156  0.2087
   75CHL1  H18B 7985   2.992   0.872   7.421 -2.0315  0.1528  1.2341
   75CHL1  H18C 7986   2.972   1.023   7.508 -0.9571 -0.6286 -1.2170
   75CHL1   C12 7987   3.215   1.161   7.389 -0.9535  0.6926 -0.5266
   75CHL1  H12A 7988   3.157   1.226   7.458 -1.1081 -0.6872  0.6452
   75CHL1  H12B 7989   3.323   1.184   7.401 -0.5255 -2.0154  1.1294
   75CHL1   C11 7990   3.173   1.205   7.247 -0.2701 -0.8224  0.1590
   75CHL1  H11A 7991   3.062   1.202   7.256 -0.1683 -0.6302  1.6815
   75CHL1  H11B 7992   3.200   1.313   7.241  0.9451 -1.0917  0.5171
   75CHL1    C9 7993   3.232   1.114   7.136  0.1893 -0.1324 -0.1563
   75CHL1    H9 7994   3.342   1.127   7.137 -0.0216  1.9115 -0.8703
   75CHL1   C10 7995   3.199   1.164   6.993  0.4213 -0.1227  0.1430
   75CHL1   C19 7996   3.046   1.177   6.989 -0.8472  0.3605 -0.3425
   75CHL1  H19A 7997   2.999   1.256   7.051  0.3489  0.2666  0.7039
   75CHL1  H19B 7998   3.014   1.211   6.888 -2.7268  3.3781  1.2254
   75CHL1  H19C 7999   2.996   1.081   7.014 -0.0847  0.6655  2.4969
   75CHL1    C1 8000   3.259   1.307   6.964 -0.5539 -0.4485  0.1303
   75CHL1   H1A 8001   3.213   1.388   7.025  2.2109  0.7046  0.7943
   75CHL1   H1B 8002   3.366   1.289   6.987 -0.2311 -0.5039 -1.3617
   75CHL1    C2 8003   3.258   1.344   6.816  0.2979  0.6350  0.0370
   75CHL1   H2A 8004   3.330   1.424   6.789  0.1237  0.7683 -0.0333
   75CHL1   H2B 8005   3.151   1.375   6.807  0.3794  0.6261 -1.0284
   75CHL1   C20 8006   3.164   0.975   7.679 -0.0716 -0.2769 -0.7541
   75CHL1   H20 8007   3.070   0.914   7.682  0.5122 -1.3219 -2.5046
   75CHL1   C21 8008   3.131   1.122   7.707  0.3625 -0.8227  1.1617
   75CHL1  H21A 8009   3.217   1.187   7.733 -2.7397  4.0827 -0.2145
   75CHL1  H21B 8010   3.083   1.120   7.806  1.1835 -2.0157  1.5489
   75CHL1  H21C 8011   3.074   1.171   7.625  1.4352  0.1002  0.9573
   75CHL1   C22 8012   3.250   0.937   7.800 -0.3646 -0.0283  0.0611
   75CHL1  H22A 8013   3.353   0.966   7.771 -1.1665  1.7730 -1.0680
   75CHL1  H22B 8014   3.217   0.997   7.886 -1.5225  0.1809 -0.5201
   75CHL1   C23 8015   3.252   0.790   7.845 -0.5664 -0.0607  0.4294
   75CHL1  H23A 8016   3.149   0.749   7.845 -0.0753 -1.3316  0.6129
   75CHL1  H23B 8017   3.307   0.724   7.774 -2.2937 -0.1321 -0.8634
   75CHL1   C24 8018   3.302   0.764   7.987 -0.1434 -0.2637  0.5895
   75CHL1  H24A 8019   3.406   0.797   8.010 -0.7838  0.1640  3.0046
   75CHL1  H24B 8020   3.251   0.824   8.066 -2.1561 -0.0972 -0.8152
   75CHL1   C25 8021   3.294   0.618   8.025 -0.0929 -0.1288 -0.2079
   75CHL1   H25 8022   3.201   0.580   7.978 -0.0739  0.5803 -0.8227
   75CHL1   C26 8023   3.414   0.541   7.961 -0.1173  0.5799  0.6580
   75CHL1  H26A 8024   3.428   0.435   7.988 -1.4635  0.3056  0.3210
   75CHL1  H26B 8025   3.389   0.532   7.853  1.1886  0.4094  0.3647
   75CHL1  H26C 8026   3.511   0.593   7.974 -1.4265  2.6170  2.8073
   75CHL1   C27 8027   3.295   0.593   8.175 -0.7651 -0.0041 -0.9970
   75CHL1  H27A 8028   3.199   0.635   8.212 -0.9136  0.3001 -1.7072
   75CHL1  H27B 8029   3.315   0.486   8.197 -0.4548  0.3371  0.3869
   75CHL1  H27C 8030   3.380   0.646   8.223 -0.8645  0.9074 -1.8055
   76CHL1    C3 8031   1.186   3.058   7.224  0.0402  0.0446 -0.0989
   76CHL1    H3 8032   1.174   2.948   7.234  1.7142 -0.3967 -2.6309
   76CHL1    O3 8033   1.232   3.092   7.096  0.1935  0.4750  0.5189
   76CHL1   H3' 8034   1.209   3.023   7.033  0.7997 -0.9082  1.7823
   76CHL1    C4 8035   1.050   3.130   7.262  0.5037  0.4356 -0.3112
   76CHL1   H4A 8036   1.069   3.239   7.247 -0.1355  0.5056 -0.6347
   76CHL1   H4B 8037   0.981   3.103   7.179 -1.4672  0.3298  1.3481
   76CHL1    C5 8038   1.003   3.108   7.396 -0.2232 -0.1206  0.3747
   76CHL1    C6 8039   0.874   3.070   7.421  0.6735  0.2557  0.3179
   76CHL1    H6 8040   0.803   3.049   7.340  1.2815 -1.9801  0.3277
   76CHL1    C7 8041   0.825   3.031   7.561 -0.0618 -0.4839  0.0740
   76CHL1   H7A 8042   0.720   3.064   7.578 -0.1374 -0.6279 -0.1066
   76CHL1   H7B 8043   0.815   2.921   7.568  0.5901 -0.5826 -0.4768
   76CHL1    C8 8044   0.911   3.081   7.678  0.1550 -0.5015 -0.2081
   76CHL1    H8 8045   0.893   3.191   7.686  1.7152 -0.2416 -0.1012
   76CHL1   C14 8046   0.870   3.000   7.803 -0.4039  0.0464 -0.3519
   76CHL1   H14 8047   0.895   2.896   7.776 -0.1566 -0.2450  0.9702
   76CHL1   C15 8048   0.733   3.017   7.861  0.0539  0.5408  0.3764
   76CHL1  H15A 8049   0.691   3.120   7.867 -0.6918  0.2653 -0.0453
   76CHL1  H15B 8050   0.663   2.953   7.803  1.3542  1.9147 -2.8057
   76CHL1   C16 8051   0.747   2.976   8.010  0.4317  0.2872 -0.0280
   76CHL1  H16A 8052   0.694   3.050   8.073  0.6493 -0.8779  1.5573
   76CHL1  H16B 8053   0.707   2.873   8.021  0.5992 -0.0022 -1.9193
   76CHL1   C17 8054   0.894   2.968   8.048  0.6012 -0.9492  0.0117
   76CHL1   H17 8055   0.933   2.864   8.051 -0.3437 -1.3437 -0.8639
   76CHL1   C13 8056   0.957   3.043   7.925  0.2082 -0.1403  0.3972
   76CHL1   C18 8057   0.946   3.193   7.954  0.4425 -0.2602 -0.2778
   76CHL1  H18A 8058   1.020   3.221   8.031 -1.3786 -1.1264  1.8326
   76CHL1  H18B 8059   0.973   3.249   7.861  0.1969 -0.5205 -0.5057
   76CHL1  H18C 8060   0.844   3.226   7.982  0.5681 -1.1785  1.2950
   76CHL1   C12 8061   1.105   3.008   7.893 -0.9708  1.0238  0.8653
   76CHL1  H12A 8062   1.172   3.018   7.981  1.1582  0.5530 -0.6787
   76CHL1  H12B 8063   1.098   2.898   7.878 -1.0832  1.0740  0.5311
   76CHL1   C11 8064   1.154   3.081   7.764  0.0086 -0.7756  0.2771
   76CHL1  H11A 8065   1.168   3.191   7.774  0.5455 -0.8380  0.2203
   76CHL1  H11B 8066   1.255   3.039   7.746  0.6206  1.3676 -1.4083
   76CHL1    C9 8067   1.060   3.053   7.643  0.6457 -0.1698  0.4110
   76CHL1    H9 8068   1.064   2.943   7.627 -0.3626 -0.2073  0.4167
   76CHL1   C10 8069   1.107   3.114   7.506  0.4409 -0.3057  0.8979
   76CHL1   C19 8070   1.111   3.272   7.521 -0.2165  0.1486 -0.0299
   76CHL1  H19A 8071   1.172   3.308   7.606 -1.8579 -0.0532  1.2645
   76CHL1  H19B 8072   1.154   3.335   7.440 -1.4005  1.1337  0.0964
   76CHL1  H19C 8073   1.008   3.312   7.533 -0.1111  1.2519 -2.3605
   76CHL1    C1 8074   1.247   3.056   7.469  0.1302  0.1133  0.3715
   76CHL1   H1A 8075   1.328   3.085   7.541 -0.0380  1.8232 -0.1158
   76CHL1   H1B 8076   1.239   2.947   7.488 -2.1387  0.1458 -0.3396
   76CHL1    C2 8077   1.295   3.092   7.328 -0.4548 -0.0065  0.2750
   76CHL1   H2A 8078   1.389   3.037   7.307 -1.9444 -1.6393 -2.4715
   76CHL1   H2B 8079   1.314   3.201   7.337  2.3898 -0.6066  2.3340
   76CHL1   C20 8080   0.913   3.016   8.196  0.3628  1.0355 -0.7125
   76CHL1   H20 8081   0.880   3.122   8.195 -1.5720  0.4873  0.5077
   76CHL1   C21 8082   1.063   3.020   8.247  0.1572  0.1311  0.1825
   76CHL1  H21A 8083   1.123   2.931   8.220 -0.6798 -0.2814 -0.3512
   76CHL1  H21B 8084   1.058   3.039   8.356  2.7232  0.3378  0.2968
   76CHL1  H21C 8085   1.100   3.111   8.194 -1.2729  0.6078 -0.0281
   76CHL1   C22 8086   0.825   2.923   8.290  0.2446  0.4117  0.0838
   76CHL1  H22A 8087   0.838   2.968   8.391 -3.2573 -3.0898  2.2578
   76CHL1  H22B 8088   0.717   2.940   8.269  0.0285 -0.8420  0.1301
   76CHL1   C23 8089   0.855   2.772   8.279 -0.1274  0.8258  1.2186
   76CHL1  H23A 8090   0.855   2.732   8.176 -3.5119  1.3184  0.9739
   76CHL1  H23B 8091   0.962   2.765   8.310  0.4738  0.4962 -0.8406
   76CHL1   C24 8092   0.762   2.683   8.363 -0.8542 -0.0224 -0.5325
   76CHL1  H24A 8093   0.655   2.701   8.339 -1.2409  0.0915  1.1775
   76CHL1  H24B 8094   0.785   2.584   8.320  0.0318  0.7441 -1.8375
   76CHL1   C25 8095   0.782   2.690   8.518 -0.3301  0.3504  0.7657
   76CHL1   H25 8096   0.746   2.786   8.559 -0.7817  0.1547  0.8311
   76CHL1   C26 8097   0.686   2.589   8.579 -0.2819 -0.3454 -0.5258
   76CHL1  H26A 8098   0.682   2.603   8.689 -1.2267  2.0400 -0.8180
   76CHL1  H26B 8099   0.580   2.598   8.546 -0.7487 -0.6314  0.8604
   76CHL1  H26C 8100   0.725   2.488   8.555  2.7723  1.2855 -2.7853
   76CHL1   C27 8101   0.920   2.681   8.564 -0.1145  0.0283  0.0699
   76CHL1  H27A 8102   0.982   2.609   8.507  0.5650 -0.1412  1.0055
   76CHL1  H27B 8103   0.970   2.781   8.562 -1.2279  0.6116  0.6104
   76CHL1  H27C 8104   0.933   2.644   8.668  1.1862 -1.4291 -0.5915
   77CHL1    C3 8105   0.991   1.094   6.837 -0.4182 -0.0391  0.3259
   77CHL1    H3 8106   0.894   1.040   6.828  1.2142 -3.1162  0.5997
   77CHL1    O3 8107   1.051   1.102   6.707  0.1743  0.2497  0.2312
   77CHL1   H3' 8108   0.981   1.127   6.647 -0.8122 -2.0995  0.3544
   77CHL1    C4 8109   0.970   1.232   6.900 -0.2547  0.1868  0.1280
   77CHL1   H4A 8110   1.064   1.291   6.905 -1.3416  1.8697  1.2918
   77CHL1   H4B 8111   0.899   1.280   6.829 -1.3425  0.4732  1.3818
   77CHL1    C5 8112   0.911   1.228   7.043  0.1924  0.7923 -0.6457
   77CHL1    C6 8113   0.799   1.294   7.075  0.1232 -0.1741 -0.2412
   77CHL1    H6 8114   0.748   1.341   6.990 -0.7135 -0.4327  0.1132
   77CHL1    C7 8115   0.734   1.295   7.213 -0.6604  0.0476  0.0042
   77CHL1   H7A 8116   0.712   1.396   7.253  1.7919 -0.0976  1.7820
   77CHL1   H7B 8117   0.635   1.250   7.190 -0.6279  1.6752 -3.6908
   77CHL1    C8 8118   0.829   1.234   7.318  0.0075 -0.2612  0.1509
   77CHL1    H8 8119   0.899   1.318   7.336 -0.5955  0.9818 -2.9377
   77CHL1   C14 8120   0.741   1.194   7.445 -0.5845  0.2488  0.1789
   77CHL1   H14 8121   0.675   1.116   7.400 -0.6014  0.7142 -0.6069
   77CHL1   C15 8122   0.633   1.294   7.490 -0.6910 -0.2341 -0.4897
   77CHL1  H15A 8123   0.669   1.399   7.499 -2.3493  0.5038 -2.0546
   77CHL1  H15B 8124   0.542   1.273   7.430 -1.7219 -0.6848  1.1962
   77CHL1   C16 8125   0.606   1.239   7.631  0.0192  0.1224 -0.0659
   77CHL1  H16A 8126   0.619   1.316   7.710 -2.4728  0.4901  0.0185
   77CHL1  H16B 8127   0.496   1.225   7.636 -0.2862  2.1538 -0.5866
   77CHL1   C17 8128   0.692   1.109   7.652  0.4878 -0.1081 -0.0483
   77CHL1   H17 8129   0.644   1.023   7.600 -1.3665 -0.2833  1.8527
   77CHL1   C13 8130   0.817   1.130   7.560 -0.6350  0.3682 -0.0761
   77CHL1   C18 8131   0.906   1.242   7.626  0.2001  0.0813 -0.4037
   77CHL1  H18A 8132   0.854   1.337   7.652 -0.9921 -0.8952  0.8538
   77CHL1  H18B 8133   0.948   1.212   7.724 -3.4675  0.7367  1.4608
   77CHL1  H18C 8134   0.986   1.273   7.556 -1.1197  0.2935 -1.8644
   77CHL1   C12 8135   0.895   1.004   7.501 -0.7618  0.3752 -0.6958
   77CHL1  H12A 8136   0.957   0.961   7.581 -0.9172  1.3490 -0.0383
   77CHL1  H12B 8137   0.830   0.917   7.475 -0.1189 -0.7625  1.4368
   77CHL1   C11 8138   0.976   1.038   7.381 -0.2026 -0.4782  0.2682
   77CHL1  H11A 8139   1.059   1.106   7.409 -1.7474  1.1516  0.9387
   77CHL1  H11B 8140   1.033   0.952   7.339 -1.5169 -0.8746 -0.7208
   77CHL1    C9 8141   0.901   1.109   7.265 -0.0703 -0.3424 -0.2974
   77CHL1    H9 8142   0.819   1.039   7.238 -0.1790 -0.9470  1.5854
   77CHL1   C10 8143   0.993   1.131   7.140 -0.6089  0.6039 -0.6405
   77CHL1   C19 8144   1.125   1.199   7.175  0.1796  0.2177 -0.5725
   77CHL1  H19A 8145   1.196   1.143   7.239  1.1396  1.0249 -0.9140
   77CHL1  H19B 8146   1.175   1.225   7.080  0.1683  1.2480 -0.3073
   77CHL1  H19C 8147   1.096   1.291   7.231  1.6709  0.4839 -0.2394
   77CHL1    C1 8148   1.010   0.987   7.067  0.1977 -1.0267  0.6230
   77CHL1   H1A 8149   1.065   0.914   7.130 -0.3450 -1.4639  0.6013
   77CHL1   H1B 8150   0.904   0.958   7.049  0.0441 -0.0711 -0.0505
   77CHL1    C2 8151   1.079   1.000   6.926 -0.3313 -0.2962 -0.4555
   77CHL1   H2A 8152   1.090   0.898   6.883  0.9145 -0.4976  0.2830
   77CHL1   H2B 8153   1.177   1.052   6.936 -1.2865  1.0228  2.6384
   77CHL1   C20 8154   0.717   1.068   7.800  0.2834 -0.0248  0.0524
   77CHL1   H20 8155   0.757   1.160   7.846 -1.0029  1.0897 -1.0061
   77CHL1   C21 8156   0.828   0.964   7.810 -0.6885  0.7067  0.1676
   77CHL1  H21A 8157   0.847   0.942   7.917 -1.5102  1.0230  0.3817
   77CHL1  H21B 8158   0.930   0.981   7.769 -0.0466 -1.0876  0.9739
   77CHL1  H21C 8159   0.797   0.868   7.764 -1.7485  0.0101  2.2878
   77CHL1   C22 8160   0.586   1.034   7.883  0.2050  0.5217  0.6863
   77CHL1  H22A 8161   0.511   1.114   7.864 -2.1035 -1.3150  1.7492
   77CHL1  H22B 8162   0.525   0.950   7.843  0.2659  0.6834  0.2534
   77CHL1   C23 8163   0.601   1.029   8.036  0.6741 -0.2582 -0.5627
   77CHL1  H23A 8164   0.661   0.940   8.065 -1.6461 -1.4922  0.6577
   77CHL1  H23B 8165   0.629   1.128   8.078 -0.1534  0.3503 -1.4222
   77CHL1   C24 8166   0.460   1.006   8.100 -0.2241 -0.3055 -0.1517
   77CHL1  H24A 8167   0.388   1.090   8.092 -3.3302 -2.8834 -0.1759
   77CHL1  H24B 8168   0.400   0.933   8.042  0.3752  1.1146 -2.6235
   77CHL1   C25 8169   0.466   0.983   8.253  0.6413 -0.1724  0.0280
   77CHL1   H25 8170   0.510   1.072   8.303  0.8851 -1.6071  2.4199
   77CHL1   C26 8171   0.325   0.955   8.309 -0.6364  0.3689 -0.2070
   77CHL1  H26A 8172   0.254   1.032   8.275 -1.7767 -1.1505 -1.3212
   77CHL1  H26B 8173   0.290   0.859   8.264 -1.3272 -0.1273  1.3288
   77CHL1  H26C 8174   0.336   0.952   8.420 -0.7473  0.6385 -0.1900
   77CHL1   C27 8175   0.559   0.864   8.302  0.0193  0.3986  0.2962
   77CHL1  H27A 8176   0.656   0.869   8.247  0.0000 -0.1160  0.2151
   77CHL1  H27B 8177   0.575   0.866   8.412 -0.7775 -2.9275  0.5314
   77CHL1  H27C 8178   0.508   0.768   8.283  1.5902 -0.9309  2.5271
   78CHL1    C3 8179   3.847   2.013   6.916 -0.1861 -0.3911 -0.6882
   78CHL1    H3 8180   3.955   1.990   6.928 -0.2446 -0.1769  0.3325
   78CHL1    O3 8181   3.835   2.055   6.782  0.3372 -0.2633  0.0951
   78CHL1   H3' 8182   3.892   1.993   6.735 -1.4592 -1.6340 -0.3234
   78CHL1    C4 8183   3.758   1.898   6.952 -0.2818 -0.1478 -0.9030
   78CHL1   H4A 8184   3.653   1.931   6.935 -0.5521  0.2478  1.3754
   78CHL1   H4B 8185   3.782   1.819   6.878  2.5849  0.9218 -1.2071
   78CHL1    C5 8186   3.788   1.852   7.092  1.1860 -0.1194 -0.1002
   78CHL1    C6 8187   3.835   1.726   7.111 -0.4979 -0.2923  0.3645
   78CHL1    H6 8188   3.854   1.657   7.028 -0.7568  1.5714 -1.2936
   78CHL1    C7 8189   3.854   1.672   7.248 -0.3250 -0.2489 -0.4861
   78CHL1   H7A 8190   3.814   1.570   7.265 -0.9522  0.5303  3.1100
   78CHL1   H7B 8191   3.963   1.669   7.268 -0.4143 -0.7791 -0.0872
   78CHL1    C8 8192   3.781   1.754   7.364  0.0904 -0.1182  0.1748
   78CHL1    H8 8193   3.671   1.744   7.349  0.1312  1.1065 -0.9516
   78CHL1   C14 8194   3.822   1.709   7.502  0.3907 -0.0395 -0.7051
   78CHL1   H14 8195   3.932   1.719   7.512  0.0188  0.7127  3.4043
   78CHL1   C15 8196   3.800   1.552   7.546 -0.5698  0.2342  0.3379
   78CHL1  H15A 8197   3.697   1.526   7.514 -0.9097  0.4467  1.2429
   78CHL1  H15B 8198   3.874   1.488   7.493 -0.9181  2.1633 -2.5662
   78CHL1   C16 8199   3.817   1.554   7.697  0.6012 -0.6547 -0.0163
   78CHL1  H16A 8200   3.716   1.522   7.728  0.3897 -0.9556 -1.0061
   78CHL1  H16B 8201   3.895   1.485   7.737  1.0605  0.8219  1.7548
   78CHL1   C17 8202   3.830   1.708   7.741 -0.4170 -0.2885  0.2525
   78CHL1   H17 8203   3.940   1.712   7.756 -0.0923 -0.5696 -1.8745
   78CHL1   C13 8204   3.774   1.796   7.625 -0.1406 -0.1581 -0.0719
   78CHL1   C18 8205   3.626   1.811   7.629 -0.6028  0.0794 -1.5351
   78CHL1  H18A 8206   3.577   1.717   7.664 -0.2861  0.3371 -0.3739
   78CHL1  H18B 8207   3.588   1.882   7.705 -2.4618 -1.5457 -0.8841
   78CHL1  H18C 8208   3.584   1.846   7.533  0.8110 -1.1226 -2.6208
   78CHL1   C12 8209   3.833   1.937   7.603 -0.1822 -0.8378  0.4100
   78CHL1  H12A 8210   3.810   2.015   7.678  0.7270 -0.2381  0.0745
   78CHL1  H12B 8211   3.943   1.921   7.610 -0.1021  0.0893  1.4111
   78CHL1   C11 8212   3.804   1.997   7.465 -0.1410 -0.4325  0.5288
   78CHL1  H11A 8213   3.694   2.014   7.462  0.0589  0.7533 -1.1788
   78CHL1  H11B 8214   3.847   2.097   7.442  0.0465 -0.2034  1.8525
   78CHL1    C9 8215   3.828   1.900   7.340 -0.4402 -0.6304  0.2675
   78CHL1    H9 8216   3.938   1.903   7.329 -0.4231 -0.2757  0.5116
   78CHL1   C10 8217   3.771   1.955   7.207  0.1737  0.4260 -0.1090
   78CHL1   C19 8218   3.610   1.966   7.205  0.2889  0.0363  0.3835
   78CHL1  H19A 8219   3.575   2.036   7.284  2.6024  2.4813 -0.6643
   78CHL1  H19B 8220   3.578   2.018   7.112  3.0157  0.2284 -0.5037
   78CHL1  H19C 8221   3.564   1.865   7.199 -0.4692  0.5470 -4.2669
   78CHL1    C1 8222   3.833   2.089   7.167  0.2019 -0.0957  0.3159
   78CHL1   H1A 8223   3.786   2.168   7.229 -0.2973 -0.2147  0.0871
   78CHL1   H1B 8224   3.942   2.081   7.190  0.3669  0.0496 -0.3995
   78CHL1    C2 8225   3.819   2.131   7.012 -0.3470  0.3279 -0.2981
   78CHL1   H2A 8226   3.883   2.216   6.983 -1.7489  1.7420  0.6792
   78CHL1   H2B 8227   3.711   2.153   6.995 -0.5883 -1.8855 -1.9109
   78CHL1   C20 8228   3.786   1.738   7.884  0.4754  0.0907  0.3362
   78CHL1   H20 8229   3.679   1.769   7.886  0.7862  1.1275  2.4555
   78CHL1   C21 8230   3.866   1.864   7.933  0.2123 -0.0080 -0.3847
   78CHL1  H21A 8231   3.848   1.890   8.039  3.2611 -0.6777  0.3435
   78CHL1  H21B 8232   3.829   1.956   7.881 -0.2916 -0.7271 -1.3164
   78CHL1  H21C 8233   3.976   1.854   7.924  0.2905  1.2950 -1.0669
   78CHL1   C22 8234   3.790   1.611   7.979 -0.3795  0.3681 -0.0574
   78CHL1  H22A 8235   3.718   1.539   7.934  1.5926 -2.2241  0.8389
   78CHL1  H22B 8236   3.897   1.582   7.977 -0.1759  0.7998  2.6844
   78CHL1   C23 8237   3.757   1.657   8.125 -0.0471  0.7114  0.3165
   78CHL1  H23A 8238   3.853   1.708   8.150  0.4400  0.1132 -0.3163
   78CHL1  H23B 8239   3.665   1.720   8.128  0.9489  2.2114  0.2731
   78CHL1   C24 8240   3.738   1.541   8.226  0.7458 -0.4458 -0.2769
   78CHL1  H24A 8241   3.642   1.486   8.216  1.5169 -1.6630 -1.0992
   78CHL1  H24B 8242   3.813   1.467   8.192  1.5022  0.6591 -1.0305
   78CHL1   C25 8243   3.758   1.595   8.367 -0.2818  0.3152 -0.7329
   78CHL1   H25 8244   3.851   1.656   8.364  0.2799 -0.5032 -0.2604
   78CHL1   C26 8245   3.632   1.674   8.401 -0.0620  0.7083  0.1993
   78CHL1  H26A 8246   3.531   1.636   8.374  0.4690 -1.1012  0.6873
   78CHL1  H26B 8247   3.629   1.699   8.509  2.0021  1.8259  0.0337
   78CHL1  H26C 8248   3.644   1.772   8.348  1.7852  2.1715  3.1726
   78CHL1   C27 8249   3.786   1.483   8.458 -0.5881 -0.0571  0.2271
   78CHL1  H27A 8250   3.842   1.397   8.413 -1.4017 -0.5585  0.1580
   78CHL1  H27B 8251   3.837   1.527   8.546  0.5659 -0.5502 -0.1820
   78CHL1  H27C 8252   3.686   1.447   8.489 -0.6394 -0.8144 -0.7789
   79CHL1    C3 8253   2.382   2.489   7.254 -0.7309  0.2937 -0.5181
   79CHL1    H3 8254   2.405   2.594   7.283 -2.5925  0.3412  0.8205
   79CHL1    O3 8255   2.429   2.468   7.122  0.1658  0.0911 -0.0571
   79CHL1   H3' 8256   2.375   2.395   7.090  2.0447 -0.6787 -1.5583
   79CHL1    C4 8257   2.460   2.392   7.346  0.1729 -0.9711  0.0127
   79CHL1   H4A 8258   2.435   2.290   7.310 -2.3191 -0.0671 -0.8850
   79CHL1   H4B 8259   2.570   2.394   7.327  0.2974  0.0275  0.8009
   79CHL1    C5 8260   2.425   2.396   7.485  0.2754 -0.4246  0.7212
   79CHL1    C6 8261   2.503   2.429   7.591  0.6725 -0.5056  0.0976
   79CHL1    H6 8262   2.609   2.455   7.583  0.5613 -0.3799 -1.0612
   79CHL1    C7 8263   2.464   2.432   7.730  0.2149  1.1113  0.0188
   79CHL1   H7A 8264   2.552   2.396   7.787  1.6775 -0.8594 -3.3397
   79CHL1   H7B 8265   2.458   2.537   7.766 -0.1440  1.1128 -0.0397
   79CHL1    C8 8266   2.330   2.352   7.763 -0.1161  0.3645 -0.0849
   79CHL1    H8 8267   2.334   2.241   7.759  0.8757  0.3366  1.1573
   79CHL1   C14 8268   2.285   2.393   7.903 -0.0755 -0.2403 -0.2430
   79CHL1   H14 8269   2.270   2.503   7.913 -2.2982 -0.4404 -1.2234
   79CHL1   C15 8270   2.389   2.367   8.025  0.5741  0.3031 -0.4747
   79CHL1  H15A 8271   2.452   2.276   8.010 -0.7918 -1.1522  2.2864
   79CHL1  H15B 8272   2.449   2.459   8.041  0.2283  0.5099 -0.3779
   79CHL1   C16 8273   2.288   2.355   8.139  0.4001  0.0850 -0.4943
   79CHL1  H16A 8274   2.288   2.251   8.178 -1.2727  0.5119  0.6676
   79CHL1  H16B 8275   2.323   2.412   8.228  0.1626 -0.8846  0.2254
   79CHL1   C17 8276   2.142   2.381   8.087  0.4735  0.5249 -0.1862
   79CHL1   H17 8277   2.114   2.488   8.080  1.1946  0.6167 -1.8773
   79CHL1   C13 8278   2.152   2.338   7.945  0.3244 -1.3172  0.0935
   79CHL1   C18 8279   2.160   2.179   7.945 -0.8542 -0.2008  0.3872
   79CHL1  H18A 8280   2.248   2.139   8.000 -1.0512 -1.7230 -0.3748
   79CHL1  H18B 8281   2.063   2.152   7.991 -1.1810  2.8752  1.6138
   79CHL1  H18C 8282   2.178   2.136   7.844 -1.7037  0.8299 -0.2045
   79CHL1   C12 8283   2.049   2.392   7.843  0.6225 -0.3037 -0.0973
   79CHL1  H12A 8284   1.945   2.366   7.873  0.0506  0.4451 -1.4306
   79CHL1  H12B 8285   2.047   2.503   7.849  1.0231 -0.2353 -1.1961
   79CHL1   C11 8286   2.079   2.356   7.697 -0.1851  0.2635  0.1161
   79CHL1  H11A 8287   2.063   2.247   7.683  0.4191 -0.0340  1.6250
   79CHL1  H11B 8288   2.003   2.402   7.631  0.0248 -0.8275 -0.9077
   79CHL1    C9 8289   2.229   2.390   7.661 -0.3031 -0.0612 -0.2454
   79CHL1    H9 8290   2.229   2.501   7.655 -0.7943  0.2878  4.2730
   79CHL1   C10 8291   2.275   2.365   7.511  1.2112  0.2311  0.3762
   79CHL1   C19 8292   2.236   2.221   7.486  0.1062  0.3701 -0.9321
   79CHL1  H19A 8293   2.259   2.151   7.568 -3.8751 -0.2201 -0.2060
   79CHL1  H19B 8294   2.126   2.213   7.474  0.0875 -1.5581  0.3383
   79CHL1  H19C 8295   2.266   2.185   7.386  0.1871  0.0195 -0.7817
   79CHL1    C1 8296   2.190   2.466   7.413 -0.3841  0.3482  0.0371
   79CHL1   H1A 8297   2.087   2.425   7.409 -1.2459  2.2568  1.4649
   79CHL1   H1B 8298   2.196   2.574   7.440  2.6682  0.3891 -0.5730
   79CHL1    C2 8299   2.234   2.460   7.264 -0.9473 -0.1767 -0.0240
   79CHL1   H2A 8300   2.178   2.541   7.213  0.9790  2.4937  1.9625
   79CHL1   H2B 8301   2.204   2.360   7.227  1.1824 -1.2517  1.0244
   79CHL1   C20 8302   2.036   2.321   8.181 -0.0967 -0.8963  0.1363
   79CHL1   H20 8303   2.042   2.211   8.189 -1.8237 -1.0303 -0.1829
   79CHL1   C21 8304   1.895   2.347   8.129  0.1046  0.4289  0.2931
   79CHL1  H21A 8305   1.872   2.288   8.038  1.5260 -0.9498  0.8059
   79CHL1  H21B 8306   1.887   2.456   8.106 -1.8961 -0.0847 -1.6073
   79CHL1  H21C 8307   1.819   2.329   8.208  1.4100  0.1924  1.5102
   79CHL1   C22 8308   2.058   2.376   8.330  0.9500  0.8266 -0.4692
   79CHL1  H22A 8309   2.152   2.340   8.379  0.6647 -1.4352 -1.5441
   79CHL1  H22B 8310   2.073   2.486   8.338  0.2290  0.9295 -0.4856
   79CHL1   C23 8311   1.945   2.332   8.426  0.1873  1.0518  0.7686
   79CHL1  H23A 8312   1.853   2.388   8.400  0.6519  2.2102  1.5629
   79CHL1  H23B 8313   1.927   2.224   8.409  2.9540  0.4248  1.4608
   79CHL1   C24 8314   1.988   2.354   8.576  0.1462  0.4373 -0.4903
   79CHL1  H24A 8315   2.092   2.316   8.576  0.2606  0.7243  1.1314
   79CHL1  H24B 8316   1.983   2.462   8.602  1.2765  0.6885 -1.3106
   79CHL1   C25 8317   1.891   2.285   8.677  0.2509  0.4466  0.6136
   79CHL1   H25 8318   1.785   2.294   8.646  0.4430 -0.5239 -0.3452
   79CHL1   C26 8319   1.923   2.136   8.695 -0.0089  0.2332  0.3037
   79CHL1  H26A 8320   2.029   2.114   8.721  0.5743  1.3398 -1.1181
   79CHL1  H26B 8321   1.851   2.090   8.766 -0.7433 -0.6567 -0.9905
   79CHL1  H26C 8322   1.914   2.081   8.599  1.0615 -0.5939  0.6617
   79CHL1   C27 8323   1.895   2.355   8.812 -0.1179 -0.4518 -0.0994
   79CHL1  H27A 8324   1.826   2.309   8.886 -0.7694  1.1800  0.3246
   79CHL1  H27B 8325   2.000   2.355   8.848 -0.2805  3.0890  0.6013
   79CHL1  H27C 8326   1.869   2.462   8.798  0.0574 -0.4891 -0.7381
   80CHL1    C3 8327   0.387   6.417   7.182  0.2903  0.3194  0.3005
   80CHL1    H3 8328   0.323   6.495   7.228  1.1078  1.4025 -0.3693
   80CHL1    O3 8329   0.407   6.436   7.039  0.3106  0.3445  0.3547
   80CHL1   H3' 8330   0.359   6.359   7.008  2.5925 -2.4684  3.4284
   80CHL1    C4 8331   0.525   6.439   7.257 -0.2240 -0.5434 -0.5730
   80CHL1   H4A 8332   0.605   6.383   7.203  1.6518  0.7906  0.7489
   80CHL1   H4B 8333   0.544   6.547   7.239 -0.9285 -0.5562 -1.4789
   80CHL1    C5 8334   0.517   6.407   7.408 -0.1292 -0.2304 -0.5348
   80CHL1    C6 8335   0.551   6.502   7.497  0.4712 -0.2327  0.2272
   80CHL1    H6 8336   0.566   6.603   7.456  0.7365  0.4185  1.8843
   80CHL1    C7 8337   0.563   6.470   7.640 -0.2859  0.0595  0.7336
   80CHL1   H7A 8338   0.658   6.504   7.686 -0.3771  1.3460 -0.0274
   80CHL1   H7B 8339   0.481   6.516   7.700 -1.3010  0.8350 -1.2121
   80CHL1    C8 8340   0.543   6.323   7.676 -0.2121  0.5132 -0.8568
   80CHL1    H8 8341   0.636   6.268   7.655  0.6786  1.8079 -0.3717
   80CHL1   C14 8342   0.502   6.316   7.822 -0.2496  0.7786  0.4263
   80CHL1   H14 8343   0.399   6.359   7.822 -0.1864  0.9718  1.6477
   80CHL1   C15 8344   0.583   6.388   7.940 -0.8458 -0.6312  0.8286
   80CHL1  H15A 8345   0.694   6.382   7.944 -0.8401 -2.2405 -0.7549
   80CHL1  H15B 8346   0.571   6.498   7.933 -2.0201 -0.8129 -0.1896
   80CHL1   C16 8347   0.524   6.323   8.066  0.1590 -0.1619  0.3145
   80CHL1  H16A 8348   0.605   6.307   8.141  1.4297  0.0684 -0.9809
   80CHL1  H16B 8349   0.455   6.396   8.114 -0.0468  0.5396 -1.0142
   80CHL1   C17 8350   0.442   6.200   8.020 -0.4599  0.3489  0.2327
   80CHL1   H17 8351   0.338   6.237   8.006  0.1372  2.0803  0.1415
   80CHL1   C13 8352   0.482   6.174   7.876  1.0829 -0.8325 -0.0995
   80CHL1   C18 8353   0.625   6.102   7.876  0.2319  0.2992  0.0475
   80CHL1  H18A 8354   0.699   6.139   7.950 -0.0859 -0.5129  0.7735
   80CHL1  H18B 8355   0.604   5.998   7.910  1.0504  0.6133  1.5616
   80CHL1  H18C 8356   0.670   6.102   7.774  1.0263 -0.1746  0.3925
   80CHL1   C12 8357   0.375   6.097   7.789  0.2662 -0.5558 -0.4048
   80CHL1  H12A 8358   0.361   5.992   7.822  1.6344 -0.4105  0.6560
   80CHL1  H12B 8359   0.278   6.150   7.804  0.2003 -0.4088 -1.3030
   80CHL1   C11 8360   0.409   6.097   7.633  0.0643 -0.1879 -0.1623
   80CHL1  H11A 8361   0.503   6.039   7.625  0.1141 -0.0115 -0.9343
   80CHL1  H11B 8362   0.328   6.046   7.576  1.9584 -0.5098 -2.6746
   80CHL1    C9 8363   0.432   6.244   7.591 -0.2667  0.2134  0.2830
   80CHL1    H9 8364   0.332   6.288   7.608  0.0541  0.3161  1.9769
   80CHL1   C10 8365   0.462   6.267   7.436  0.0208  0.8215  0.4663
   80CHL1   C19 8366   0.559   6.161   7.383  0.0290  0.0778  0.2177
   80CHL1  H19A 8367   0.525   6.056   7.395 -0.8055  0.5125  1.9137
   80CHL1  H19B 8368   0.570   6.171   7.273  2.9467  0.0547  0.4505
   80CHL1  H19C 8369   0.661   6.158   7.429 -0.7654 -2.0765  1.9068
   80CHL1    C1 8370   0.331   6.252   7.356 -0.2750  0.0189 -0.6648
   80CHL1   H1A 8371   0.299   6.148   7.376 -1.1568  0.1602 -1.3027
   80CHL1   H1B 8372   0.260   6.325   7.402  0.0570 -0.6559  0.9503
   80CHL1    C2 8373   0.334   6.274   7.203  0.1388 -0.1703  0.2382
   80CHL1   H2A 8374   0.232   6.258   7.160  1.2319 -2.1768 -1.6761
   80CHL1   H2B 8375   0.411   6.212   7.153 -1.7894 -2.5371  0.0842
   80CHL1   C20 8376   0.426   6.083   8.119  0.0601 -0.4102  0.2127
   80CHL1   H20 8377   0.386   5.998   8.060  1.1977  1.4042 -3.2689
   80CHL1   C21 8378   0.319   6.120   8.221  1.3431 -0.4394  0.2524
   80CHL1  H21A 8379   0.345   6.212   8.279  2.1465 -0.8382  0.5284
   80CHL1  H21B 8380   0.305   6.041   8.297 -2.1305  0.3253  0.4925
   80CHL1  H21C 8381   0.222   6.139   8.170  2.0896 -1.0462 -1.4427
   80CHL1   C22 8382   0.551   6.035   8.196  0.2058 -0.2847 -0.0584
   80CHL1  H22A 8383   0.635   6.034   8.123 -1.0404  0.8113 -1.5252
   80CHL1  H22B 8384   0.573   6.106   8.277  2.7943 -0.1044 -0.8662
   80CHL1   C23 8385   0.540   5.897   8.259  0.2151 -0.2721 -0.3211
   80CHL1  H23A 8386   0.474   5.908   8.347  1.4987 -2.1193  0.9131
   80CHL1  H23B 8387   0.501   5.829   8.180  0.7903 -2.1308  0.9683
   80CHL1   C24 8388   0.669   5.849   8.303 -0.5897 -0.2977 -0.3944
   80CHL1  H24A 8389   0.734   5.820   8.218 -2.6305  0.2888 -2.1837
   80CHL1  H24B 8390   0.725   5.928   8.357  0.0107 -1.6605  1.0365
   80CHL1   C25 8391   0.664   5.727   8.400  0.6240 -0.7813  0.2795
   80CHL1   H25 8392   0.617   5.757   8.496 -0.5597 -0.8568 -0.2740
   80CHL1   C26 8393   0.570   5.619   8.346 -0.0696  0.4835 -0.1232
   80CHL1  H26A 8394   0.587   5.604   8.237  1.2479 -0.8233  0.2455
   80CHL1  H26B 8395   0.572   5.516   8.388  1.6588 -0.0968 -1.5532
   80CHL1  H26C 8396   0.467   5.659   8.355 -0.9691 -1.3971 -1.6538
   80CHL1   C27 8397   0.803   5.673   8.430 -0.7987 -0.0543  0.1475
   80CHL1  H27A 8398   0.861   5.758   8.472 -1.2254 -0.2987  1.2793
   80CHL1  H27B 8399   0.795   5.593   8.507  0.6237  0.6283  1.0083
   80CHL1  H27C 8400   0.859   5.647   8.338 -2.1492  2.9830 -1.6093
   81CHL1    C3 8401   4.539   6.403   6.610 -0.3171  0.1384 -1.0555
   81CHL1    H3 8402   4.601   6.493   6.589  0.9861 -0.7187 -0.9146
   81CHL1    O3 8403   4.527   6.328   6.486 -0.1605 -0.0476 -0.9705
   81CHL1   H3' 8404   4.473   6.251   6.502 -3.2015  2.0144 -0.9282
   81CHL1    C4 8405   4.607   6.319   6.723  0.4846 -0.4351  0.4363
   81CHL1   H4A 8406   4.570   6.214   6.729 -1.1628  0.1120  0.2296
   81CHL1   H4B 8407   4.714   6.318   6.692 -0.1085 -0.4195 -1.7240
   81CHL1    C5 8408   4.598   6.389   6.855  0.0897 -0.1424  0.3089
   81CHL1    C6 8409   4.703   6.417   6.933  0.6657  0.1816  0.3884
   81CHL1    H6 8410   4.803   6.391   6.895  1.8010  4.4856  0.1628
   81CHL1    C7 8411   4.706   6.477   7.069  1.1042  0.5282 -0.5148
   81CHL1   H7A 8412   4.774   6.418   7.133  0.4431  0.4060  0.0787
   81CHL1   H7B 8413   4.754   6.578   7.066  0.8746  0.6783  0.5952
   81CHL1    C8 8414   4.564   6.477   7.130 -0.0354 -0.3792  0.4075
   81CHL1    H8 8415   4.546   6.371   7.156  1.8890 -1.0114 -0.7520
   81CHL1   C14 8416   4.560   6.577   7.254  0.2596  0.2708  0.0367
   81CHL1   H14 8417   4.569   6.681   7.217 -1.7727  0.5530  0.2881
   81CHL1   C15 8418   4.670   6.562   7.367  0.0058  0.3291  0.1934
   81CHL1  H15A 8419   4.677   6.452   7.373  1.3808  0.4527  1.1024
   81CHL1  H15B 8420   4.774   6.595   7.343 -0.5277  1.7287 -0.2761
   81CHL1   C16 8421   4.611   6.639   7.490  0.1167 -0.3068 -0.0867
   81CHL1  H16A 8422   4.621   6.571   7.577 -1.5308 -0.2592  0.1410
   81CHL1  H16B 8423   4.675   6.729   7.508  0.2611 -0.7295  1.5682
   81CHL1   C17 8424   4.464   6.679   7.448 -0.1212 -0.3679 -0.6063
   81CHL1   H17 8425   4.476   6.780   7.404 -1.1421 -0.2998 -0.7342
   81CHL1   C13 8426   4.423   6.580   7.329 -0.2289  0.3069 -0.0840
   81CHL1   C18 8427   4.396   6.440   7.399 -0.9536 -0.7102 -0.1826
   81CHL1  H18A 8428   4.472   6.407   7.474  0.1789  0.5445 -0.7462
   81CHL1  H18B 8429   4.295   6.457   7.441 -0.3726  1.0467  0.5676
   81CHL1  H18C 8430   4.388   6.363   7.321 -3.1030 -0.1202 -0.5829
   81CHL1   C12 8431   4.325   6.625   7.220 -0.6110 -0.1182 -0.6874
   81CHL1  H12A 8432   4.223   6.625   7.264 -0.4932 -0.0850 -0.4135
   81CHL1  H12B 8433   4.345   6.729   7.185  1.7028  0.4743  2.2559
   81CHL1   C11 8434   4.318   6.536   7.094 -0.2063  0.0188 -0.2596
   81CHL1  H11A 8435   4.274   6.440   7.124 -0.7913  0.8790  1.6885
   81CHL1  H11B 8436   4.242   6.576   7.023 -2.5542 -1.4465  1.3698
   81CHL1    C9 8437   4.457   6.516   7.024 -0.1215 -0.1229  0.6276
   81CHL1    H9 8438   4.475   6.621   6.990  0.5053 -0.2702  0.5035
   81CHL1   C10 8439   4.455   6.428   6.896 -0.0046 -0.0324 -0.1406
   81CHL1   C19 8440   4.377   6.299   6.926 -1.2201 -0.1789  0.3994
   81CHL1  H19A 8441   4.270   6.315   6.954 -1.1418  1.2970 -0.0748
   81CHL1  H19B 8442   4.377   6.232   6.837  0.8020 -0.1106  0.3338
   81CHL1  H19C 8443   4.417   6.230   7.003  0.3417  1.1467  0.8143
   81CHL1    C1 8444   4.390   6.509   6.780  0.6943  0.0195 -0.2412
   81CHL1   H1A 8445   4.284   6.530   6.805  0.8840  0.7425 -0.0331
   81CHL1   H1B 8446   4.442   6.607   6.773  1.9541 -0.5787  0.6015
   81CHL1    C2 8447   4.395   6.436   6.641  0.1661  0.6599  0.1591
   81CHL1   H2A 8448   4.356   6.499   6.558  0.8936 -0.3897 -0.9928
   81CHL1   H2B 8449   4.341   6.340   6.647 -1.7482  1.6529 -0.7610
   81CHL1   C20 8450   4.372   6.685   7.574  0.2306  0.1536 -0.0514
   81CHL1   H20 8451   4.364   6.586   7.625 -1.9771 -0.5700 -1.7722
   81CHL1   C21 8452   4.232   6.735   7.529 -0.5810 -0.3390  0.9355
   81CHL1  H21A 8453   4.248   6.841   7.499  0.5706 -0.4201  1.2193
   81CHL1  H21B 8454   4.163   6.732   7.616 -0.2001  0.5064  1.2745
   81CHL1  H21C 8455   4.195   6.664   7.452  1.4731  0.6285 -1.0088
   81CHL1   C22 8456   4.430   6.781   7.685  0.1090  0.0844 -0.4557
   81CHL1  H22A 8457   4.523   6.742   7.731 -0.6523 -0.3971  0.6823
   81CHL1  H22B 8458   4.460   6.881   7.646  0.6035  0.1481  0.0890
   81CHL1   C23 8459   4.337   6.804   7.797  1.0568  0.7728 -0.8175
   81CHL1  H23A 8460   4.243   6.846   7.756  0.0629  1.8564  2.3669
   81CHL1  H23B 8461   4.316   6.710   7.853  1.2079  1.0959 -0.2152
   81CHL1   C24 8462   4.398   6.918   7.889 -0.3494 -0.0449  0.1751
   81CHL1  H24A 8463   4.469   6.866   7.957  1.7253  1.3065 -0.9111
   81CHL1  H24B 8464   4.460   6.988   7.829 -0.7017 -1.5897 -2.0556
   81CHL1   C25 8465   4.301   7.017   7.957 -0.1134  0.2684 -0.0099
   81CHL1   H25 8466   4.251   7.069   7.872 -0.4029  1.1229  0.6787
   81CHL1   C26 8467   4.212   6.942   8.051  0.5830 -0.0744 -0.1947
   81CHL1  H26A 8468   4.277   6.878   8.114  0.6796  1.3015  1.1105
   81CHL1  H26B 8469   4.154   7.003   8.124  0.5486 -0.3248 -0.0143
   81CHL1  H26C 8470   4.137   6.883   7.993 -0.3047  1.1051 -0.2581
   81CHL1   C27 8471   4.366   7.141   8.030  0.8799  0.2561  0.2391
   81CHL1  H27A 8472   4.454   7.105   8.087  0.9586  2.0782  1.2896
   81CHL1  H27B 8473   4.395   7.211   7.949  0.4501 -1.9362 -1.8962
   81CHL1  H27C 8474   4.284   7.196   8.081  0.4846  1.0923 -1.2811
   82CHL1    C3 8475   6.331   0.659   6.860 -0.2682  0.0402 -0.7819
   82CHL1    H3 8476   6.243   0.720   6.889  0.6857  0.2647  1.8049
   82CHL1    O3 8477   6.360   0.686   6.729  0.2191  0.3352 -0.4942
   82CHL1   H3' 8478   6.397   0.609   6.685  0.4348  0.1859 -0.0470
   82CHL1    C4 8479   6.462   0.691   6.937  0.0297 -0.1794  0.2746
   82CHL1   H4A 8480   6.548   0.630   6.903  1.4332  2.4449 -1.0176
   82CHL1   H4B 8481   6.497   0.794   6.914  0.0470 -1.0314 -3.9340
   82CHL1    C5 8482   6.440   0.660   7.079  0.3761  0.3121 -0.1928
   82CHL1    C6 8483   6.457   0.759   7.172 -0.3344 -0.6606 -0.2040
   82CHL1    H6 8484   6.501   0.854   7.138 -0.1125 -0.8594 -0.4691
   82CHL1    C7 8485   6.453   0.740   7.326  0.2118  0.6090  0.2986
   82CHL1   H7A 8486   6.536   0.788   7.382  0.7745 -2.5987  2.2971
   82CHL1   H7B 8487   6.357   0.779   7.364 -0.9033  0.1764 -1.9695
   82CHL1    C8 8488   6.464   0.584   7.358  0.0181 -1.0703  0.1857
   82CHL1    H8 8489   6.569   0.549   7.350  0.5202 -0.2402  2.6254
   82CHL1   C14 8490   6.414   0.558   7.499 -0.2008 -0.7727  0.4285
   82CHL1   H14 8491   6.310   0.596   7.509  0.2057  0.0202  1.8517
   82CHL1   C15 8492   6.482   0.637   7.611 -0.4556 -0.0960 -0.2735
   82CHL1  H15A 8493   6.593   0.631   7.602 -0.5760 -0.2461 -1.7429
   82CHL1  H15B 8494   6.446   0.742   7.601 -1.2799 -0.2572  0.8866
   82CHL1   C16 8495   6.436   0.566   7.731  0.9238  1.0105  0.4901
   82CHL1  H16A 8496   6.514   0.533   7.802  0.2497 -0.9693  0.3603
   82CHL1  H16B 8497   6.361   0.628   7.785 -0.6473  1.0363 -1.6500
   82CHL1   C17 8498   6.353   0.435   7.684  0.1128  0.4284  0.7329
   82CHL1   H17 8499   6.250   0.472   7.664  0.3028  0.3272 -0.4512
   82CHL1   C13 8500   6.401   0.410   7.545  0.6710 -0.0593  0.2406
   82CHL1   C18 8501   6.535   0.343   7.542  0.1446 -1.2597 -0.1402
   82CHL1  H18A 8502   6.527   0.234   7.558  0.8855 -1.3884 -0.6145
   82CHL1  H18B 8503   6.586   0.362   7.444  0.2999  0.1240  0.1996
   82CHL1  H18C 8504   6.604   0.384   7.618  1.0862 -1.5204 -0.8338
   82CHL1   C12 8505   6.311   0.343   7.448  0.1406 -0.2032 -0.1901
   82CHL1  H12A 8506   6.301   0.235   7.474  0.1691  0.4591  2.7864
   82CHL1  H12B 8507   6.212   0.394   7.441 -0.8080 -2.1474 -1.6576
   82CHL1   C11 8508   6.347   0.362   7.305 -0.2746 -0.2815  0.3829
   82CHL1  H11A 8509   6.439   0.301   7.293 -0.2027  0.1958 -1.6523
   82CHL1  H11B 8510   6.267   0.311   7.248 -1.5966 -0.1026  2.0339
   82CHL1    C9 8511   6.366   0.509   7.265 -0.0869  1.2936  0.2797
   82CHL1    H9 8512   6.266   0.557   7.276 -0.8989 -0.3997  0.4397
   82CHL1   C10 8513   6.398   0.520   7.113  0.7156 -0.6376 -0.4770
   82CHL1   C19 8514   6.528   0.432   7.085  0.1105  0.3589  0.7498
   82CHL1  H19A 8515   6.621   0.482   7.118  1.2602 -1.4681  0.3611
   82CHL1  H19B 8516   6.518   0.330   7.128  2.6036 -0.2249  0.0155
   82CHL1  H19C 8517   6.531   0.408   6.976  1.7148 -1.7048  1.2248
   82CHL1    C1 8518   6.276   0.487   7.024  0.2860 -0.2802  0.4048
   82CHL1   H1A 8519   6.243   0.381   7.033 -0.4231 -0.4184 -3.0749
   82CHL1   H1B 8520   6.192   0.554   7.050  0.0246 -0.7871  0.8746
   82CHL1    C2 8521   6.292   0.514   6.873 -0.2553 -0.0113 -0.3625
   82CHL1   H2A 8522   6.200   0.485   6.818 -1.2294 -1.2755  1.8377
   82CHL1   H2B 8523   6.368   0.445   6.832 -0.0515  0.9466 -1.6191
   82CHL1   C20 8524   6.347   0.319   7.782  0.4689  0.3518  0.1474
   82CHL1   H20 8525   6.449   0.276   7.793 -0.7687 -2.1156  2.6443
   82CHL1   C21 8526   6.256   0.215   7.723 -0.4457 -0.0474 -0.3556
   82CHL1  H21A 8527   6.158   0.252   7.685 -0.4299  0.7311  0.3413
   82CHL1  H21B 8528   6.234   0.132   7.793  0.7060 -0.2582 -0.2366
   82CHL1  H21C 8529   6.294   0.156   7.637 -1.6214  1.1015 -1.6987
   82CHL1   C22 8530   6.294   0.362   7.918 -0.1650 -0.2552  0.1808
   82CHL1  H22A 8531   6.363   0.443   7.952  0.2049 -0.0087 -1.1237
   82CHL1  H22B 8532   6.190   0.399   7.915 -0.4841 -1.1875 -0.6668
   82CHL1   C23 8533   6.328   0.256   8.022  0.6041  0.0380 -0.3451
   82CHL1  H23A 8534   6.252   0.176   8.021 -1.7176  2.1756  0.2046
   82CHL1  H23B 8535   6.430   0.216   8.002  0.8300 -0.4211  1.6343
   82CHL1   C24 8536   6.320   0.323   8.161  0.4871  0.1686 -0.3742
   82CHL1  H24A 8537   6.402   0.397   8.158  0.7725 -0.1674 -0.8944
   82CHL1  H24B 8538   6.241   0.401   8.169  0.5308  0.4708 -2.6122
   82CHL1   C25 8539   6.345   0.244   8.294  0.2050  0.0140 -0.3466
   82CHL1   H25 8540   6.434   0.177   8.288 -0.1300 -0.3721 -1.0553
   82CHL1   C26 8541   6.380   0.339   8.410 -0.2699  0.4447  0.5604
   82CHL1  H26A 8542   6.302   0.417   8.418 -1.1595 -0.1220 -2.0071
   82CHL1  H26B 8543   6.375   0.284   8.507  0.3285 -2.5415 -1.0341
   82CHL1  H26C 8544   6.479   0.388   8.399  0.0491  0.6272  3.8435
   82CHL1   C27 8545   6.230   0.152   8.343 -1.0070 -0.6276  0.1483
   82CHL1  H27A 8546   6.186   0.087   8.265 -2.3170 -3.3877  3.0910
   82CHL1  H27B 8547   6.268   0.082   8.421  0.0311 -0.8412 -0.5361
   82CHL1  H27C 8548   6.155   0.204   8.406 -0.5304  0.4573 -0.1579
   83CHL1    C3 8549   1.844   2.072   6.765 -0.4422 -0.5584  0.0004
   83CHL1    H3 8550   1.839   2.179   6.794 -1.8353 -1.1676  2.0853
   83CHL1    O3 8551   1.862   2.066   6.623 -0.4457 -0.1060  0.2759
   83CHL1   H3' 8552   1.809   1.993   6.589  1.2358  0.1930 -3.1926
   83CHL1    C4 8553   1.966   2.001   6.833  0.4552  0.2093 -0.4283
   83CHL1   H4A 8554   1.981   1.899   6.791  0.7289  0.3067 -0.5702
   83CHL1   H4B 8555   2.059   2.057   6.809  1.2340  0.3167  2.6071
   83CHL1    C5 8556   1.940   1.985   6.984  0.3850 -0.1739  0.4823
   83CHL1    C6 8557   2.033   2.045   7.063 -0.4421 -0.0841  0.0706
   83CHL1    H6 8558   2.127   2.081   7.019  1.1867 -1.7872  2.0374
   83CHL1    C7 8559   2.030   2.034   7.215 -0.6929 -0.3238 -0.7911
   83CHL1   H7A 8560   2.135   2.021   7.250  0.2046  2.3841 -2.3465
   83CHL1   H7B 8561   2.000   2.133   7.256 -1.0154 -0.3634 -0.9300
   83CHL1    C8 8562   1.933   1.922   7.265  0.5519 -0.6851  0.1084
   83CHL1    H8 8563   1.966   1.818   7.244 -1.5636 -1.5563  0.9473
   83CHL1   C14 8564   1.908   1.933   7.414  0.2464 -0.5919 -0.0299
   83CHL1   H14 8565   1.884   2.042   7.421  0.5223 -0.4394 -1.2813
   83CHL1   C15 8566   2.027   1.907   7.502  0.2984 -0.5003 -0.1689
   83CHL1  H15A 8567   2.080   1.810   7.488  1.2382 -0.2789  1.6715
   83CHL1  H15B 8568   2.108   1.983   7.498 -0.5189  0.4033  0.2483
   83CHL1   C16 8569   1.968   1.904   7.648  0.1644  0.1731  0.3911
   83CHL1  H16A 8570   2.017   1.831   7.715  1.1941 -0.2695 -0.8133
   83CHL1  H16B 8571   1.983   2.002   7.698 -1.0232  0.5014  0.1256
   83CHL1   C17 8572   1.812   1.879   7.628 -0.2651 -0.1203  0.1710
   83CHL1   H17 8573   1.770   1.977   7.657 -0.4147  0.4718 -1.9758
   83CHL1   C13 8574   1.799   1.845   7.473  0.1480 -0.7051 -0.0730
   83CHL1   C18 8575   1.828   1.698   7.445 -0.0308  0.2092 -0.4052
   83CHL1  H18A 8576   1.911   1.657   7.506 -1.2435 -0.2915  0.9293
   83CHL1  H18B 8577   1.739   1.636   7.469 -0.8430  1.3261 -0.4884
   83CHL1  H18C 8578   1.850   1.663   7.342  2.1866 -0.5350  0.2942
   83CHL1   C12 8579   1.666   1.885   7.400 -0.0035  0.3058 -0.8255
   83CHL1  H12A 8580   1.573   1.833   7.431  0.0244  0.3573 -0.6554
   83CHL1  H12B 8581   1.647   1.992   7.422  1.6463  0.4565 -0.0554
   83CHL1   C11 8582   1.675   1.870   7.245 -0.7706 -0.6699 -0.6664
   83CHL1  H11A 8583   1.682   1.761   7.222 -1.9263 -0.5423 -1.6681
   83CHL1  H11B 8584   1.582   1.910   7.201 -0.0758  0.0213 -1.5265
   83CHL1    C9 8585   1.798   1.943   7.186  0.6187 -0.0135  0.3271
   83CHL1    H9 8586   1.769   2.049   7.202 -0.4567 -0.2982  0.2642
   83CHL1   C10 8587   1.813   1.923   7.030 -1.0463 -0.6453  0.4754
   83CHL1   C19 8588   1.808   1.772   6.987  0.2918  0.3990  0.7384
   83CHL1  H19A 8589   1.714   1.717   7.009  0.5240 -1.5523 -2.8375
   83CHL1  H19B 8590   1.825   1.765   6.878 -1.5628 -0.8672  0.5210
   83CHL1  H19C 8591   1.898   1.723   7.029  0.1179 -1.6163 -1.1770
   83CHL1    C1 8592   1.697   1.993   6.961  0.3991  0.0381  0.0806
   83CHL1   H1A 8593   1.614   1.920   6.976 -0.4741  0.5725 -2.0286
   83CHL1   H1B 8594   1.669   2.090   7.008  1.9651 -0.1126  1.3930
   83CHL1    C2 8595   1.713   2.004   6.807 -0.0163 -0.7215 -0.2030
   83CHL1   H2A 8596   1.627   2.051   6.754 -0.6501 -4.2603 -2.4209
   83CHL1   H2B 8597   1.705   1.904   6.761 -0.6248 -0.1052 -1.4809
   83CHL1   C20 8598   1.744   1.783   7.727 -0.4164 -0.2598 -0.3279
   83CHL1   H20 8599   1.781   1.681   7.704  0.0926  0.3734 -2.3622
   83CHL1   C21 8600   1.594   1.795   7.709  0.0184  0.2941  0.0389
   83CHL1  H21A 8601   1.574   1.887   7.651  1.2450  1.3519  1.2415
   83CHL1  H21B 8602   1.545   1.797   7.809 -1.3809 -2.4605 -0.5642
   83CHL1  H21C 8603   1.548   1.705   7.663  0.1989  2.0307 -3.6879
   83CHL1   C22 8604   1.787   1.793   7.873 -0.8098 -0.1504 -0.3417
   83CHL1  H22A 8605   1.731   1.715   7.929  2.0120 -2.2083 -0.2515
   83CHL1  H22B 8606   1.895   1.765   7.872 -0.5304  0.8051  2.0960
   83CHL1   C23 8607   1.778   1.934   7.935 -0.1871 -0.0263  0.4710
   83CHL1  H23A 8608   1.869   1.990   7.904  0.4971 -1.9702 -1.1093
   83CHL1  H23B 8609   1.687   1.990   7.904 -0.2825 -0.7494 -0.5647
   83CHL1   C24 8610   1.780   1.943   8.091 -0.0396 -0.1171 -0.1926
   83CHL1  H24A 8611   1.869   1.889   8.129 -0.5751 -2.8135 -2.6088
   83CHL1  H24B 8612   1.805   2.048   8.120 -0.9363  0.0714 -0.0789
   83CHL1   C25 8613   1.647   1.902   8.152 -0.0698 -0.1626  0.2829
   83CHL1   H25 8614   1.571   1.942   8.082 -1.1835 -2.1289  0.3574
   83CHL1   C26 8615   1.633   1.753   8.176 -0.4321  0.1050  0.3430
   83CHL1  H26A 8616   1.618   1.699   8.080 -0.3768 -1.7834  1.3707
   83CHL1  H26B 8617   1.719   1.708   8.232  0.4758  0.3869 -0.7988
   83CHL1  H26C 8618   1.546   1.727   8.240 -0.6499 -0.4809 -0.1816
   83CHL1   C27 8619   1.636   1.966   8.291  0.4876  0.7301  0.3484
   83CHL1  H27A 8620   1.538   1.948   8.341  1.0430  1.3283  1.6726
   83CHL1  H27B 8621   1.707   1.923   8.365  2.9804 -0.7068 -2.7641
   83CHL1  H27C 8622   1.643   2.077   8.283 -0.4040  0.8894  1.6030
   84CHL1    C3 8623   4.223   4.132   6.984  0.0197 -0.5313 -0.1233
   84CHL1    H3 8624   4.194   4.028   7.011 -0.2886 -0.1742  0.9683
   84CHL1    O3 8625   4.210   4.140   6.845  0.5864 -0.7644 -0.6176
   84CHL1   H3' 8626   4.239   4.229   6.827 -0.0503 -0.7731 -1.7589
   84CHL1    C4 8627   4.129   4.239   7.055  0.1008 -1.0867  0.2907
   84CHL1   H4A 8628   4.154   4.345   7.032 -1.7716 -0.9647 -1.3630
   84CHL1   H4B 8629   4.026   4.231   7.014 -0.2700  3.7388 -0.0059
   84CHL1    C5 8630   4.139   4.220   7.202 -0.4739 -0.0002 -0.7062
   84CHL1    C6 8631   4.023   4.207   7.267 -0.3752  0.6623  0.0348
   84CHL1    H6 8632   3.939   4.194   7.198  0.8563 -1.7630 -1.1025
   84CHL1    C7 8633   4.016   4.174   7.410 -0.2133  0.3155  0.3837
   84CHL1   H7A 8634   3.939   4.243   7.449  1.2740 -0.0804  4.2374
   84CHL1   H7B 8635   3.997   4.065   7.424 -1.4888  0.7137  2.0002
   84CHL1    C8 8636   4.154   4.208   7.482  0.8281  1.0722 -0.2977
   84CHL1    H8 8637   4.157   4.319   7.487  0.7536  1.0221  1.2620
   84CHL1   C14 8638   4.143   4.153   7.627 -0.1716  0.5102 -0.0895
   84CHL1   H14 8639   4.133   4.042   7.619  2.8244 -0.0343  2.7769
   84CHL1   C15 8640   4.024   4.200   7.720  0.0385  0.6009  0.1846
   84CHL1  H15A 8641   4.022   4.311   7.715  2.5433  0.6196 -1.3177
   84CHL1  H15B 8642   3.926   4.166   7.682 -1.1474  1.1380  2.6731
   84CHL1   C16 8643   4.072   4.171   7.860 -0.4305 -0.3031 -0.2667
   84CHL1  H16A 8644   4.072   4.270   7.911 -0.3917  0.1954 -1.2347
   84CHL1  H16B 8645   4.009   4.098   7.915  1.8407 -1.7950  0.4065
   84CHL1   C17 8646   4.222   4.115   7.851 -0.3437  0.6639  0.5542
   84CHL1   H17 8647   4.212   4.005   7.838 -0.3290  0.5777  1.2553
   84CHL1   C13 8648   4.268   4.172   7.719 -0.1304  0.3333 -0.0594
   84CHL1   C18 8649   4.290   4.320   7.736  0.5017 -0.2747 -0.0432
   84CHL1  H18A 8650   4.292   4.372   7.638  1.4974  0.5595  0.4182
   84CHL1  H18B 8651   4.207   4.369   7.792 -0.3668  0.5085 -1.9631
   84CHL1  H18C 8652   4.390   4.338   7.779  0.3090  3.6873 -1.1092
   84CHL1   C12 8653   4.383   4.095   7.645  0.3715 -0.0098  0.0888
   84CHL1  H12A 8654   4.480   4.100   7.698  0.3392  0.4465  0.1029
   84CHL1  H12B 8655   4.356   3.988   7.636 -1.8279  0.5319 -0.1930
   84CHL1   C11 8656   4.404   4.153   7.499 -0.0097 -0.3366  0.4376
   84CHL1  H11A 8657   4.442   4.256   7.512 -0.4860 -0.2616  1.2247
   84CHL1  H11B 8658   4.483   4.089   7.453  2.3839  1.4482  1.9738
   84CHL1    C9 8659   4.271   4.151   7.410 -0.1950  0.3681 -0.5723
   84CHL1    H9 8660   4.267   4.040   7.406  1.7737  0.0665  3.2158
   84CHL1   C10 8661   4.275   4.206   7.268  0.7755 -0.5600  0.0204
   84CHL1   C19 8662   4.341   4.349   7.280  0.3320 -0.7450 -0.1138
   84CHL1  H19A 8663   4.279   4.412   7.347  2.7335  1.6044 -0.0306
   84CHL1  H19B 8664   4.439   4.351   7.333 -0.0789 -1.7144  0.7172
   84CHL1  H19C 8665   4.359   4.404   7.186  1.3157 -2.8007 -1.1605
   84CHL1    C1 8666   4.376   4.120   7.185 -0.0905  0.3301 -0.0826
   84CHL1   H1A 8667   4.480   4.139   7.217  1.3428 -2.3373 -2.9679
   84CHL1   H1B 8668   4.353   4.015   7.212 -0.3770  0.2285 -0.6957
   84CHL1    C2 8669   4.370   4.138   7.033 -0.1406  0.0300  0.3863
   84CHL1   H2A 8670   4.430   4.060   6.981 -0.3860 -1.4120  2.2188
   84CHL1   H2B 8671   4.406   4.238   7.001 -0.2673 -0.5539 -1.6804
   84CHL1   C20 8672   4.309   4.132   7.974 -0.3370  0.6422  0.4635
   84CHL1   H20 8673   4.375   4.219   7.952  0.5207  0.0345  0.6196
   84CHL1   C21 8674   4.395   4.010   7.978  0.1904  0.6519 -0.1166
   84CHL1  H21A 8675   4.446   3.985   7.882  0.2489  0.1494  0.0428
   84CHL1  H21B 8676   4.333   3.919   7.992 -0.6212  1.1149 -0.6576
   84CHL1  H21C 8677   4.470   4.010   8.060  0.9831 -1.1325 -0.8162
   84CHL1   C22 8678   4.238   4.162   8.108  0.6733 -0.4837  0.2897
   84CHL1  H22A 8679   4.198   4.264   8.093  0.2428 -1.2062 -4.3891
   84CHL1  H22B 8680   4.162   4.083   8.123  0.9699 -0.5114  1.7581
   84CHL1   C23 8681   4.321   4.155   8.233 -0.3429  0.1033 -0.0136
   84CHL1  H23A 8682   4.348   4.048   8.245 -1.6432 -0.1172  0.9826
   84CHL1  H23B 8683   4.419   4.206   8.226  0.2650 -1.0583 -0.1369
   84CHL1   C24 8684   4.242   4.192   8.362  0.2998 -1.5948  0.2876
   84CHL1  H24A 8685   4.160   4.259   8.330 -0.0211 -0.7580  2.7199
   84CHL1  H24B 8686   4.204   4.093   8.395  0.7775 -1.7647  0.3343
   84CHL1   C25 8687   4.319   4.259   8.478 -0.7756  0.5464  0.0410
   84CHL1   H25 8688   4.372   4.350   8.441  0.9260  0.2428  1.6548
   84CHL1   C26 8689   4.220   4.297   8.592 -0.6784  0.1955  0.0521
   84CHL1  H26A 8690   4.272   4.345   8.678  1.8521  1.1946 -1.9488
   84CHL1  H26B 8691   4.140   4.371   8.569  0.2213  0.0200 -4.1920
   84CHL1  H26C 8692   4.171   4.205   8.629 -1.5607 -0.8489 -3.4897
   84CHL1   C27 8693   4.440   4.180   8.526  0.1889  0.2126  0.1353
   84CHL1  H27A 8694   4.402   4.084   8.568 -0.1149  0.7434  1.0812
   84CHL1  H27B 8695   4.515   4.161   8.446  1.8434  0.2153  1.6421
   84CHL1  H27C 8696   4.491   4.244   8.601 -1.4316  1.8044 -0.0835
   85CHL1    C3 8697   4.318   1.148   6.646  0.1116 -0.8997  0.0519
   85CHL1    H3 8698   4.379   1.057   6.666  2.3812  0.9413  1.9001
   85CHL1    O3 8699   4.334   1.162   6.503  0.2450 -0.0694  0.2015
   85CHL1   H3' 8700   4.280   1.235   6.472 -0.1238 -0.7034 -0.6676
   85CHL1    C4 8701   4.173   1.149   6.699 -0.4563  1.0958 -0.1083
   85CHL1   H4A 8702   4.101   1.224   6.659 -0.7353  1.1344  0.4570
   85CHL1   H4B 8703   4.130   1.057   6.656  1.2800 -0.9218  2.3320
   85CHL1    C5 8704   4.177   1.148   6.850 -0.5371  0.2177 -0.5861
   85CHL1    C6 8705   4.115   1.040   6.912 -0.3571  0.5147  0.2470
   85CHL1    H6 8706   4.056   0.967   6.856 -1.9966  2.0772 -0.0897
   85CHL1    C7 8707   4.108   1.043   7.059 -0.5879  0.3626  0.2745
   85CHL1   H7A 8708   4.003   1.015   7.084 -0.2125 -3.3346 -1.8171
   85CHL1   H7B 8709   4.177   0.969   7.106  0.0800  0.0008 -1.2439
   85CHL1    C8 8710   4.144   1.175   7.122 -0.4061  0.6178  0.2695
   85CHL1    H8 8711   4.071   1.257   7.102  0.7746  1.5555 -0.3447
   85CHL1   C14 8712   4.156   1.156   7.274  0.1084  0.1958  0.5006
   85CHL1   H14 8713   4.234   1.079   7.292  1.8710  2.2681  1.9170
   85CHL1   C15 8714   4.025   1.107   7.343  0.1614 -0.5368 -0.1130
   85CHL1  H15A 8715   3.932   1.159   7.310  0.7106  0.9326  0.6118
   85CHL1  H15B 8716   4.001   1.002   7.318 -0.1666 -0.2299 -1.1218
   85CHL1   C16 8717   4.049   1.137   7.493  0.1853  0.3928  0.7271
   85CHL1  H16A 8718   3.961   1.189   7.536 -0.0614 -0.9276  1.8569
   85CHL1  H16B 8719   4.052   1.038   7.544 -2.5561  0.2529  0.6748
   85CHL1   C17 8720   4.179   1.221   7.489 -0.2484 -0.5356  0.0726
   85CHL1   H17 8721   4.258   1.144   7.501  1.1721  0.2474 -3.4774
   85CHL1   C13 8722   4.194   1.281   7.353 -0.2112  0.2250  0.0989
   85CHL1   C18 8723   4.099   1.398   7.336  0.0999  0.1745 -0.4129
   85CHL1  H18A 8724   3.997   1.360   7.359  0.4949  0.4719  2.0342
   85CHL1  H18B 8725   4.117   1.480   7.409  1.5853 -1.3612  1.0022
   85CHL1  H18C 8726   4.090   1.441   7.234 -0.3446 -2.5085 -1.5397
   85CHL1   C12 8727   4.336   1.317   7.299 -0.5533  0.2846  0.5985
   85CHL1  H12A 8728   4.384   1.400   7.354 -0.9227 -0.0827  1.4855
   85CHL1  H12B 8729   4.403   1.231   7.320 -0.1118  0.5845  0.4217
   85CHL1   C11 8730   4.338   1.334   7.149 -0.3913  0.7497 -0.2782
   85CHL1  H11A 8731   4.289   1.433   7.136  2.1986  2.0298 -0.4903
   85CHL1  H11B 8732   4.437   1.360   7.107 -0.4933 -1.4174 -1.9326
   85CHL1    C9 8733   4.278   1.218   7.063 -0.1663 -0.1815  0.5967
   85CHL1    H9 8734   4.352   1.136   7.073 -2.3234 -1.9987  2.4899
   85CHL1   C10 8735   4.263   1.256   6.912 -0.5137  0.3309 -0.4072
   85CHL1   C19 8736   4.186   1.390   6.892 -0.3199  0.2979 -0.1627
   85CHL1  H19A 8737   4.228   1.477   6.948  1.5480 -0.3478 -0.5279
   85CHL1  H19B 8738   4.184   1.424   6.786 -1.2564 -0.6878 -0.4640
   85CHL1  H19C 8739   4.085   1.377   6.935  0.0184 -1.6988  0.0717
   85CHL1    C1 8740   4.406   1.262   6.852 -0.1294  0.6464 -0.0234
   85CHL1   H1A 8741   4.470   1.345   6.889  0.7964 -0.1192  0.1198
   85CHL1   H1B 8742   4.457   1.165   6.871 -2.6273 -0.8454 -0.8462
   85CHL1    C2 8743   4.403   1.270   6.701 -0.4813 -0.7923 -0.3423
   85CHL1   H2A 8744   4.501   1.266   6.650  1.3327  0.6331  2.9053
   85CHL1   H2B 8745   4.357   1.367   6.672  1.8056  1.0023  1.8531
   85CHL1   C20 8746   4.193   1.313   7.612  0.5197 -0.0735 -0.5764
   85CHL1   H20 8747   4.103   1.377   7.605  0.7684  0.2324 -0.9306
   85CHL1   C21 8748   4.324   1.396   7.609 -0.4394  0.3506 -0.1732
   85CHL1  H21A 8749   4.303   1.467   7.526  0.8465  0.2930 -0.5466
   85CHL1  H21B 8750   4.401   1.321   7.582 -0.1941  0.8495 -0.8856
   85CHL1  H21C 8751   4.350   1.447   7.704  0.3235  1.2872 -0.8841
   85CHL1   C22 8752   4.172   1.234   7.754 -0.6884  0.7644 -0.4404
   85CHL1  H22A 8753   4.072   1.188   7.737 -0.9533  0.8385  0.8538
   85CHL1  H22B 8754   4.256   1.162   7.761 -1.5582 -0.5189 -2.5922
   85CHL1   C23 8755   4.173   1.323   7.878 -0.3937  0.3559 -0.6539
   85CHL1  H23A 8756   4.269   1.378   7.883  0.2730 -0.9250  2.4064
   85CHL1  H23B 8757   4.096   1.403   7.873 -0.0558  0.5542 -2.8082
   85CHL1   C24 8758   4.166   1.245   8.003  0.0452 -0.3286 -0.6320
   85CHL1  H24A 8759   4.059   1.220   8.014 -1.2357  3.7152 -2.9672
   85CHL1  H24B 8760   4.222   1.150   7.985  0.0555 -0.5245  0.4054
   85CHL1   C25 8761   4.241   1.330   8.103 -0.5125  0.8579  0.6671
   85CHL1   H25 8762   4.201   1.433   8.091 -2.7835  0.0497  1.1339
   85CHL1   C26 8763   4.196   1.286   8.241  0.1110 -0.4834 -0.2690
   85CHL1  H26A 8764   4.207   1.177   8.258 -0.3221 -0.4999 -0.0789
   85CHL1  H26B 8765   4.262   1.327   8.321 -0.7148  0.2962  0.0091
   85CHL1  H26C 8766   4.094   1.317   8.272  0.9132  0.0718  1.9253
   85CHL1   C27 8767   4.392   1.305   8.105  0.4598 -0.1278  0.3614
   85CHL1  H27A 8768   4.439   1.347   8.196  0.2845 -0.7672  0.7511
   85CHL1  H27B 8769   4.411   1.196   8.113 -0.0031 -0.1383  1.5145
   85CHL1  H27C 8770   4.434   1.353   8.014  0.0027  0.3228  0.3797
   86CHL1    C3 8771   6.191   6.032   7.033  0.3697 -0.2270  0.0209
   86CHL1    H3 8772   6.099   6.093   7.023  0.6412  0.1534 -0.2043
   86CHL1    O3 8773   6.249   5.988   6.906  0.1547  0.4583  0.1123
   86CHL1   H3' 8774   6.175   5.945   6.863 -1.5813  3.5388 -0.1147
   86CHL1    C4 8775   6.298   6.107   7.116  0.0698  0.1756  0.6326
   86CHL1   H4A 8776   6.395   6.052   7.113  0.5971  1.1346  0.1445
   86CHL1   H4B 8777   6.323   6.206   7.072 -0.3895  0.5730  1.2590
   86CHL1    C5 8778   6.249   6.123   7.260  0.0048 -0.7223  0.3887
   86CHL1    C6 8779   6.235   6.242   7.328  0.4666 -0.1884  0.3102
   86CHL1    H6 8780   6.276   6.328   7.274  1.4556 -0.5560  0.4629
   86CHL1    C7 8781   6.186   6.268   7.469  0.4035  0.0584  0.1686
   86CHL1   H7A 8782   6.243   6.337   7.534  0.2171 -2.3113  2.9519
   86CHL1   H7B 8783   6.081   6.303   7.467  1.3858  3.2442  1.7334
   86CHL1    C8 8784   6.181   6.140   7.553  0.2193  0.1050 -0.4446
   86CHL1    H8 8785   6.284   6.101   7.573  0.7317  1.1645 -1.0169
   86CHL1   C14 8786   6.115   6.164   7.688  0.2543  0.2020  0.0573
   86CHL1   H14 8787   6.007   6.182   7.668  0.0917  0.6201  1.2548
   86CHL1   C15 8788   6.162   6.283   7.776 -0.2767 -0.3466  0.6553
   86CHL1  H15A 8789   6.272   6.279   7.760 -0.6222 -0.2711 -1.8085
   86CHL1  H15B 8790   6.119   6.380   7.744  2.1333  0.6155  0.2142
   86CHL1   C16 8791   6.114   6.248   7.913 -0.0082  0.5138  0.1703
   86CHL1  H16A 8792   6.204   6.237   7.978  0.1109  1.3904  0.1599
   86CHL1  H16B 8793   6.049   6.328   7.955 -0.7918  0.6307 -1.2113
   86CHL1   C17 8794   6.043   6.109   7.905 -0.3518 -1.0651  0.6575
   86CHL1   H17 8795   5.937   6.128   7.876 -0.7166  0.7264  2.9628
   86CHL1   C13 8796   6.110   6.049   7.778 -0.1833  0.4857 -1.0371
   86CHL1   C18 8797   6.253   6.002   7.818 -0.1107 -0.7444  0.4002
   86CHL1  H18A 8798   6.257   5.904   7.869  2.2641 -0.7731  0.2512
   86CHL1  H18B 8799   6.306   5.987   7.721  1.6830  1.1340  1.0537
   86CHL1  H18C 8800   6.313   6.068   7.884 -1.4645  1.1827 -0.2680
   86CHL1   C12 8801   6.026   5.941   7.704  0.5715 -0.2579 -0.6406
   86CHL1  H12A 8802   6.020   5.851   7.769 -0.1116  0.2374 -0.0079
   86CHL1  H12B 8803   5.926   5.983   7.681  0.3291 -0.1121  0.6340
   86CHL1   C11 8804   6.089   5.905   7.563 -0.5358  0.0941 -0.0772
   86CHL1  H11A 8805   6.184   5.852   7.584 -0.8232  0.3763  2.0851
   86CHL1  H11B 8806   6.020   5.838   7.507 -0.2649 -0.4569  0.2531
   86CHL1    C9 8807   6.117   6.029   7.477  0.4012 -0.5785  0.4465
   86CHL1    H9 8808   6.013   6.055   7.448  0.0077 -2.0050  0.5637
   86CHL1   C10 8809   6.191   6.000   7.339  0.7278 -0.4472  0.6710
   86CHL1   C19 8810   6.321   5.922   7.367  0.1904 -0.0421 -0.5513
   86CHL1  H19A 8811   6.299   5.824   7.415  0.9940  1.2834  2.6292
   86CHL1  H19B 8812   6.369   5.897   7.270  0.5015 -3.4791  0.4222
   86CHL1  H19C 8813   6.391   5.979   7.431  0.8419 -0.1815 -1.1229
   86CHL1    C1 8814   6.091   5.927   7.239 -0.1054 -0.3412 -0.7203
   86CHL1   H1A 8815   6.050   5.832   7.279  1.3230 -1.0587 -0.9069
   86CHL1   H1B 8816   6.004   5.995   7.234  1.0182  0.9881 -2.5531
   86CHL1    C2 8817   6.151   5.904   7.098  0.3716 -0.1379 -0.0525
   86CHL1   H2A 8818   6.078   5.832   7.054  0.0160  0.6321 -0.7355
   86CHL1   H2B 8819   6.238   5.836   7.107  0.1044 -0.4864 -0.0812
   86CHL1   C20 8820   6.048   6.034   8.029  0.2303  0.5668 -0.4826
   86CHL1   H20 8821   6.144   5.978   8.031  0.4048  0.8815  0.9886
   86CHL1   C21 8822   5.927   5.939   8.044 -0.1784  0.6645  0.6502
   86CHL1  H21A 8823   5.949   5.859   8.118 -1.7604  1.0074  1.5266
   86CHL1  H21B 8824   5.909   5.878   7.954 -1.0626  2.1087 -0.1692
   86CHL1  H21C 8825   5.835   5.994   8.076 -0.5110  0.2077  0.4829
   86CHL1   C22 8826   6.070   6.112   8.161  0.2128 -0.0216 -0.6755
   86CHL1  H22A 8827   6.165   6.170   8.160  0.5988 -0.6443 -0.6908
   86CHL1  H22B 8828   5.991   6.189   8.170  0.8886  0.5801  0.0697
   86CHL1   C23 8829   6.085   6.020   8.282  0.4701  0.4065  0.0296
   86CHL1  H23A 8830   5.994   5.962   8.310 -0.8802  2.1876 -0.5139
   86CHL1  H23B 8831   6.170   5.951   8.263 -0.5513 -0.9108  0.1280
   86CHL1   C24 8832   6.132   6.100   8.406  1.0727 -0.2527 -0.1090
   86CHL1  H24A 8833   6.232   6.142   8.383  0.2707  1.5804 -0.2910
   86CHL1  H24B 8834   6.063   6.186   8.418  2.3728  0.8982 -0.7654
   86CHL1   C25 8835   6.156   6.027   8.537  0.3705  0.2797 -1.2296
   86CHL1   H25 8836   6.053   6.003   8.570  0.5533  0.9405 -0.1461
   86CHL1   C26 8837   6.237   5.899   8.531  0.1362 -0.0710  0.1782
   86CHL1  H26A 8838   6.180   5.818   8.480 -0.5924 -1.3839  2.9912
   86CHL1  H26B 8839   6.330   5.925   8.477 -0.5033  2.2982  0.1780
   86CHL1  H26C 8840   6.259   5.847   8.626  2.5108  1.3697  0.4429
   86CHL1   C27 8841   6.215   6.118   8.645  0.4044 -0.4700 -0.6508
   86CHL1  H27A 8842   6.194   6.082   8.748  0.3936  1.0896 -0.0999
   86CHL1  H27B 8843   6.321   6.137   8.617  0.6366 -0.7008  0.0645
   86CHL1  H27C 8844   6.162   6.215   8.640 -0.2066 -0.7320  0.4683
   87CHL1    C3 8845   6.343   4.451   6.856  0.1347  0.3986  0.6289
   87CHL1    H3 8846   6.237   4.416   6.856  0.6527 -1.3757  3.5382
   87CHL1    O3 8847   6.391   4.453   6.724 -0.4517  0.5774 -0.1439
   87CHL1   H3' 8848   6.473   4.504   6.725  0.2746 -0.5731 -0.1733
   87CHL1    C4 8849   6.339   4.591   6.911 -0.1218 -0.1034  0.0383
   87CHL1   H4A 8850   6.442   4.632   6.907 -0.4262  0.6276 -0.2380
   87CHL1   H4B 8851   6.277   4.654   6.845 -1.6186  0.9816  2.4053
   87CHL1    C5 8852   6.284   4.606   7.046 -0.3864 -0.9053 -0.7125
   87CHL1    C6 8853   6.185   4.688   7.080 -0.5940 -0.6085  0.5690
   87CHL1    H6 8854   6.149   4.757   7.003  2.4700 -0.9327 -1.2342
   87CHL1    C7 8855   6.150   4.722   7.220 -0.0553 -0.4552  0.4394
   87CHL1   H7A 8856   6.162   4.833   7.228  3.1709 -0.6814 -0.6131
   87CHL1   H7B 8857   6.044   4.705   7.248  0.1014 -1.6616  0.3269
   87CHL1    C8 8858   6.230   4.655   7.339 -0.7672 -0.1931 -0.3979
   87CHL1    H8 8859   6.311   4.730   7.350 -0.0134 -0.8129 -1.5866
   87CHL1   C14 8860   6.150   4.643   7.467 -0.4847  0.1044 -0.1685
   87CHL1   H14 8861   6.077   4.560   7.464 -0.1590 -0.4097  3.7826
   87CHL1   C15 8862   6.063   4.758   7.507 -0.4626  0.1554  0.2546
   87CHL1  H15A 8863   6.121   4.850   7.489  0.7895 -0.4078  1.2660
   87CHL1  H15B 8864   5.971   4.763   7.446  0.3570 -2.3398 -1.2646
   87CHL1   C16 8865   6.049   4.727   7.663 -0.7827 -0.3879  0.4447
   87CHL1  H16A 8866   6.092   4.813   7.719 -0.3445  0.0827 -0.6011
   87CHL1  H16B 8867   5.942   4.708   7.685 -0.9461  0.9448  0.8168
   87CHL1   C17 8868   6.133   4.604   7.696  0.0629 -1.1339  0.3473
   87CHL1   H17 8869   6.068   4.515   7.685 -0.0221 -0.8006 -2.1589
   87CHL1   C13 8870   6.234   4.593   7.587 -0.0236 -0.2687  0.4782
   87CHL1   C18 8871   6.342   4.697   7.611  0.3252  0.2947 -0.6939
   87CHL1  H18A 8872   6.297   4.799   7.612  1.1229  0.6613  1.5291
   87CHL1  H18B 8873   6.398   4.689   7.707 -1.5534  4.8377  0.9127
   87CHL1  H18C 8874   6.421   4.676   7.536 -1.8434 -1.0699 -2.7019
   87CHL1   C12 8875   6.284   4.450   7.545  0.7909  0.1420 -0.0954
   87CHL1  H12A 8876   6.348   4.410   7.626 -0.6586 -0.1958  0.9057
   87CHL1  H12B 8877   6.187   4.396   7.537  0.4980  0.5365  0.7725
   87CHL1   C11 8878   6.359   4.443   7.406 -0.9009 -0.9510  0.3311
   87CHL1  H11A 8879   6.457   4.493   7.419 -2.2134  1.6384  0.5210
   87CHL1  H11B 8880   6.362   4.336   7.375  0.7252 -1.4976  2.2932
   87CHL1    C9 8881   6.278   4.515   7.292 -0.1618 -0.0280 -1.1620
   87CHL1    H9 8882   6.192   4.445   7.282 -1.0750  1.1042 -1.3163
   87CHL1   C10 8883   6.353   4.517   7.156 -0.3084 -0.9101  0.0887
   87CHL1   C19 8884   6.500   4.567   7.186  0.2529 -0.0698 -0.3348
   87CHL1  H19A 8885   6.501   4.645   7.266  0.6860 -0.2377 -0.1758
   87CHL1  H19B 8886   6.566   4.486   7.225 -0.6204 -0.2449  0.8165
   87CHL1  H19C 8887   6.549   4.601   7.093 -1.2984 -1.4057 -1.6551
   87CHL1    C1 8888   6.377   4.375   7.096  0.2927  0.8149 -0.1307
   87CHL1   H1A 8889   6.448   4.317   7.157  0.7242  1.6116  0.1358
   87CHL1   H1B 8890   6.278   4.324   7.087  0.6002  0.5803 -2.5819
   87CHL1    C2 8891   6.435   4.370   6.954 -0.0434  0.1538 -0.5751
   87CHL1   H2A 8892   6.428   4.265   6.918  1.5391 -0.3666  0.6213
   87CHL1   H2B 8893   6.540   4.405   6.958  0.6916 -2.1113  0.4477
   87CHL1   C20 8894   6.165   4.600   7.851 -0.4030  0.4380 -0.2074
   87CHL1   H20 8895   6.212   4.696   7.884  0.9078 -0.3981  0.4083
   87CHL1   C21 8896   6.252   4.481   7.874 -0.3238  0.6193  0.1012
   87CHL1  H21A 8897   6.200   4.390   7.835  1.1997 -0.1639 -0.1726
   87CHL1  H21B 8898   6.280   4.469   7.981 -2.0218  2.1074  0.7193
   87CHL1  H21C 8899   6.348   4.495   7.820 -0.3244  1.9099  0.4328
   87CHL1   C22 8900   6.037   4.583   7.932  0.3471 -0.1321 -0.2723
   87CHL1  H22A 8901   5.958   4.648   7.889  0.9885  0.3654 -0.7077
   87CHL1  H22B 8902   5.985   4.487   7.914 -1.0895  0.2626  1.5882
   87CHL1   C23 8903   6.046   4.618   8.081  0.3569 -0.3122  0.4224
   87CHL1  H23A 8904   6.105   4.541   8.135  1.0065 -0.1580 -0.0584
   87CHL1  H23B 8905   6.107   4.710   8.088  0.9576 -0.7656  1.2090
   87CHL1   C24 8906   5.914   4.630   8.159 -0.1074 -0.3762  0.8735
   87CHL1  H24A 8907   5.860   4.709   8.102  2.4214  0.1925 -0.8140
   87CHL1  H24B 8908   5.854   4.537   8.153 -1.5670  0.5350  1.1056
   87CHL1   C25 8909   5.923   4.675   8.307 -0.1058  0.1057 -0.0029
   87CHL1   H25 8910   5.975   4.597   8.366 -0.9236  1.2409  2.3043
   87CHL1   C26 8911   6.004   4.802   8.331  0.0327  0.3524  0.0465
   87CHL1  H26A 8912   6.034   4.795   8.438 -2.1172 -0.5035  0.6107
   87CHL1  H26B 8913   6.105   4.791   8.284 -0.5325  0.2912 -1.1790
   87CHL1  H26C 8914   5.954   4.898   8.308  1.6149  0.7466 -1.9868
   87CHL1   C27 8915   5.783   4.694   8.364  0.6549 -0.7897 -0.4497
   87CHL1  H27A 8916   5.731   4.779   8.315  1.1356 -0.0171  0.3475
   87CHL1  H27B 8917   5.717   4.606   8.356 -0.9544  0.5144 -2.0558
   87CHL1  H27C 8918   5.790   4.719   8.472 -0.3819 -0.2363 -0.5007
   88CHL1    C3 8919   4.187   2.333   6.892  0.5872 -0.2366  0.0277
   88CHL1    H3 8920   4.077   2.341   6.904  0.9110  0.4754  2.8510
   88CHL1    O3 8921   4.218   2.335   6.757  0.0846  0.0565 -0.3600
   88CHL1   H3' 8922   4.313   2.322   6.759 -0.1486 -2.2317 -2.5957
   88CHL1    C4 8923   4.259   2.459   6.955  0.4239 -0.1319 -0.4888
   88CHL1   H4A 8924   4.369   2.449   6.950  0.5755  0.8124  0.8390
   88CHL1   H4B 8925   4.232   2.549   6.896 -1.5882  0.7690  1.7101
   88CHL1    C5 8926   4.232   2.451   7.100  0.5797 -0.1301 -0.0127
   88CHL1    C6 8927   4.160   2.548   7.150  0.0318 -0.6883  0.4812
   88CHL1    H6 8928   4.129   2.629   7.082 -2.5536 -0.9832  1.2482
   88CHL1    C7 8929   4.120   2.555   7.295  0.8797 -0.4340  0.6976
   88CHL1   H7A 8930   4.140   2.658   7.333 -3.4265  1.0872 -0.8397
   88CHL1   H7B 8931   4.010   2.538   7.302  1.0236 -1.6483  0.0597
   88CHL1    C8 8932   4.211   2.455   7.376  0.2229  0.0557 -0.1658
   88CHL1    H8 8933   4.314   2.498   7.376  0.2077  0.0916  1.2763
   88CHL1   C14 8934   4.153   2.454   7.516 -0.2156  0.3044 -0.2438
   88CHL1   H14 8935   4.049   2.415   7.508 -0.6371  1.3675  0.0484
   88CHL1   C15 8936   4.143   2.583   7.590  0.4646  0.2220 -0.1268
   88CHL1  H15A 8937   4.227   2.654   7.570 -1.6681  2.8072 -0.1014
   88CHL1  H15B 8938   4.052   2.636   7.556  1.0057  0.6811 -0.8731
   88CHL1   C16 8939   4.122   2.541   7.733 -0.5781 -0.9039 -0.6202
   88CHL1  H16A 8940   4.212   2.577   7.786 -1.5434 -0.1436  0.5465
   88CHL1  H16B 8941   4.026   2.571   7.782  0.6406 -0.9358  1.8418
   88CHL1   C17 8942   4.143   2.390   7.744  0.6484 -0.0743 -0.4745
   88CHL1   H17 8943   4.047   2.334   7.733  0.2396  0.2618  1.1960
   88CHL1   C13 8944   4.222   2.354   7.610 -0.6627 -0.0442 -0.2446
   88CHL1   C18 8945   4.372   2.381   7.626  0.0103 -0.0425 -0.0133
   88CHL1  H18A 8946   4.426   2.295   7.671  1.0473 -0.3708 -1.8432
   88CHL1  H18B 8947   4.422   2.375   7.527 -0.7782 -0.3493 -0.3996
   88CHL1  H18C 8948   4.396   2.479   7.672 -0.4091  0.1563 -0.2204
   88CHL1   C12 8949   4.194   2.213   7.546  0.3767  0.0809  0.1622
   88CHL1  H12A 8950   4.242   2.138   7.613  1.4317  0.2194 -0.4163
   88CHL1  H12B 8951   4.085   2.194   7.547  0.3911 -0.0107 -0.2640
   88CHL1   C11 8952   4.251   2.203   7.403 -0.0221  0.4886 -0.2674
   88CHL1  H11A 8953   4.359   2.195   7.428  0.1761  0.6427 -1.0546
   88CHL1  H11B 8954   4.219   2.105   7.361  2.8189  0.1382 -1.7150
   88CHL1    C9 8955   4.206   2.315   7.313  1.2673 -0.2634  0.4011
   88CHL1    H9 8956   4.096   2.302   7.308  1.0501  1.0818  1.3506
   88CHL1   C10 8957   4.265   2.322   7.172  0.3249  0.4094 -0.5104
   88CHL1   C19 8958   4.420   2.315   7.200 -1.0734 -0.0993 -0.2556
   88CHL1  H19A 8959   4.480   2.327   7.107  0.8358 -1.4012  0.7681
   88CHL1  H19B 8960   4.458   2.389   7.274 -0.1578  0.5399 -1.3437
   88CHL1  H19C 8961   4.432   2.214   7.245 -0.6992  1.2977  2.8912
   88CHL1    C1 8962   4.214   2.198   7.101  0.1046 -0.2385 -0.6486
   88CHL1   H1A 8963   4.272   2.109   7.135 -0.4549 -0.3738 -0.0456
   88CHL1   H1B 8964   4.103   2.194   7.106  0.0234 -1.7778 -2.8080
   88CHL1    C2 8965   4.245   2.207   6.948  0.2194  0.5551  1.1674
   88CHL1   H2A 8966   4.200   2.124   6.890 -0.5033  1.4494  0.4373
   88CHL1   H2B 8967   4.356   2.198   6.938 -0.1440 -0.4699 -2.4342
   88CHL1   C20 8968   4.208   2.340   7.867 -0.3282  0.9092 -0.5713
   88CHL1   H20 8969   4.307   2.389   7.870  0.2330 -0.2117 -0.6221
   88CHL1   C21 8970   4.233   2.179   7.881  0.6733  0.1919 -0.0973
   88CHL1  H21A 8971   4.310   2.153   7.805 -0.5020 -0.9339 -0.9184
   88CHL1  H21B 8972   4.146   2.119   7.847  1.9966 -0.9289 -1.5684
   88CHL1  H21C 8973   4.274   2.157   7.982  1.7218  2.4496  0.0265
   88CHL1   C22 8974   4.140   2.388   8.003 -0.4785 -0.2377 -0.9968
   88CHL1  H22A 8975   4.114   2.495   7.985  0.5067  0.5080  1.8142
   88CHL1  H22B 8976   4.048   2.330   8.021 -0.5240  0.2897  0.5385
   88CHL1   C23 8977   4.226   2.394   8.131 -0.3010 -0.7911 -0.0926
   88CHL1  H23A 8978   4.240   2.292   8.172  0.1856 -0.0887  1.5529
   88CHL1  H23B 8979   4.320   2.447   8.104  0.3625 -3.0165 -2.2407
   88CHL1   C24 8980   4.159   2.490   8.240 -0.5772  0.7182 -0.3718
   88CHL1  H24A 8981   4.152   2.592   8.199 -2.0219  0.3629 -1.0653
   88CHL1  H24B 8982   4.050   2.474   8.255  0.1794 -3.2190  1.5980
   88CHL1   C25 8983   4.235   2.493   8.370  0.0917 -0.2755 -0.3512
   88CHL1   H25 8984   4.236   2.387   8.405 -1.2258 -0.7788 -1.7444
   88CHL1   C26 8985   4.383   2.547   8.354  0.0453 -0.0995 -0.1849
   88CHL1  H26A 8986   4.446   2.515   8.439  1.0430  1.4214 -0.3194
   88CHL1  H26B 8987   4.430   2.519   8.257 -0.2408  2.0002 -0.9748
   88CHL1  H26C 8988   4.386   2.658   8.368  1.3947 -0.0165 -1.0483
   88CHL1   C27 8989   4.160   2.580   8.479 -0.1493  0.3083  0.9454
   88CHL1  H27A 8990   4.206   2.577   8.580  1.3128  1.6474  0.3415
   88CHL1  H27B 8991   4.168   2.684   8.442  0.1892 -0.6427 -1.7998
   88CHL1  H27C 8992   4.053   2.554   8.492  0.1812 -1.0637  1.0115
   89CHL1    C3 8993   6.807   6.503   6.961  0.8701 -0.0665  0.2510
   89CHL1    H3 8994   6.909   6.461   6.953  0.8869  0.1877 -0.9597
   89CHL1    O3 8995   6.790   6.579   6.845 -0.2623  0.1572  0.1700
   89CHL1   H3' 8996   6.703   6.616   6.858  1.0036  2.1793  3.4291
   89CHL1    C4 8997   6.707   6.387   6.961  0.0051 -0.9976 -0.4485
   89CHL1   H4A 8998   6.609   6.438   6.971  0.5513  0.1165 -0.6288
   89CHL1   H4B 8999   6.721   6.330   6.866  3.3386 -0.2030 -0.5060
   89CHL1    C5 9000   6.727   6.307   7.084 -0.2984  0.5043 -0.4510
   89CHL1    C6 9001   6.774   6.177   7.083 -0.1135 -0.7145  0.2212
   89CHL1    H6 9002   6.791   6.135   6.983 -1.0241  1.0404 -0.7048
   89CHL1    C7 9003   6.790   6.093   7.202  0.5203  0.0941  0.5184
   89CHL1   H7A 9004   6.744   5.996   7.175  0.6345  0.3285 -0.5384
   89CHL1   H7B 9005   6.897   6.063   7.214  0.7949  0.8874  0.1137
   89CHL1    C8 9006   6.718   6.145   7.332  0.4935  0.3938 -1.0019
   89CHL1    H8 9007   6.607   6.144   7.324  0.2787 -0.6669  1.6678
   89CHL1   C14 9008   6.762   6.065   7.457 -0.1405  0.0532  0.3147
   89CHL1   H14 9009   6.873   6.068   7.446 -0.2753  2.4904 -0.6447
   89CHL1   C15 9010   6.711   5.920   7.472 -0.2788 -0.2563  0.2839
   89CHL1  H15A 9011   6.600   5.920   7.462 -0.3449  1.5564  0.8924
   89CHL1  H15B 9012   6.740   5.853   7.387  0.3699  0.2256  0.1189
   89CHL1   C16 9013   6.766   5.878   7.613  0.3949  0.1380  0.1414
   89CHL1  H16A 9014   6.675   5.835   7.661 -1.9846  4.2131 -0.4139
   89CHL1  H16B 9015   6.838   5.794   7.610  1.5239  0.9984  2.2249
   89CHL1   C17 9016   6.801   6.015   7.684  0.5707  0.2119 -0.7408
   89CHL1   H17 9017   6.911   6.028   7.675  0.8983 -0.0701  2.1629
   89CHL1   C13 9018   6.732   6.123   7.592  0.4663 -0.3686 -0.0048
   89CHL1   C18 9019   6.578   6.129   7.622 -0.5001 -0.3031  0.2495
   89CHL1  H18A 9020   6.528   6.211   7.567  0.2606 -1.0362 -1.5689
   89CHL1  H18B 9021   6.529   6.030   7.606  0.4249 -0.7550  0.1930
   89CHL1  H18C 9022   6.559   6.163   7.726 -1.1974  1.1329 -0.3374
   89CHL1   C12 9023   6.787   6.268   7.600 -0.0294  0.3083  0.6608
   89CHL1  H12A 9024   6.760   6.323   7.693 -1.0281 -1.4949  1.4823
   89CHL1  H12B 9025   6.898   6.268   7.605 -0.0123 -1.2194  0.5712
   89CHL1   C11 9026   6.734   6.354   7.486  0.3995 -0.0903 -0.6606
   89CHL1  H11A 9027   6.625   6.369   7.500  1.1578  1.9086  3.7089
   89CHL1  H11B 9028   6.792   6.450   7.489  1.0517 -0.4757 -0.7440
   89CHL1    C9 9029   6.754   6.298   7.344 -0.1384 -1.0893  0.5566
   89CHL1    H9 9030   6.864   6.289   7.330 -0.3420 -1.1306 -1.1216
   89CHL1   C10 9031   6.706   6.386   7.220 -0.1396  0.3900  0.3698
   89CHL1   C19 9032   6.556   6.423   7.241  0.2706 -0.1591  0.2079
   89CHL1  H19A 9033   6.534   6.487   7.329  1.9636  1.4371 -0.4965
   89CHL1  H19B 9034   6.516   6.472   7.150  0.6493 -0.7314 -0.2665
   89CHL1  H19C 9035   6.502   6.326   7.243 -1.5315  0.8476  1.5917
   89CHL1    C1 9036   6.805   6.513   7.220 -0.2105 -0.6386 -0.0932
   89CHL1   H1A 9037   6.791   6.576   7.310 -1.2580  0.2378 -0.8525
   89CHL1   H1B 9038   6.908   6.473   7.228  0.9598  2.6260  2.2269
   89CHL1    C2 9039   6.793   6.588   7.089 -0.7579 -1.1027  0.5668
   89CHL1   H2A 9040   6.867   6.671   7.084 -3.1759  1.0979  0.5001
   89CHL1   H2B 9041   6.692   6.632   7.077 -0.3130  0.0580  0.9833
   89CHL1   C20 9042   6.758   6.017   7.835 -0.1937  0.2563  0.2966
   89CHL1   H20 9043   6.648   6.008   7.853 -0.6231  0.6771 -1.9847
   89CHL1   C21 9044   6.794   6.146   7.912  0.1807  0.2796 -0.2996
   89CHL1  H21A 9045   6.764   6.126   8.017 -1.9793 -1.5730 -1.2213
   89CHL1  H21B 9046   6.733   6.231   7.874  0.2225  0.9291  1.0578
   89CHL1  H21C 9047   6.901   6.174   7.907  1.0151 -2.8604 -1.0883
   89CHL1   C22 9048   6.827   5.900   7.919 -0.6519  0.1186  0.7418
   89CHL1  H22A 9049   6.866   5.823   7.849  0.4149  1.8873 -0.6585
   89CHL1  H22B 9050   6.912   5.951   7.968  2.2648 -2.0535 -1.8431
   89CHL1   C23 9051   6.741   5.838   8.035 -0.0521 -0.1450 -0.1937
   89CHL1  H23A 9052   6.715   5.917   8.109 -1.0514 -0.0888 -0.5945
   89CHL1  H23B 9053   6.649   5.789   7.996 -1.2625  2.5895 -0.8300
   89CHL1   C24 9054   6.809   5.714   8.099  0.0722  0.3377  0.2722
   89CHL1  H24A 9055   6.727   5.679   8.166  0.2352  0.6608  0.6422
   89CHL1  H24B 9056   6.814   5.632   8.024 -0.8427  0.7454 -0.2453
   89CHL1   C25 9057   6.935   5.734   8.177 -0.3175 -0.0651  0.6186
   89CHL1   H25 9058   7.018   5.762   8.109 -3.1412  3.1337 -1.6969
   89CHL1   C26 9059   6.920   5.846   8.280  0.8965 -0.6290 -0.2240
   89CHL1  H26A 9060   7.014   5.863   8.337  0.4105  1.6396 -0.0243
   89CHL1  H26B 9061   6.900   5.946   8.237  0.0765 -0.0422  1.4423
   89CHL1  H26C 9062   6.843   5.824   8.357 -0.3952 -2.4315 -1.9925
   89CHL1   C27 9063   6.978   5.612   8.255  0.7137  0.3814  0.6549
   89CHL1  H27A 9064   6.941   5.521   8.203  1.0534  0.3870  0.4033
   89CHL1  H27B 9065   7.088   5.609   8.271  0.7482 -0.6735  0.2803
   89CHL1  H27C 9066   6.933   5.600   8.356 -0.7649 -0.7376 -0.1166
   90CHL1    C3 9067   6.470   1.760   6.952  0.6501 -0.0916  0.1050
   90CHL1    H3 9068   6.397   1.842   6.970  0.3340 -0.7164  1.7306
   90CHL1    O3 9069   6.520   1.761   6.828  0.4978  0.2547  0.3393
   90CHL1   H3' 9070   6.599   1.706   6.834 -0.2371 -0.7359  0.9806
   90CHL1    C4 9071   6.579   1.789   7.059  0.4931  0.3910 -1.3908
   90CHL1   H4A 9072   6.662   1.716   7.048  0.1296 -0.3922  0.7635
   90CHL1   H4B 9073   6.618   1.893   7.048  0.8466  0.6734  1.9151
   90CHL1    C5 9074   6.511   1.786   7.199  0.1241 -0.0935  0.0040
   90CHL1    C6 9075   6.507   1.890   7.285  0.5596 -0.1885  0.4480
   90CHL1    H6 9076   6.557   1.986   7.264  4.7983 -1.9778  1.6608
   90CHL1    C7 9077   6.441   1.885   7.419 -0.0468  0.0360  0.2605
   90CHL1   H7A 9078   6.510   1.939   7.486 -0.8499 -1.7951  2.6511
   90CHL1   H7B 9079   6.344   1.938   7.410 -0.0866  0.0006  0.4658
   90CHL1    C8 9080   6.409   1.747   7.477 -0.2676 -0.0896 -0.8795
   90CHL1    H8 9081   6.509   1.708   7.504  0.3046  0.8549 -1.5543
   90CHL1   C14 9082   6.322   1.754   7.597  0.4592 -0.1010 -0.1300
   90CHL1   H14 9083   6.226   1.795   7.558 -0.7019  0.1128  2.8280
   90CHL1   C15 9084   6.347   1.857   7.710 -0.7392  0.2290 -0.3311
   90CHL1  H15A 9085   6.452   1.828   7.735  0.1203  0.6413 -3.2653
   90CHL1  H15B 9086   6.344   1.966   7.691 -4.1068  0.3047  0.3064
   90CHL1   C16 9087   6.261   1.804   7.816 -0.2158  0.4714  0.0016
   90CHL1  H16A 9088   6.319   1.792   7.910  0.4614 -3.2844 -0.8358
   90CHL1  H16B 9089   6.173   1.868   7.840  1.6532  2.4995  1.7259
   90CHL1   C17 9090   6.193   1.682   7.770 -0.0574 -0.7390 -0.3521
   90CHL1   H17 9091   6.104   1.718   7.714  0.6484  3.0146  0.8099
   90CHL1   C13 9092   6.283   1.627   7.662  0.3309  0.2635  0.0337
   90CHL1   C18 9093   6.406   1.567   7.733 -0.3161  0.4987  0.6242
   90CHL1  H18A 9094   6.490   1.560   7.661 -0.8508  0.5543 -0.0065
   90CHL1  H18B 9095   6.438   1.628   7.820 -1.4449  1.8346  0.1379
   90CHL1  H18C 9096   6.387   1.461   7.759  1.4889  0.3122  1.2371
   90CHL1   C12 9097   6.220   1.529   7.550  0.6216 -0.1059  0.3180
   90CHL1  H12A 9098   6.213   1.426   7.590 -1.7610  0.0924  0.4655
   90CHL1  H12B 9099   6.125   1.583   7.528  1.6609  1.6063 -0.0861
   90CHL1   C11 9100   6.301   1.521   7.418  0.0056  0.5466 -0.4153
   90CHL1  H11A 9101   6.386   1.453   7.442  0.0464  0.5126 -0.6549
   90CHL1  H11B 9102   6.243   1.470   7.339 -2.0499 -1.0663  2.0635
   90CHL1    C9 9103   6.351   1.662   7.368 -0.0247  0.2334  0.0650
   90CHL1    H9 9104   6.260   1.716   7.335 -3.2507 -3.7752  1.9924
   90CHL1   C10 9105   6.434   1.659   7.234 -0.3763  0.2989  0.3633
   90CHL1   C19 9106   6.531   1.541   7.242  0.4712  0.1058 -0.7924
   90CHL1  H19A 9107   6.478   1.443   7.241 -0.7049  0.6479  2.0977
   90CHL1  H19B 9108   6.606   1.537   7.160  0.2957 -1.1319 -0.9025
   90CHL1  H19C 9109   6.586   1.547   7.338  0.6031  2.5417 -0.9774
   90CHL1    C1 9110   6.335   1.622   7.118 -0.1414  0.0463  0.0301
   90CHL1   H1A 9111   6.300   1.517   7.128  0.6969 -0.4292 -1.7901
   90CHL1   H1B 9112   6.247   1.689   7.121 -0.0063  0.3892 -2.6436
   90CHL1    C2 9113   6.402   1.623   6.979  0.0278  0.0085  0.7091
   90CHL1   H2A 9114   6.319   1.598   6.910  0.1000 -0.2343  0.7095
   90CHL1   H2B 9115   6.480   1.544   6.978 -1.5261 -1.6082 -3.3313
   90CHL1   C20 9116   6.145   1.589   7.889  0.0550  0.1020 -0.0713
   90CHL1   H20 9117   6.235   1.565   7.951 -0.5525 -1.1227  0.3504
   90CHL1   C21 9118   6.093   1.453   7.843 -0.2977 -0.2290  0.2146
   90CHL1  H21A 9119   6.172   1.397   7.789  0.7220 -0.1421  1.5885
   90CHL1  H21B 9120   6.012   1.470   7.769  1.1133 -0.8310 -1.4904
   90CHL1  H21C 9121   6.065   1.386   7.928 -1.7299  0.9448  0.6983
   90CHL1   C22 9122   6.035   1.653   7.984  0.2407 -0.4829 -0.8791
   90CHL1  H22A 9123   6.031   1.762   7.963 -0.6848  0.1405  2.2732
   90CHL1  H22B 9124   5.945   1.604   7.942 -0.2718 -1.8011  1.6843
   90CHL1   C23 9125   6.059   1.630   8.143  0.4661 -0.3733 -0.1745
   90CHL1  H23A 9126   6.068   1.521   8.159  1.2225 -0.0302  1.9663
   90CHL1  H23B 9127   6.158   1.670   8.175  0.2151 -1.9895  2.8350
   90CHL1   C24 9128   5.950   1.685   8.233 -0.6312  0.3548  0.9405
   90CHL1  H24A 9129   5.930   1.792   8.209  3.2438  0.6746 -1.1297
   90CHL1  H24B 9130   5.858   1.625   8.219 -0.9657  0.5965  1.9925
   90CHL1   C25 9131   6.000   1.682   8.382  0.5203  0.3253 -0.0250
   90CHL1   H25 9132   6.103   1.723   8.396  0.7607 -0.3465  0.1876
   90CHL1   C26 9133   5.893   1.768   8.460 -0.0929 -0.4174 -0.0694
   90CHL1  H26A 9134   5.909   1.871   8.422 -1.3328 -0.8084 -1.7263
   90CHL1  H26B 9135   5.793   1.732   8.429 -0.1166  0.0972 -0.6044
   90CHL1  H26C 9136   5.893   1.775   8.571 -2.5657  0.1838 -0.0708
   90CHL1   C27 9137   5.995   1.541   8.437  0.1873 -0.3406 -0.9214
   90CHL1  H27A 9138   6.090   1.493   8.405  0.0943 -0.5533 -0.8802
   90CHL1  H27B 9139   5.980   1.544   8.547 -0.7422  2.8318 -1.0925
   90CHL1  H27C 9140   5.916   1.477   8.392 -0.5086  0.1443 -0.4091
   91CHL1    C3 9141   1.937   2.872   7.309  0.0794  0.5578  0.2918
   91CHL1    H3 9142   2.028   2.906   7.364  1.5864 -1.1633 -1.0612
   91CHL1    O3 9143   1.981   2.836   7.185 -0.4521 -0.2369  0.2725
   91CHL1   H3' 9144   1.903   2.851   7.132 -0.8461  1.1266  1.2290
   91CHL1    C4 9145   1.879   2.753   7.381  0.3569 -0.5375 -0.3592
   91CHL1   H4A 9146   1.795   2.712   7.320 -0.5651  2.0252 -0.9082
   91CHL1   H4B 9147   1.952   2.670   7.378 -0.5820 -1.5821  3.0452
   91CHL1    C5 9148   1.835   2.781   7.525 -0.5498 -0.1338  0.6091
   91CHL1    C6 9149   1.899   2.724   7.629 -0.2168 -0.0939  0.5439
   91CHL1    H6 9150   1.983   2.660   7.599 -0.4778 -0.7386  1.1626
   91CHL1    C7 9151   1.855   2.741   7.773  0.7553  0.9091 -0.6125
   91CHL1   H7A 9152   1.862   2.651   7.838 -3.2570  2.5687  2.3725
   91CHL1   H7B 9153   1.926   2.816   7.814  2.2192  0.2011 -1.8059
   91CHL1    C8 9154   1.709   2.797   7.780 -0.2904  0.6975  0.6540
   91CHL1    H8 9155   1.636   2.718   7.751  1.0851  0.4099 -2.0920
   91CHL1   C14 9156   1.691   2.842   7.923 -0.0846 -0.2559  0.3983
   91CHL1   H14 9157   1.775   2.914   7.935  1.3676 -2.3931  3.9775
   91CHL1   C15 9158   1.718   2.745   8.041  0.1820 -0.1352 -0.0961
   91CHL1  H15A 9159   1.666   2.648   8.031 -3.4632  1.4819  2.2934
   91CHL1  H15B 9160   1.825   2.719   8.058  0.9334  2.4893 -0.6104
   91CHL1   C16 9161   1.646   2.812   8.159  0.3471  0.0976  0.3651
   91CHL1  H16A 9162   1.559   2.753   8.194  0.7704 -1.4158 -1.0917
   91CHL1  H16B 9163   1.715   2.844   8.240  0.7024 -2.0568  0.9502
   91CHL1   C17 9164   1.574   2.947   8.102  0.2671 -0.2583  0.2564
   91CHL1   H17 9165   1.653   3.025   8.115  0.6910 -0.8221  1.1614
   91CHL1   C13 9166   1.560   2.918   7.948 -0.0468 -0.1994  0.0484
   91CHL1   C18 9167   1.448   2.811   7.931  0.2017 -0.2809 -0.5814
   91CHL1  H18A 9168   1.478   2.722   7.991  2.9822 -0.6006 -2.3461
   91CHL1  H18B 9169   1.349   2.849   7.965  0.3120 -0.6842  0.2242
   91CHL1  H18C 9170   1.441   2.774   7.827  2.1040 -3.9102  0.4585
   91CHL1   C12 9171   1.547   3.034   7.859 -0.6113  0.3551  0.8753
   91CHL1  H12A 9172   1.450   3.085   7.875 -1.1222  0.2879 -1.6911
   91CHL1  H12B 9173   1.632   3.105   7.869  0.9225 -1.5514  1.7420
   91CHL1   C11 9174   1.552   2.982   7.713 -0.3869  0.5626  0.4266
   91CHL1  H11A 9175   1.471   2.911   7.687  1.2094 -0.2348 -2.5384
   91CHL1  H11B 9176   1.550   3.070   7.646 -0.1982  0.0136 -0.3023
   91CHL1    C9 9177   1.689   2.910   7.683 -0.4452 -0.2778 -0.1422
   91CHL1    H9 9178   1.769   2.980   7.716  0.4210 -1.0436 -0.5999
   91CHL1   C10 9179   1.720   2.872   7.536 -0.4188 -0.8822  0.3781
   91CHL1   C19 9180   1.588   2.814   7.476 -0.2257  0.6861  0.8026
   91CHL1  H19A 9181   1.550   2.715   7.508  0.1965 -0.0053 -0.8248
   91CHL1  H19B 9182   1.501   2.882   7.464 -0.2441  0.7797  1.4122
   91CHL1  H19C 9183   1.620   2.801   7.371  1.8651 -1.1541  1.6268
   91CHL1    C1 9184   1.760   3.004   7.455  0.1979  0.4710 -1.1969
   91CHL1   H1A 9185   1.676   3.076   7.442  1.5411  2.7837  2.1553
   91CHL1   H1B 9186   1.834   3.066   7.511  1.0838 -0.7036 -1.0561
   91CHL1    C2 9187   1.825   2.975   7.315  0.2456  0.0329  0.0179
   91CHL1   H2A 9188   1.853   3.065   7.256  0.2408 -0.4762 -0.7810
   91CHL1   H2B 9189   1.741   2.926   7.260 -0.4065 -0.6220  1.5763
   91CHL1   C20 9190   1.452   2.993   8.193 -0.1402  0.2645 -0.1947
   91CHL1   H20 9191   1.375   2.915   8.177  0.5603 -0.8461  1.6669
   91CHL1   C21 9192   1.408   3.128   8.139 -0.2351 -0.9506  0.4124
   91CHL1  H21A 9193   1.337   3.176   8.210  0.8196 -0.8105  1.3796
   91CHL1  H21B 9194   1.351   3.119   8.044 -0.7265  0.4481  0.5523
   91CHL1  H21C 9195   1.493   3.197   8.121  0.8495 -2.9737 -2.6399
   91CHL1   C22 9196   1.498   2.998   8.342  0.3256  0.1669 -0.1569
   91CHL1  H22A 9197   1.572   2.923   8.379 -0.3714  0.5359  2.0610
   91CHL1  H22B 9198   1.550   3.095   8.357  1.4461 -0.5354  0.5830
   91CHL1   C23 9199   1.379   2.990   8.435  0.0615 -1.3088 -0.2710
   91CHL1  H23A 9200   1.293   3.052   8.402 -2.2001 -4.7884 -1.2084
   91CHL1  H23B 9201   1.337   2.887   8.436 -2.3625 -0.4852 -4.4798
   91CHL1   C24 9202   1.419   3.027   8.581 -0.1755  0.1308 -0.0542
   91CHL1  H24A 9203   1.459   2.933   8.625  0.3812  0.7469  0.7709
   91CHL1  H24B 9204   1.503   3.100   8.579 -1.7158  1.9666  0.7404
   91CHL1   C25 9205   1.304   3.064   8.678 -0.0190 -0.1872 -0.2636
   91CHL1   H25 9206   1.250   3.155   8.643  0.5644 -0.4888 -2.0061
   91CHL1   C26 9207   1.190   2.958   8.684  0.0605 -0.1391 -0.8188
   91CHL1  H26A 9208   1.115   2.988   8.759 -1.0801 -1.5931 -1.3519
   91CHL1  H26B 9209   1.138   2.943   8.587 -0.4054 -2.8967 -0.1930
   91CHL1  H26C 9210   1.229   2.856   8.708 -0.7016  0.0792  1.4008
   91CHL1   C27 9211   1.368   3.101   8.814  0.0574 -0.0544  0.0714
   91CHL1  H27A 9212   1.434   3.022   8.855  2.0500  0.5845 -1.8306
   91CHL1  H27B 9213   1.440   3.183   8.796 -1.4869  1.1836 -0.5857
   91CHL1  H27C 9214   1.294   3.128   8.892 -2.4191 -1.3188 -1.7718
   92CHL1    C3 9215   4.431   3.539   6.919 -0.9993 -0.1643 -0.2444
   92CHL1    H3 9216   4.346   3.475   6.886  0.8901 -2.3958 -0.8614
   92CHL1    O3 9217   4.504   3.570   6.799 -0.2231 -0.1345  0.0958
   92CHL1   H3' 9218   4.592   3.599   6.825 -0.2995 -0.5779  0.8556
   92CHL1    C4 9219   4.373   3.664   6.981  0.5682  0.2512  0.4353
   92CHL1   H4A 9220   4.448   3.745   6.985 -0.1589  0.9916 -0.5678
   92CHL1   H4B 9221   4.297   3.713   6.917 -0.2368 -0.9291  0.4599
   92CHL1    C5 9222   4.304   3.660   7.117 -0.2404  0.7829 -1.1032
   92CHL1    C6 9223   4.192   3.723   7.146 -0.0375 -0.3021  0.0458
   92CHL1    H6 9224   4.146   3.793   7.075  1.1811  1.1868  0.6855
   92CHL1    C7 9225   4.136   3.722   7.289 -0.2723 -0.0365 -0.5196
   92CHL1   H7A 9226   4.117   3.827   7.319 -0.8138  0.8183 -3.5857
   92CHL1   H7B 9227   4.043   3.662   7.303 -1.6067  2.4522  1.6650
   92CHL1    C8 9228   4.241   3.663   7.391  0.1667 -0.0095 -0.0164
   92CHL1    H8 9229   4.324   3.735   7.409  2.2847 -2.0960 -1.1205
   92CHL1   C14 9230   4.172   3.633   7.528  0.4900  0.0945 -0.7770
   92CHL1   H14 9231   4.078   3.577   7.512 -0.6426  1.8994 -0.6370
   92CHL1   C15 9232   4.115   3.754   7.603  0.1917 -0.0605 -0.2253
   92CHL1  H15A 9233   4.193   3.830   7.583 -0.9205  0.9473 -0.8002
   92CHL1  H15B 9234   4.015   3.776   7.558 -1.1531 -2.5500  1.3932
   92CHL1   C16 9235   4.124   3.713   7.758  0.4179  0.3845  0.9831
   92CHL1  H16A 9236   4.195   3.781   7.810  1.5737  0.8209 -1.1179
   92CHL1  H16B 9237   4.022   3.715   7.802  0.0636  2.1802  0.1358
   92CHL1   C17 9238   4.185   3.565   7.760 -0.3271 -0.7389 -0.4083
   92CHL1   H17 9239   4.103   3.491   7.750  1.0258 -2.1916 -0.8217
   92CHL1   C13 9240   4.267   3.564   7.624  0.6824  0.3618  0.6390
   92CHL1   C18 9241   4.399   3.651   7.638  0.3720  0.7667 -0.3581
   92CHL1  H18A 9242   4.368   3.747   7.685 -0.5092  0.7405 -0.8817
   92CHL1  H18B 9243   4.464   3.601   7.713 -0.5391  0.7442  0.4231
   92CHL1  H18C 9244   4.455   3.666   7.543 -0.7510  0.7869 -1.0218
   92CHL1   C12 9245   4.300   3.424   7.562 -0.2015  0.4665 -0.6359
   92CHL1  H12A 9246   4.363   3.364   7.631  1.0504  1.9374 -0.4828
   92CHL1  H12B 9247   4.211   3.359   7.552 -0.0596 -0.1023  1.5165
   92CHL1   C11 9248   4.380   3.438   7.433  0.1216 -0.4872 -0.3225
   92CHL1  H11A 9249   4.481   3.478   7.455 -0.1241 -1.2430  2.2977
   92CHL1  H11B 9250   4.391   3.336   7.391  1.5400 -0.0911 -0.9606
   92CHL1    C9 9251   4.312   3.532   7.333  0.3111 -0.7383 -0.1244
   92CHL1    H9 9252   4.232   3.461   7.304 -0.9843  0.2998  0.7939
   92CHL1   C10 9253   4.386   3.571   7.213  0.4824 -0.3198  0.2427
   92CHL1   C19 9254   4.513   3.648   7.246 -0.0438  0.0095 -0.2271
   92CHL1  H19A 9255   4.504   3.727   7.323  0.4649  0.1724 -0.3356
   92CHL1  H19B 9256   4.585   3.578   7.294  0.3179 -0.7119 -1.7875
   92CHL1  H19C 9257   4.564   3.687   7.156  0.5623 -0.9728 -0.3179
   92CHL1    C1 9258   4.432   3.440   7.139 -0.8573 -0.0327 -0.2297
   92CHL1   H1A 9259   4.502   3.392   7.210  1.9427 -1.5053 -3.8171
   92CHL1   H1B 9260   4.341   3.378   7.122 -1.0371  0.2227 -0.2028
   92CHL1    C2 9261   4.516   3.453   7.011 -0.9312 -0.2573  0.1857
   92CHL1   H2A 9262   4.522   3.349   6.973 -0.2217  0.4433 -1.6611
   92CHL1   H2B 9263   4.611   3.504   7.038 -0.9752 -0.3214  0.4686
   92CHL1   C20 9264   4.247   3.530   7.896 -0.0152  0.7661 -0.0779
   92CHL1   H20 9265   4.335   3.596   7.911  0.1623  0.3860  0.5667
   92CHL1   C21 9266   4.295   3.384   7.888  0.6330 -0.2534 -0.0253
   92CHL1  H21A 9267   4.304   3.339   7.989  1.0238  0.0176  0.0632
   92CHL1  H21B 9268   4.390   3.375   7.832 -0.2385  0.2804 -1.6226
   92CHL1  H21C 9269   4.221   3.320   7.836  0.5892  0.6961 -1.1530
   92CHL1   C22 9270   4.151   3.559   8.020  0.2914  0.1052  0.2425
   92CHL1  H22A 9271   4.210   3.529   8.109 -0.1278 -2.8787 -0.4379
   92CHL1  H22B 9272   4.136   3.669   8.025 -1.4166 -0.0482 -1.1208
   92CHL1   C23 9273   4.027   3.476   8.029  0.0261  0.7185  0.9599
   92CHL1  H23A 9274   3.971   3.483   7.933 -1.2807 -1.9833  1.4588
   92CHL1  H23B 9275   4.061   3.370   8.028 -0.9576  0.3975  0.8629
   92CHL1   C24 9276   3.937   3.511   8.144 -0.0368 -0.1529 -0.2448
   92CHL1  H24A 9277   3.982   3.475   8.238  0.2725  1.2328  0.1451
   92CHL1  H24B 9278   3.918   3.620   8.153  0.6965 -0.1535  1.4160
   92CHL1   C25 9279   3.798   3.437   8.135 -0.0105 -0.1677 -0.1896
   92CHL1   H25 9280   3.820   3.329   8.120 -0.5790 -0.1855 -0.9331
   92CHL1   C26 9281   3.730   3.443   8.273  0.4263  0.5189  0.5518
   92CHL1  H26A 9282   3.635   3.386   8.272  0.6963  0.0773 -0.7068
   92CHL1  H26B 9283   3.793   3.400   8.354  0.3090 -1.4374 -0.3701
   92CHL1  H26C 9284   3.723   3.547   8.313  1.7281  0.9933 -0.4117
   92CHL1   C27 9285   3.706   3.496   8.023 -0.9850  0.0092  0.3204
   92CHL1  H27A 9286   3.600   3.467   8.011 -1.1038 -0.9381  3.2734
   92CHL1  H27B 9287   3.714   3.606   8.041  0.4745 -0.1386  0.6816
   92CHL1  H27C 9288   3.757   3.473   7.927 -1.6111 -0.2594  0.0559
   93CHL1    C3 9289   2.581   1.917   6.947 -0.3924  0.0621  0.1189
   93CHL1    H3 9290   2.558   1.809   6.950 -3.4205  0.6631  0.5469
   93CHL1    O3 9291   2.562   1.964   6.816  0.0164 -0.0910 -0.3801
   93CHL1   H3' 9292   2.468   1.982   6.806  0.6517  2.1733 -2.6741
   93CHL1    C4 9293   2.474   1.979   7.044 -0.1189  0.4943  0.2639
   93CHL1   H4A 9294   2.465   2.086   7.016  0.6039 -0.0400 -2.2006
   93CHL1   H4B 9295   2.385   1.935   6.994  1.3114  0.0494 -1.9818
   93CHL1    C5 9296   2.495   1.933   7.185 -0.6829  0.4397 -0.0053
   93CHL1    C6 9297   2.404   1.866   7.248  0.1698  1.0663  0.2228
   93CHL1    H6 9298   2.312   1.842   7.193  0.1559 -1.1253  1.1487
   93CHL1    C7 9299   2.414   1.829   7.394 -0.6351 -0.2181  0.1557
   93CHL1   H7A 9300   2.319   1.844   7.450 -0.4023  0.9442  0.2458
   93CHL1   H7B 9301   2.442   1.721   7.396 -1.1101 -0.3381  0.3245
   93CHL1    C8 9302   2.528   1.916   7.462  0.0723  0.5820  0.0016
   93CHL1    H8 9303   2.478   2.015   7.464  1.1410  1.1170  2.7966
   93CHL1   C14 9304   2.556   1.858   7.598 -0.1290  0.4761  0.1773
   93CHL1   H14 9305   2.602   1.759   7.575  1.0485  0.8590  0.8764
   93CHL1   C15 9306   2.438   1.834   7.693 -0.2878  0.4149  0.2002
   93CHL1  H15A 9307   2.364   1.916   7.706 -1.4566 -0.5864 -0.0946
   93CHL1  H15B 9308   2.379   1.742   7.676  1.1556 -0.9278  2.1677
   93CHL1   C16 9309   2.508   1.824   7.834 -0.8845  0.3550 -0.1237
   93CHL1  H16A 9310   2.466   1.903   7.901  0.4367  0.2419  0.8632
   93CHL1  H16B 9311   2.501   1.723   7.880 -2.0535 -1.2857 -3.7196
   93CHL1   C17 9312   2.659   1.861   7.827  0.1838 -0.1017 -0.1630
   93CHL1   H17 9313   2.710   1.763   7.818  1.1974  0.3122  0.9054
   93CHL1   C13 9314   2.666   1.932   7.685  0.1649  0.0600  0.0333
   93CHL1   C18 9315   2.603   2.077   7.701 -0.1564  0.4313 -0.1437
   93CHL1  H18A 9316   2.575   2.124   7.604 -1.0400 -1.0487 -0.6243
   93CHL1  H18B 9317   2.517   2.091   7.770 -0.9903 -0.6281 -0.9464
   93CHL1  H18C 9318   2.690   2.131   7.744  0.6673 -0.2244 -0.9738
   93CHL1   C12 9319   2.798   1.922   7.609 -0.2890 -0.6479 -0.6731
   93CHL1  H12A 9320   2.879   1.976   7.663 -1.7156  1.2671 -0.3923
   93CHL1  H12B 9321   2.833   1.817   7.595 -0.2155 -0.3689 -2.7196
   93CHL1   C11 9322   2.779   1.980   7.466 -0.2177  0.3548 -0.0838
   93CHL1  H11A 9323   2.770   2.090   7.475  1.1685  0.5722 -1.2200
   93CHL1  H11B 9324   2.874   1.954   7.416  0.2668 -0.6286  1.3141
   93CHL1    C9 9325   2.662   1.918   7.388 -0.0911  0.6278  0.0254
   93CHL1    H9 9326   2.695   1.814   7.366 -2.4286 -0.2781  0.7252
   93CHL1   C10 9327   2.638   1.976   7.238 -0.5276 -0.3576  0.3752
   93CHL1   C19 9328   2.636   2.123   7.248  0.2871  0.0507  0.3655
   93CHL1  H19A 9329   2.571   2.155   7.332 -0.9297  0.1020 -0.5884
   93CHL1  H19B 9330   2.736   2.167   7.267  1.5000 -1.8180 -1.4512
   93CHL1  H19C 9331   2.594   2.167   7.156  0.2303 -0.2271  0.2560
   93CHL1    C1 9332   2.749   1.922   7.145  0.8241  1.0127  0.0397
   93CHL1   H1A 9333   2.850   1.940   7.189  1.4707 -0.5616 -0.7644
   93CHL1   H1B 9334   2.741   1.812   7.158 -0.6784  0.9050 -1.6388
   93CHL1    C2 9335   2.729   1.944   6.994  0.2074  0.1596 -0.3769
   93CHL1   H2A 9336   2.794   1.884   6.928  1.6147 -0.7436  1.7494
   93CHL1   H2B 9337   2.745   2.052   6.970  0.2403  0.4545  0.9246
   93CHL1   C20 9338   2.708   1.937   7.946  0.1073 -0.7604 -0.2957
   93CHL1   H20 9339   2.655   2.033   7.964  1.3653 -0.2924  1.0422
   93CHL1   C21 9340   2.862   1.955   7.941  0.3489 -0.4157 -0.2704
   93CHL1  H21A 9341   2.896   2.030   8.016 -0.2503 -1.0990  0.6927
   93CHL1  H21B 9342   2.888   2.013   7.850 -3.6735  0.4353 -0.9808
   93CHL1  H21C 9343   2.914   1.857   7.943  0.5482 -0.3579 -1.6510
   93CHL1   C22 9344   2.683   1.847   8.070 -0.8919  0.5128 -0.0130
   93CHL1  H22A 9345   2.576   1.824   8.083 -0.6862 -1.0706 -0.9659
   93CHL1  H22B 9346   2.736   1.749   8.062 -2.5279 -0.4000  0.1682
   93CHL1   C23 9347   2.726   1.908   8.204 -0.0572 -0.1654  0.4383
   93CHL1  H23A 9348   2.836   1.893   8.207  0.3106  2.3404 -0.0975
   93CHL1  H23B 9349   2.698   2.015   8.198 -1.4323 -0.5917 -1.3217
   93CHL1   C24 9350   2.669   1.827   8.316 -0.2960 -0.0031 -0.0753
   93CHL1  H24A 9351   2.565   1.858   8.294 -0.1227 -0.3812 -1.5019
   93CHL1  H24B 9352   2.681   1.720   8.286  0.6398 -0.5501  2.1746
   93CHL1   C25 9353   2.720   1.863   8.458  0.1933  0.4004  0.1358
   93CHL1   H25 9354   2.727   1.974   8.460  0.0687  0.4160 -0.1507
   93CHL1   C26 9355   2.612   1.834   8.569 -0.2166  0.2006  0.2007
   93CHL1  H26A 9356   2.657   1.755   8.634  0.8101  1.0030  0.4800
   93CHL1  H26B 9357   2.593   1.925   8.630 -0.5813 -0.7392  1.5256
   93CHL1  H26C 9358   2.523   1.780   8.531 -0.1271  1.9530 -2.6200
   93CHL1   C27 9359   2.851   1.793   8.493 -0.0443 -1.0581 -0.3867
   93CHL1  H27A 9360   2.850   1.682   8.485 -1.1706 -1.1094  0.1981
   93CHL1  H27B 9361   2.931   1.824   8.424  1.2918 -0.7608  1.2499
   93CHL1  H27C 9362   2.886   1.815   8.596  0.2801  0.4265 -0.8029
   94CHL1    C3 9363   4.960   4.547   6.962 -0.2256 -1.0693 -0.4738
   94CHL1    H3 9364   4.948   4.440   6.935  0.2314 -1.8567  2.2128
   94CHL1    O3 9365   4.976   4.630   6.845  0.2390 -0.4751 -0.3364
   94CHL1   H3' 9366   4.981   4.716   6.888  0.2327  0.5224 -2.2620
   94CHL1    C4 9367   4.837   4.595   7.047  0.0007 -0.4299  0.4425
   94CHL1   H4A 9368   4.849   4.705   7.038  0.8287 -0.5267  0.3802
   94CHL1   H4B 9369   4.738   4.578   6.999 -0.0474 -0.4194  0.5400
   94CHL1    C5 9370   4.823   4.530   7.191 -0.2553  0.3091  0.5611
   94CHL1    C6 9371   4.712   4.469   7.236  0.0119 -0.3261  0.1892
   94CHL1    H6 9372   4.618   4.457   7.181 -1.1361 -0.6180  2.1815
   94CHL1    C7 9373   4.694   4.419   7.374  0.2398  0.3853 -0.8085
   94CHL1   H7A 9374   4.601   4.465   7.414  0.8449  0.4400  0.5727
   94CHL1   H7B 9375   4.687   4.309   7.387  2.3691  0.6356  3.5519
   94CHL1    C8 9376   4.811   4.468   7.468 -0.1263 -0.1105  0.8365
   94CHL1    H8 9377   4.797   4.574   7.500  0.1092 -0.3279  1.6763
   94CHL1   C14 9378   4.800   4.381   7.585 -0.0539  0.1138 -0.1895
   94CHL1   H14 9379   4.810   4.275   7.551 -0.3731 -0.1436  0.5067
   94CHL1   C15 9380   4.673   4.391   7.675  1.3398 -0.4173 -0.1349
   94CHL1  H15A 9381   4.623   4.488   7.653  1.3471 -0.4453 -0.2733
   94CHL1  H15B 9382   4.606   4.314   7.630  0.4768  0.8812 -1.1241
   94CHL1   C16 9383   4.717   4.357   7.821  0.4364  0.0102 -0.3563
   94CHL1  H16A 9384   4.724   4.450   7.880  0.2804  0.3858 -0.9300
   94CHL1  H16B 9385   4.646   4.288   7.871  0.5018 -0.4924 -0.9501
   94CHL1   C17 9386   4.858   4.298   7.811 -0.0570 -0.2212  1.5160
   94CHL1   H17 9387   4.840   4.189   7.794 -0.9333  0.2709 -0.8583
   94CHL1   C13 9388   4.916   4.385   7.682  0.5789  0.4922  0.0537
   94CHL1   C18 9389   4.936   4.525   7.730  0.8648  0.3523 -0.7024
   94CHL1  H18A 9390   4.971   4.592   7.649  1.3928  0.0262 -0.7446
   94CHL1  H18B 9391   4.846   4.573   7.775 -0.3676 -2.1583 -0.3639
   94CHL1  H18C 9392   5.017   4.533   7.806  0.0629  1.3794  0.0535
   94CHL1   C12 9393   5.042   4.337   7.622  0.9142 -0.7569  0.0853
   94CHL1  H12A 9394   5.124   4.337   7.697 -0.8851  0.2023  2.0872
   94CHL1  H12B 9395   5.033   4.232   7.587 -1.7237  0.8213 -4.4306
   94CHL1   C11 9396   5.064   4.425   7.490  0.0469 -0.0073  0.3758
   94CHL1  H11A 9397   5.118   4.520   7.512 -0.4415  0.2571  0.4148
   94CHL1  H11B 9398   5.143   4.360   7.446  1.8243 -0.6628  4.2900
   94CHL1    C9 9399   4.942   4.440   7.397  0.3901 -0.1446 -0.1876
   94CHL1    H9 9400   4.937   4.337   7.355 -0.4012 -0.9019  1.7009
   94CHL1   C10 9401   4.955   4.529   7.273  0.3850 -0.3385 -0.5780
   94CHL1   C19 9402   4.997   4.676   7.321  0.3524  0.4381 -0.1002
   94CHL1  H19A 9403   4.959   4.694   7.424  0.3508  0.7544 -0.1552
   94CHL1  H19B 9404   5.108   4.677   7.328  0.5239  0.2740 -2.4579
   94CHL1  H19C 9405   4.960   4.756   7.253 -0.8455  1.1978  1.3968
   94CHL1    C1 9406   5.073   4.478   7.176 -0.3925  0.7744  0.6970
   94CHL1   H1A 9407   5.167   4.478   7.236 -0.4291  1.1868  0.7475
   94CHL1   H1B 9408   5.062   4.375   7.136  1.9794  1.5221 -1.9972
   94CHL1    C2 9409   5.094   4.561   7.045  0.2987  0.3159 -0.2698
   94CHL1   H2A 9410   5.176   4.525   6.979  0.3572 -0.8123  0.4101
   94CHL1   H2B 9411   5.112   4.670   7.054 -0.3261  0.7025 -3.0401
   94CHL1   C20 9412   4.945   4.292   7.948  0.3167 -0.1562 -0.8539
   94CHL1   H20 9413   4.995   4.391   7.956  1.1127 -0.3886 -2.7716
   94CHL1   C21 9414   5.055   4.184   7.935  0.1417 -0.7161  0.3386
   94CHL1  H21A 9415   5.127   4.196   8.018 -1.6426  0.6184  1.7343
   94CHL1  H21B 9416   5.102   4.193   7.835  0.2987 -0.7269  0.4121
   94CHL1  H21C 9417   5.008   4.083   7.940 -3.9224  1.1230  0.7703
   94CHL1   C22 9418   4.853   4.269   8.073 -0.1078  0.0972  0.1705
   94CHL1  H22A 9419   4.799   4.365   8.089 -1.9404 -0.5907 -1.6214
   94CHL1  H22B 9420   4.777   4.189   8.065  0.3050 -0.1959 -0.8899
   94CHL1   C23 9421   4.942   4.247   8.194  0.0503  0.5853  0.2999
   94CHL1  H23A 9422   4.993   4.148   8.189 -0.7612  0.0537  2.1639
   94CHL1  H23B 9423   5.023   4.323   8.199  0.7770 -0.0903 -0.7993
   94CHL1   C24 9424   4.875   4.232   8.326  0.2150  0.6717 -0.3307
   94CHL1  H24A 9425   4.847   4.329   8.372 -1.6342  0.3406 -0.7191
   94CHL1  H24B 9426   4.777   4.181   8.320  0.7573 -0.2970 -1.1262
   94CHL1   C25 9427   4.959   4.172   8.427 -0.0629 -0.3802  0.5633
   94CHL1   H25 9428   4.983   4.067   8.397  0.0936  0.1283 -1.1504
   94CHL1   C26 9429   5.092   4.245   8.436 -0.3736  0.7632  0.1592
   94CHL1  H26A 9430   5.152   4.209   8.350 -2.2807  1.3421 -1.4385
   94CHL1  H26B 9431   5.076   4.354   8.420 -1.0275  0.8450  1.3319
   94CHL1  H26C 9432   5.151   4.239   8.530  1.5537 -3.5070 -1.2137
   94CHL1   C27 9433   4.900   4.146   8.569  0.2196  1.0552  0.4453
   94CHL1  H27A 9434   4.865   4.240   8.615 -1.8765  0.3050  0.4383
   94CHL1  H27B 9435   4.815   4.076   8.559  2.6296 -1.7490 -1.4688
   94CHL1  H27C 9436   4.973   4.095   8.637 -1.4405 -0.0309  1.4533
   95CHL1    C3 9437   4.947   3.097   6.896  0.3243 -0.4106  0.0328
   95CHL1    H3 9438   4.946   2.994   6.936  2.1992 -0.6078 -0.3761
   95CHL1    O3 9439   4.965   3.093   6.758  0.1845 -0.4421 -0.0224
   95CHL1   H3' 9440   4.984   3.182   6.727 -2.4865  0.2006 -0.0183
   95CHL1    C4 9441   4.804   3.151   6.923  0.4252  0.4910 -0.2774
   95CHL1   H4A 9442   4.804   3.253   6.878  0.3103 -0.0348 -1.4875
   95CHL1   H4B 9443   4.736   3.084   6.866  1.5510 -0.3506 -0.6589
   95CHL1    C5 9444   4.776   3.162   7.072  0.0455 -0.0958 -0.3455
   95CHL1    C6 9445   4.675   3.102   7.121 -0.3611 -0.0507  0.0764
   95CHL1    H6 9446   4.597   3.053   7.061 -0.0025 -0.7134  0.1559
   95CHL1    C7 9447   4.646   3.088   7.269  0.3304 -0.1273 -0.3246
   95CHL1   H7A 9448   4.543   3.126   7.286  0.5220  0.6127 -0.7829
   95CHL1   H7B 9449   4.665   2.984   7.302  0.6632  0.0992  0.2243
   95CHL1    C8 9450   4.725   3.194   7.359 -0.4802 -0.8832 -0.1227
   95CHL1    H8 9451   4.670   3.290   7.350 -1.1823 -1.2994 -0.2914
   95CHL1   C14 9452   4.725   3.141   7.502  0.1349  0.6930 -0.1073
   95CHL1   H14 9453   4.792   3.053   7.502  1.5822  1.7309  2.0142
   95CHL1   C15 9454   4.592   3.090   7.557 -0.2789  0.1531  0.0229
   95CHL1  H15A 9455   4.521   3.166   7.519  0.3836  0.6496 -0.2430
   95CHL1  H15B 9456   4.569   2.987   7.524 -0.2744 -0.1380  0.9138
   95CHL1   C16 9457   4.611   3.107   7.715 -0.2196  0.0586  0.0662
   95CHL1  H16A 9458   4.538   3.185   7.748  0.2017  0.6804 -0.4632
   95CHL1  H16B 9459   4.597   3.013   7.770  3.7081 -1.4804 -1.3840
   95CHL1   C17 9460   4.754   3.156   7.729  0.4310 -0.3916 -0.1353
   95CHL1   H17 9461   4.823   3.069   7.730  0.5747 -0.2860  1.4101
   95CHL1   C13 9462   4.786   3.242   7.600 -0.0571 -0.2895 -0.2580
   95CHL1   C18 9463   4.707   3.375   7.612 -0.6811 -0.1090  0.4134
   95CHL1  H18A 9464   4.737   3.437   7.699 -1.5188  1.4693 -0.3930
   95CHL1  H18B 9465   4.711   3.426   7.513 -1.1054 -1.6000 -0.3897
   95CHL1  H18C 9466   4.597   3.362   7.621 -0.8171  0.6502 -0.0873
   95CHL1   C12 9467   4.933   3.264   7.550 -0.7425 -0.5479  0.0241
   95CHL1  H12A 9468   4.972   3.354   7.602 -0.6017 -1.0478  0.7936
   95CHL1  H12B 9469   4.987   3.171   7.578 -1.0481 -0.3044  1.4698
   95CHL1   C11 9470   4.952   3.294   7.397 -0.1405  0.6360  0.6750
   95CHL1  H11A 9471   4.918   3.398   7.378 -0.2479  0.3944 -0.4884
   95CHL1  H11B 9472   5.060   3.292   7.373  0.4414 -1.1819  3.2704
   95CHL1    C9 9473   4.872   3.202   7.303  0.2171 -0.0121  0.1481
   95CHL1    H9 9474   4.913   3.101   7.324  4.3817  1.5234 -0.1077
   95CHL1   C10 9475   4.890   3.231   7.158 -0.0975  0.4973  0.2585
   95CHL1   C19 9476   4.875   3.381   7.127 -0.5412 -0.1137  0.4756
   95CHL1  H19A 9477   4.868   3.403   7.018 -1.4448  1.7877  0.8942
   95CHL1  H19B 9478   4.790   3.426   7.182  1.4481 -0.0070  3.5360
   95CHL1  H19C 9479   4.968   3.418   7.174  0.1577 -0.6969 -0.4143
   95CHL1    C1 9480   5.024   3.184   7.112 -0.3518 -0.5619  1.0511
   95CHL1   H1A 9481   5.107   3.239   7.162 -0.6244 -0.0915  0.9936
   95CHL1   H1B 9482   5.044   3.078   7.140  3.4939  0.0318  0.8358
   95CHL1    C2 9483   5.044   3.187   6.963 -0.1552 -0.2010 -0.2898
   95CHL1   H2A 9484   5.150   3.156   6.950 -0.2416 -1.9850  2.8512
   95CHL1   H2B 9485   5.021   3.293   6.936 -0.9447  0.2460  2.0753
   95CHL1   C20 9486   4.772   3.229   7.867 -0.8494  0.6926  0.8867
   95CHL1   H20 9487   4.690   3.305   7.873 -1.7706 -0.2817  0.8464
   95CHL1   C21 9488   4.913   3.293   7.865 -0.3671  0.3838 -0.4634
   95CHL1  H21A 9489   4.988   3.223   7.823  1.0454  2.1470 -0.9753
   95CHL1  H21B 9490   4.942   3.324   7.968  0.5438 -1.4543 -0.1394
   95CHL1  H21C 9491   4.913   3.387   7.806  1.2939  1.6156  1.4079
   95CHL1   C22 9492   4.760   3.132   7.986 -0.1012  0.6142 -0.2448
   95CHL1  H22A 9493   4.662   3.081   7.986 -0.7235  1.7918  0.0087
   95CHL1  H22B 9494   4.833   3.049   7.978 -0.1622  0.1943  2.7566
   95CHL1   C23 9495   4.773   3.196   8.120 -0.2977  0.8598 -0.1339
   95CHL1  H23A 9496   4.873   3.236   8.146 -0.7322  1.7034  0.2579
   95CHL1  H23B 9497   4.717   3.291   8.104  0.0631  0.7294 -2.2980
   95CHL1   C24 9498   4.712   3.121   8.239 -0.2657  0.7700  0.0298
   95CHL1  H24A 9499   4.605   3.103   8.214  0.7840 -0.7257 -3.7191
   95CHL1  H24B 9500   4.768   3.025   8.241  1.1544  1.5379 -2.2379
   95CHL1   C25 9501   4.725   3.180   8.382 -0.2182  0.0642 -0.4880
   95CHL1   H25 9502   4.683   3.105   8.452  2.2813  0.3444  1.3897
   95CHL1   C26 9503   4.869   3.198   8.422 -0.4740 -0.5534 -0.2450
   95CHL1  H26A 9504   4.928   3.104   8.424  1.4055  0.5618 -1.3538
   95CHL1  H26B 9505   4.912   3.271   8.350  0.2840 -0.5056  0.2510
   95CHL1  H26C 9506   4.887   3.244   8.522 -0.1507  0.3775 -0.7226
   95CHL1   C27 9507   4.637   3.303   8.397 -0.7755  0.3177  0.3533
   95CHL1  H27A 9508   4.667   3.369   8.313  1.6961 -1.2874 -0.0755
   95CHL1  H27B 9509   4.535   3.272   8.367 -0.2124 -1.9158  0.6113
   95CHL1  H27C 9510   4.645   3.350   8.497  0.7219 -1.3316  1.0414
   96CHL1    C3 9511   5.121   2.510   6.623 -0.3420 -0.2142 -0.0834
   96CHL1    H3 9512   5.031   2.575   6.628  0.6381  1.4294 -2.6472
   96CHL1    O3 9513   5.154   2.476   6.488 -0.1728  0.6250  0.0098
   96CHL1   H3' 9514   5.244   2.445   6.495 -0.0683  0.3543 -2.1291
   96CHL1    C4 9515   5.236   2.599   6.682 -0.6588 -0.0434  0.2976
   96CHL1   H4A 9516   5.336   2.555   6.663 -0.4407  1.0705 -1.2362
   96CHL1   H4B 9517   5.236   2.696   6.626  1.9147 -1.5469 -2.4635
   96CHL1    C5 9518   5.195   2.631   6.829  0.2914  0.2704 -0.0981
   96CHL1    C6 9519   5.181   2.755   6.878 -0.8782 -0.3321 -0.8941
   96CHL1    H6 9520   5.199   2.839   6.810 -1.8618  0.6758  0.0560
   96CHL1    C7 9521   5.170   2.791   7.023  0.6200 -0.5725  0.0423
   96CHL1   H7A 9522   5.226   2.887   7.031 -2.2742  1.3995 -2.3140
   96CHL1   H7B 9523   5.062   2.818   7.032  0.3346 -2.2531  1.9002
   96CHL1    C8 9524   5.196   2.668   7.113  0.1739  0.7359 -0.0428
   96CHL1    H8 9525   5.306   2.653   7.123 -0.1880 -2.4066 -0.5905
   96CHL1   C14 9526   5.129   2.704   7.250 -0.3285 -0.4794 -0.7731
   96CHL1   H14 9527   5.020   2.708   7.228 -0.0876 -0.1825 -1.9531
   96CHL1   C15 9528   5.155   2.836   7.333 -0.2884  0.1600  0.5383
   96CHL1  H15A 9529   5.265   2.850   7.331 -0.4359  1.3028 -1.6346
   96CHL1  H15B 9530   5.121   2.928   7.281 -1.9107 -0.4211  0.5218
   96CHL1   C16 9531   5.102   2.812   7.471 -0.1701 -0.1172  0.8870
   96CHL1  H16A 9532   5.181   2.840   7.543  0.3189 -1.5013  0.8970
   96CHL1  H16B 9533   5.014   2.875   7.496  0.9651  2.1614 -0.6640
   96CHL1   C17 9534   5.086   2.662   7.482  0.5536  0.3423 -0.0212
   96CHL1   H17 9535   4.976   2.654   7.468  0.4661  0.4720  0.5563
   96CHL1   C13 9536   5.147   2.597   7.355 -0.4647 -0.7953  0.0331
   96CHL1   C18 9537   5.294   2.574   7.391  0.4487  0.9706  0.5656
   96CHL1  H18A 9538   5.335   2.661   7.447 -2.7417  2.8405  0.1681
   96CHL1  H18B 9539   5.301   2.489   7.463  0.3510  1.6338  1.3656
   96CHL1  H18C 9540   5.356   2.538   7.307 -0.7784  0.8431 -0.2947
   96CHL1   C12 9541   5.081   2.464   7.300  0.2394  0.2647  0.3465
   96CHL1  H12A 9542   5.104   2.383   7.372 -0.5755  2.5115  3.2199
   96CHL1  H12B 9543   4.972   2.484   7.305  0.0052 -0.7176 -0.5958
   96CHL1   C11 9544   5.137   2.431   7.159 -0.4143 -0.1556 -0.3062
   96CHL1  H11A 9545   5.240   2.400   7.186 -0.4375  0.2157  0.2257
   96CHL1  H11B 9546   5.092   2.339   7.118  0.7947 -0.2754 -1.3733
   96CHL1    C9 9547   5.129   2.541   7.055 -0.8536  0.4751  0.1105
   96CHL1    H9 9548   5.024   2.577   7.044 -1.3399 -0.2123  2.2098
   96CHL1   C10 9549   5.175   2.509   6.917  0.4578  0.9666 -0.5030
   96CHL1   C19 9550   5.309   2.423   6.927  0.4192 -0.8684  0.1088
   96CHL1  H19A 9551   5.375   2.485   6.990 -0.4197  0.4131 -0.2689
   96CHL1  H19B 9552   5.295   2.325   6.977  1.2712 -1.2047 -0.3064
   96CHL1  H19C 9553   5.344   2.391   6.826 -0.4062 -0.9986 -0.1449
   96CHL1    C1 9554   5.070   2.408   6.854  0.4154 -0.5019  0.3988
   96CHL1   H1A 9555   5.063   2.312   6.909  2.2875 -2.0714 -2.0331
   96CHL1   H1B 9556   4.975   2.465   6.870 -0.0423 -0.3482 -2.5226
   96CHL1    C2 9557   5.094   2.383   6.702 -0.2137  0.0251  0.3302
   96CHL1   H2A 9558   5.018   2.320   6.651  2.2390 -1.4310 -1.6395
   96CHL1   H2B 9559   5.186   2.322   6.685  0.3878  1.4380 -1.6620
   96CHL1   C20 9560   5.118   2.614   7.626  0.3212 -0.4115  0.0715
   96CHL1   H20 9561   5.229   2.622   7.637  0.4111 -0.8992 -0.4624
   96CHL1   C21 9562   5.081   2.464   7.636  0.0986 -0.0387  0.4766
   96CHL1  H21A 9563   4.971   2.450   7.624  0.2949 -1.2906  0.0441
   96CHL1  H21B 9564   5.093   2.423   7.738 -0.7864 -1.2264  0.1128
   96CHL1  H21C 9565   5.135   2.405   7.559 -2.3110 -0.5209 -0.9002
   96CHL1   C22 9566   5.059   2.697   7.742  0.1736 -0.1859  0.2228
   96CHL1  H22A 9567   5.066   2.806   7.720 -0.0412 -0.1061  0.5528
   96CHL1  H22B 9568   4.952   2.670   7.756  0.1724 -1.9792 -2.7404
   96CHL1   C23 9569   5.131   2.672   7.879  0.3291 -0.4113 -0.2496
   96CHL1  H23A 9570   5.109   2.569   7.914 -1.9839 -1.0378 -3.3170
   96CHL1  H23B 9571   5.241   2.675   7.867  0.0540 -2.0057 -3.8407
   96CHL1   C24 9572   5.082   2.760   7.989 -0.1601  0.2134  0.2108
   96CHL1  H24A 9573   4.975   2.743   8.015  0.0077  2.5489  2.6173
   96CHL1  H24B 9574   5.141   2.736   8.081  1.0505  0.7436 -0.4136
   96CHL1   C25 9575   5.102   2.903   7.956 -0.5202 -0.1195  0.4410
   96CHL1   H25 9576   5.027   2.934   7.880  1.4297  2.0467 -0.6785
   96CHL1   C26 9577   5.089   2.988   8.079 -0.0692  0.1832  0.1371
   96CHL1  H26A 9578   5.102   3.091   8.039 -1.3258  0.3804  0.2039
   96CHL1  H26B 9579   4.992   3.004   8.131  1.3114  1.4098  2.4416
   96CHL1  H26C 9580   5.175   2.963   8.144 -0.9026 -0.4892  0.9935
   96CHL1   C27 9581   5.246   2.929   7.891  0.4930  0.0572 -0.0482
   96CHL1  H27A 9582   5.316   2.876   7.959  1.1092  0.9151 -0.0105
   96CHL1  H27B 9583   5.243   2.894   7.786  0.0531  2.5624 -0.9086
   96CHL1  H27C 9584   5.263   3.039   7.886 -0.2570  0.1054 -1.5275
   97OSM      N 9585   2.515   4.509  11.390 -0.4334 -0.1972  0.1397
   97OSM    C15 9586   2.643   4.564  11.445 -0.0994  0.1479  0.7079
   97OSM   H15A 9587   2.673   4.663  11.416  0.9741  0.3592  2.4526
   97OSM   H15B 9588   2.723   4.499  11.416 -0.0094  0.4377  0.3125
   97OSM   H15C 9589   2.643   4.562  11.553  2.3059 -2.3002  0.7103
   97OSM    C14 9590   2.477   4.388  11.464 -0.0996 -0.5136  0.2939
   97OSM   H14A 9591   2.479   4.419  11.568  2.1349 -1.3996  0.5454
   97OSM   H14B 9592   2.558   4.317  11.455 -1.3381 -1.6598 -2.2093
   97OSM   H14C 9593   2.380   4.349  11.439 -0.4203 -0.8700  2.0373
   97OSM    C13 9594   2.412   4.606  11.418 -0.3777  0.1581 -0.6911
   97OSM   H13A 9595   2.430   4.695  11.360  1.8822  0.2187  0.0263
   97OSM   H13B 9596   2.418   4.625  11.524  1.1068 -2.7826 -0.1784
   97OSM   H13C 9597   2.313   4.569  11.396  0.7085 -2.2009 -1.8441
   97OSM    C12 9598   2.516   4.495  11.237 -0.1551  0.4348  0.7098
   97OSM   H12A 9599   2.414   4.486  11.204  0.6878 -1.6922 -1.5055
   97OSM   H12B 9600   2.562   4.402  11.206 -0.3360  0.7850 -0.6012
   97OSM    C11 9601   2.579   4.611  11.160  0.5833  0.1635  0.9246
   97OSM   H11A 9602   2.576   4.579  11.053  1.5612  0.5456  0.7828
   97OSM   H11B 9603   2.686   4.616  11.188  0.5381 -1.4456  1.4414
   97OSM      P 9604   2.587   4.871  11.190  0.1326 -0.0717 -0.3827
   97OSM    O13 9605   2.489   4.976  11.221 -0.6486  0.4348  0.1270
   97OSM    O14 9606   2.707   4.873  11.278 -0.7677  0.2456  0.1914
   97OSM    O11 9607   2.634   4.890  11.035 -0.0542 -0.0198 -0.4738
   97OSM    O12 9608   2.514   4.736  11.180  0.6881  0.3162 -0.1820
   97OSM    C1S 9609   2.532   4.907  10.937 -0.3655 -0.7943  0.8108
   97OSM    H1S 9610   2.503   5.014  10.933 -2.3218 -1.3377 -0.6747
   97OSM    H1T 9611   2.438   4.851  10.957 -1.0926  0.1246  0.0387
   97OSM     NF 9612   2.463   4.901  10.707 -0.1771 -0.1081  0.5492
   97OSM    HNF 9613   2.418   4.824  10.664  0.6670 -1.2892  1.7213
   97OSM    C2S 9614   2.576   4.862  10.792  0.1704  0.4863  0.0878
   97OSM    H2S 9615   2.652   4.932  10.752 -1.8457  1.7242 -1.6335
   97OSM    C3S 9616   2.629   4.723  10.781  0.3644  0.6067 -0.2061
   97OSM    H3S 9617   2.549   4.651  10.808  2.0156 -1.2160 -0.1347
   97OSM     O3 9618   2.730   4.696  10.876 -0.2285  0.4841 -0.4403
   97OSM    HO3 9619   2.731   4.774  10.933 -0.0568  0.7907 -0.8574
   97OSM    C4S 9620   2.693   4.691  10.645 -0.3754  0.0981  0.1769
   97OSM    H4S 9621   2.777   4.750  10.607 -0.5254  0.1341 -0.0963
   97OSM    C5S 9622   2.635   4.604  10.559 -0.1676  0.7511 -0.4701
   97OSM    H5S 9623   2.539   4.554  10.578  0.8396 -0.6131  1.1929
   97OSM    C6S 9624   2.692   4.575  10.417  0.1736 -0.0392  0.2073
   97OSM    H6S 9625   2.729   4.471  10.422 -0.6132 -0.3165  0.4165
   97OSM    H6T 9626   2.778   4.639  10.390 -0.0518 -0.2951 -1.1612
   97OSM    C7S 9627   2.591   4.594  10.297 -0.3022  0.6253 -0.7675
   97OSM    H7S 9628   2.640   4.569  10.201 -0.9102  1.4777 -1.3065
   97OSM    H7T 9629   2.546   4.696  10.295 -1.2457  0.2094 -0.6162
   97OSM    C8S 9630   2.476   4.493  10.303  0.5432  0.3065 -0.6631
   97OSM    H8S 9631   2.423   4.484  10.401 -0.6174 -1.3218 -1.4136
   97OSM    H8T 9632   2.517   4.393  10.276  1.4029  1.2711 -2.9507
   97OSM    C9S 9633   2.368   4.506  10.193  0.2696 -0.1210 -1.5797
   97OSM    H9S 9634   2.302   4.591  10.220  1.8975  0.6296  0.2594
   97OSM    H9T 9635   2.313   4.410  10.189  0.6611 -0.4360 -0.0314
   97OSM   C10S 9636   2.422   4.532  10.055  0.1066  0.1726 -0.7343
   97OSM   H10S 9637   2.495   4.455  10.023  1.7945  1.7930 -0.8756
   97OSM   H10T 9638   2.471   4.632  10.055  0.6476 -0.0633  0.9316
   97OSM   C11S 9639   2.307   4.535   9.958  0.4625 -0.0761 -0.2135
   97OSM   H11S 9640   2.231   4.606   9.997  0.3385  0.5879 -1.6422
   97OSM   H11T 9641   2.258   4.436   9.967 -0.7910  0.3388 -2.2161
   97OSM   C12S 9642   2.358   4.572   9.814  0.5162 -0.4034  0.4897
   97OSM   H12S 9643   2.413   4.486   9.769 -2.3088 -2.6945  1.2092
   97OSM   H12T 9644   2.417   4.666   9.815  1.3482 -0.8811 -1.3245
   97OSM   C13S 9645   2.243   4.581   9.705 -0.0772  0.2328 -1.3999
   97OSM   H13S 9646   2.176   4.663   9.738  0.9709  0.8558 -0.8218
   97OSM   H13T 9647   2.180   4.489   9.697 -0.4708  0.5446 -1.9547
   97OSM   C14S 9648   2.285   4.613   9.563  0.0009  0.5407  0.0902
   97OSM   H14S 9649   2.345   4.706   9.553  1.3213 -0.3063  0.0255
   97OSM   H14T 9650   2.187   4.633   9.515  0.7170  0.3509 -1.4868
   97OSM   C15S 9651   2.359   4.499   9.483 -0.4833 -0.1921  0.6923
   97OSM   H15S 9652   2.318   4.397   9.498  0.2969 -0.5430  0.4442
   97OSM   H15T 9653   2.465   4.488   9.514  0.1676 -0.7015 -1.6531
   97OSM   C16S 9654   2.339   4.521   9.329 -0.1067 -0.3020  0.3957
   97OSM   H16S 9655   2.358   4.625   9.296  0.5152 -0.7122 -0.5790
   97OSM   H16T 9656   2.234   4.505   9.296  0.0423 -1.2312  0.3575
   97OSM   C17S 9657   2.434   4.430   9.252 -0.3523  0.5533 -0.2412
   97OSM   H17S 9658   2.426   4.328   9.294 -1.2247  0.6455 -0.1734
   97OSM   H17T 9659   2.541   4.459   9.257  0.2708 -1.8933  1.7686
   97OSM   C18S 9660   2.394   4.409   9.104  0.4114 -0.4206  0.0666
   97OSM   H18S 9661   2.404   4.500   9.040 -1.4608  1.8750  2.8893
   97OSM   H18T 9662   2.285   4.388   9.109  0.1047  0.8620 -0.7789
   97OSM   H18U 9663   2.447   4.320   9.064 -0.0331 -0.1495 -1.1659
   97OSM    C1F 9664   2.439   5.026  10.663 -0.0529  0.4056 -0.4973
   97OSM     OF 9665   2.505   5.118  10.708 -0.2999  0.4616 -0.2570
   97OSM    C2F 9666   2.358   5.031  10.538 -0.3336 -0.2130 -0.1848
   97OSM    H2F 9667   2.340   5.140  10.522 -0.5165 -0.0806  0.8920
   97OSM    H2G 9668   2.262   4.976  10.549 -2.1791  3.0146  0.5631
   97OSM    C3F 9669   2.437   4.976  10.420  0.4105 -1.0038  0.2841
   97OSM    H3F 9670   2.383   4.971  10.324 -1.4936  2.5619  1.0852
   97OSM    H3G 9671   2.473   4.874  10.445  0.5238 -1.1612 -0.5146
   97OSM    C4F 9672   2.569   5.056  10.389 -0.2858  0.1950  0.2660
   97OSM    H4F 9673   2.647   5.033  10.465  0.3827 -3.6703 -1.5124
   97OSM    H4G 9674   2.550   5.166  10.391  0.5588  0.3207  2.8797
   97OSM    C5F 9675   2.642   5.010  10.264  0.3265 -0.2012 -0.0472
   97OSM    H5F 9676   2.600   5.051  10.170  0.7907 -0.4404 -0.3596
   97OSM    H5G 9677   2.631   4.899  10.261 -3.6751  0.1211 -0.4537
   97OSM    C6F 9678   2.793   5.032  10.282 -0.4718  1.2480 -0.5246
   97OSM    H6F 9679   2.836   4.986  10.374 -0.1948  1.8013 -0.3811
   97OSM    H6G 9680   2.806   5.141  10.296 -0.4886  1.1399  0.4110
   97OSM    C7F 9681   2.878   4.969  10.168 -0.6648  0.3188  0.0891
   97OSM    H7F 9682   2.862   4.860  10.184 -2.1226  0.7756  1.8889
   97OSM    H7G 9683   2.987   4.986  10.184 -0.7547  0.8212  0.1439
   97OSM    C8F 9684   2.835   5.007  10.023 -0.0691  0.3491 -0.5078
   97OSM    H8F 9685   2.738   4.958   9.999 -0.7791  1.3757  0.2267
   97OSM    H8G 9686   2.909   4.947   9.966 -0.6192 -0.0487 -0.8082
   97OSM    C9F 9687   2.826   5.149   9.985  0.0845  0.3022  0.2487
   97OSM    H9F 9688   2.806   5.232  10.055 -1.6774  0.3339 -0.2696
   97OSM   C10F 9689   2.854   5.183   9.852 -0.2993  0.3180 -0.2372
   97OSM   H10F 9690   2.836   5.286   9.817 -2.8715 -0.2131 -0.5600
   97OSM   C11F 9691   2.872   5.089   9.738  1.0123 -0.0778 -0.0356
   97OSM   H11F 9692   2.772   5.047   9.711 -0.3257  2.4201  0.8759
   97OSM   H11G 9693   2.930   4.995   9.750  0.3517 -0.9890 -3.3239
   97OSM   C12F 9694   2.906   5.177   9.613 -0.0019  0.1294  0.3515
   97OSM   H12F 9695   3.014   5.206   9.614 -0.2141  0.9330 -0.1004
   97OSM   H12G 9696   2.841   5.263   9.588 -0.8665 -0.8514 -0.7708
   97OSM   C13F 9697   2.895   5.094   9.481 -0.7131 -1.1087 -0.1506
   97OSM   H13F 9698   2.790   5.075   9.451 -0.9448 -0.7195  0.3922
   97OSM   H13G 9699   2.944   4.997   9.505 -0.7806 -0.5975  2.2117
   97OSM   C14F 9700   2.958   5.168   9.362 -0.8546  0.3590 -0.3388
   97OSM   H14F 9701   3.059   5.201   9.394 -0.4176  0.1401 -1.4659
   97OSM   H14G 9702   2.901   5.258   9.329  0.1789  1.0438 -0.2729
   97OSM   C15F 9703   2.987   5.080   9.245 -0.2262 -0.5014  0.4883
   97OSM   H15F 9704   2.897   5.034   9.199  0.4216 -1.6130  0.3155
   97OSM   H15G 9705   3.038   4.990   9.286 -0.4358  0.2357  2.4159
   97OSM   C16F 9706   3.066   5.137   9.127 -0.1309 -0.1951 -0.2523
   97OSM   H16F 9707   3.171   5.153   9.162  0.0208  1.5904 -1.4686
   97OSM   H16G 9708   3.023   5.233   9.091 -0.3091  0.4930  1.7179
   97OSM   C17F 9709   3.089   5.052   9.001 -0.2507  0.2664  0.4600
   97OSM   H17F 9710   3.129   5.127   8.930 -1.2984  0.8521  0.4740
   97OSM   H17G 9711   2.994   5.005   8.967 -0.2444 -0.3702  1.3094
   97OSM   C18F 9712   3.186   4.938   9.016  0.3639 -0.2866 -0.5713
   97OSM   H18F 9713   3.277   4.968   9.071  1.2094  1.0088 -2.6507
   97OSM   H18G 9714   3.209   4.900   8.914  1.6751 -0.7099 -0.1209
   97OSM   H18H 9715   3.130   4.856   9.066 -0.9324  0.6420 -0.4537
   98OSM      N 9716   2.076   4.942  11.173 -0.1173  0.0963 -0.5266
   98OSM    C15 9717   2.199   4.864  11.144 -1.2778 -0.5028 -0.4745
   98OSM   H15A 9718   2.205   4.761  11.177  0.7969 -0.5904 -1.0966
   98OSM   H15B 9719   2.279   4.926  11.181 -2.0977  1.7769 -2.4866
   98OSM   H15C 9720   2.218   4.856  11.038 -0.7299 -2.1432 -0.2799
   98OSM    C14 9721   2.065   4.961  11.326 -0.3774  0.1743  0.3921
   98OSM   H14A 9722   1.971   5.011  11.346 -2.4151 -3.0523 -0.8907
   98OSM   H14B 9723   2.153   5.014  11.360 -0.1023 -1.4074  2.1902
   98OSM   H14C 9724   2.069   4.868  11.381 -0.7171  1.3454  2.4592
   98OSM    C13 9725   2.081   5.078  11.108  0.1810 -0.4765 -0.1180
   98OSM   H13A 9726   2.004   5.147  11.137  0.5924  0.1264 -0.4495
   98OSM   H13B 9727   2.086   5.058  11.002  1.1944 -0.9357  0.0053
   98OSM   H13C 9728   2.179   5.118  11.130 -0.4449  1.7766 -1.3045
   98OSM    C12 9729   1.947   4.865  11.127  0.3867  0.4840 -0.0128
   98OSM   H12A 9730   1.858   4.920  11.155 -0.2310 -1.1424  1.2729
   98OSM   H12B 9731   1.934   4.767  11.171 -1.3204 -0.3309 -2.2587
   98OSM    C11 9732   1.934   4.834  10.973 -0.5327 -0.5060  0.0667
   98OSM   H11A 9733   1.923   4.930  10.919 -0.1357 -0.7384 -0.4225
   98OSM   H11B 9734   1.842   4.772  10.971 -0.7472 -0.2016  0.2772
   98OSM      P 9735   2.035   4.601  10.921  0.5261  0.1704  0.2347
   98OSM    O13 9736   2.153   4.545  10.852 -0.0968  0.2313 -0.0894
   98OSM    O14 9737   2.013   4.542  11.057 -0.3789 -1.2856 -0.1847
   98OSM    O11 9738   1.897   4.572  10.836  0.0970 -0.3840 -0.3236
   98OSM    O12 9739   2.041   4.762  10.926  0.3472  0.3856 -0.0623
   98OSM    C1S 9740   1.902   4.614  10.690 -0.3619 -0.2839 -0.1620
   98OSM    H1S 9741   1.978   4.692  10.666 -0.4539  0.3245  1.4076
   98OSM    H1T 9742   1.807   4.667  10.665  0.8849  1.6416 -0.9443
   98OSM     NF 9743   1.907   4.556  10.450  0.2867 -0.2834  0.6098
   98OSM    HNF 9744   1.825   4.536  10.397 -0.0545 -0.3536  1.1648
   98OSM    C2S 9745   1.913   4.501  10.586  0.3778  0.3336  0.6467
   98OSM    H2S 9746   2.012   4.453  10.602  0.8183  0.1588 -2.3082
   98OSM    C3S 9747   1.791   4.397  10.607 -0.5746 -0.0661  0.0922
   98OSM    H3S 9748   1.699   4.456  10.587 -0.5309 -0.0817 -0.1502
   98OSM     O3 9749   1.795   4.348  10.737  0.1815 -0.0197  0.3461
   98OSM    HO3 9750   1.843   4.408  10.794  0.1568 -1.8292  2.3362
   98OSM    C4S 9751   1.812   4.283  10.508  0.0477 -0.3643 -0.6366
   98OSM    H4S 9752   1.908   4.231  10.520 -0.2037 -0.4080  1.2952
   98OSM    C5S 9753   1.729   4.235  10.415  0.6463  0.7970 -0.5651
   98OSM    H5S 9754   1.630   4.285  10.411 -1.5585 -3.0999  2.1575
   98OSM    C6S 9755   1.767   4.119  10.320 -0.7640 -0.0776  0.6159
   98OSM    H6S 9756   1.675   4.066  10.288  0.6878 -2.4506  0.2433
   98OSM    H6T 9757   1.818   4.036  10.372 -0.1004  0.1645  0.3612
   98OSM    C7S 9758   1.850   4.159  10.195  1.0002  0.1439 -0.6019
   98OSM    H7S 9759   1.876   4.065  10.140  1.4808  0.3230 -0.6853
   98OSM    H7T 9760   1.946   4.203  10.229  1.4995  0.3682 -2.2367
   98OSM    C8S 9761   1.774   4.243  10.095 -0.1677 -0.0586 -0.0069
   98OSM    H8S 9762   1.735   4.339  10.135  2.2289  0.3238  1.4469
   98OSM    H8T 9763   1.683   4.187  10.065 -0.2237 -0.3755  0.7475
   98OSM    C9S 9764   1.864   4.273   9.974 -0.3896 -0.0425  0.0144
   98OSM    H9S 9765   1.919   4.184   9.936 -2.1719 -1.3338  0.3855
   98OSM    H9T 9766   1.946   4.347   9.989  0.2086 -0.9288  1.2002
   98OSM   C10S 9767   1.779   4.324   9.859  0.4084  0.3372  0.2862
   98OSM   H10S 9768   1.712   4.409   9.885  0.2627 -0.1142  1.4336
   98OSM   H10T 9769   1.726   4.235   9.820 -1.2509  1.3990  0.0724
   98OSM   C11S 9770   1.877   4.381   9.752 -0.6516  0.3570  0.2855
   98OSM   H11S 9771   1.951   4.306   9.717 -2.4390 -0.7176 -1.2790
   98OSM   H11T 9772   1.944   4.458   9.797  1.4364 -0.8265 -0.7534
   98OSM   C12S 9773   1.803   4.440   9.636  0.1852 -0.3338  0.4779
   98OSM   H12S 9774   1.727   4.516   9.662  0.4915  1.4927 -3.6230
   98OSM   H12T 9775   1.753   4.355   9.585 -0.3389  0.2079  0.0935
   98OSM   C13S 9776   1.890   4.505   9.524  0.0199  0.7050  0.0637
   98OSM   H13S 9777   1.975   4.441   9.495  0.4996  1.4691 -0.2342
   98OSM   H13T 9778   1.951   4.578   9.582  1.6063 -0.2150 -0.4308
   98OSM   C14S 9779   1.837   4.579   9.406  0.4830  0.4640 -0.2703
   98OSM   H14S 9780   1.761   4.657   9.429 -2.2895 -1.4135 -2.6530
   98OSM   H14T 9781   1.786   4.499   9.348  0.7812 -0.4951  0.7730
   98OSM   C15S 9782   1.942   4.641   9.306 -0.8756 -0.1214 -0.0523
   98OSM   H15S 9783   2.029   4.571   9.305  0.2707  1.2445  1.2104
   98OSM   H15T 9784   1.978   4.741   9.337  0.2085 -0.0967 -1.3292
   98OSM   C16S 9785   1.887   4.643   9.164  0.2044 -0.0510  0.3102
   98OSM   H16S 9786   1.817   4.729   9.150 -0.0107  0.0203  1.7301
   98OSM   H16T 9787   1.829   4.550   9.143 -2.2106  1.4970 -0.1093
   98OSM   C17S 9788   1.996   4.652   9.056  0.4662  0.2845 -0.3573
   98OSM   H17S 9789   2.079   4.698   9.114  0.1778 -1.9382  1.9267
   98OSM   H17T 9790   1.968   4.718   8.971  0.4774  0.1929 -0.4320
   98OSM   C18S 9791   2.025   4.517   8.994  0.3451 -0.4910  0.0209
   98OSM   H18S 9792   1.940   4.457   8.957 -0.0204 -1.6716  2.6702
   98OSM   H18T 9793   2.082   4.456   9.067 -0.0368 -3.1159 -1.8051
   98OSM   H18U 9794   2.098   4.517   8.911 -0.1731  0.7531 -0.4531
   98OSM    C1F 9795   2.019   4.606  10.397 -0.2430 -0.1817 -0.1651
   98OSM     OF 9796   2.129   4.583  10.443 -0.4154 -0.1941  0.4289
   98OSM    C2F 9797   2.001   4.689  10.276  0.1999  0.5303  0.3769
   98OSM    H2F 9798   1.899   4.669  10.237  0.9316 -3.0443  0.1761
   98OSM    H2G 9799   2.071   4.651  10.199  1.4602  0.7398  1.4121
   98OSM    C3F 9800   2.028   4.843  10.309  0.2436  0.1473  0.4007
   98OSM    H3F 9801   2.128   4.855  10.356  0.3322  2.7550 -0.3468
   98OSM    H3G 9802   1.959   4.870  10.392 -0.8576 -0.4210 -0.3168
   98OSM    C4F 9803   2.008   4.935  10.191 -0.8222 -0.6610  0.6388
   98OSM    H4F 9804   2.056   5.035  10.200 -0.1565 -1.0635  1.6458
   98OSM    H4G 9805   1.900   4.957  10.180 -1.0480  0.4076  4.3858
   98OSM    C5F 9806   2.061   4.871  10.060  0.2257 -0.3483  0.1123
   98OSM    H5F 9807   1.974   4.813  10.023  1.6148  0.1243 -4.2635
   98OSM    H5G 9808   2.148   4.803  10.073  1.0178  0.7106  0.4363
   98OSM    C6F 9809   2.080   4.970   9.942 -0.0335 -0.1251  0.0848
   98OSM    H6F 9810   2.016   5.060   9.932  0.0586 -0.2333 -1.6205
   98OSM    H6G 9811   2.069   4.911   9.848 -3.1804 -1.1978  1.0920
   98OSM    C7F 9812   2.226   5.029   9.948 -0.6731 -0.2234 -0.6747
   98OSM    H7F 9813   2.299   4.952   9.981 -0.8943  0.2998  1.0788
   98OSM    H7G 9814   2.227   5.097  10.036 -1.4250 -1.6225  0.4218
   98OSM    C8F 9815   2.257   5.107   9.816  0.7631  0.2082 -0.2685
   98OSM    H8F 9816   2.185   5.187   9.786 -1.0885 -1.4247 -0.2973
   98OSM    H8G 9817   2.255   5.037   9.729 -1.8055  2.4173 -2.0917
   98OSM    C9F 9818   2.392   5.154   9.831 -0.4387  0.1038 -0.1280
   98OSM    H9F 9819   2.439   5.131   9.928 -0.1445  0.1031 -0.2730
   98OSM   C10F 9820   2.471   5.218   9.737  0.8235 -1.0214  0.3447
   98OSM   H10F 9821   2.575   5.239   9.766  0.6664 -0.3932  0.4651
   98OSM   C11F 9822   2.422   5.242   9.600  0.7455  0.2345  0.1220
   98OSM   H11F 9823   2.430   5.351   9.580  0.7668  0.3904  0.9511
   98OSM   H11G 9824   2.317   5.209   9.587  0.8997  0.4945 -1.9823
   98OSM   C12F 9825   2.510   5.172   9.501 -0.7952 -0.4024 -0.1719
   98OSM   H12F 9826   2.542   5.079   9.552 -2.6273 -0.2112  1.3928
   98OSM   H12G 9827   2.603   5.231   9.488 -0.9735  0.1354  0.8852
   98OSM   C13F 9828   2.451   5.148   9.360 -0.4523 -0.0539 -0.1681
   98OSM   H13F 9829   2.532   5.125   9.288 -0.5695 -0.4901 -0.1623
   98OSM   H13G 9830   2.414   5.248   9.331  0.2346 -0.0408 -1.0177
   98OSM   C14F 9831   2.347   5.045   9.343  0.2746  0.7705 -0.1609
   98OSM   H14F 9832   2.256   5.078   9.398 -0.4572  1.3300 -1.6861
   98OSM   H14G 9833   2.390   4.955   9.392  1.1574  0.8057 -0.8639
   98OSM   C15F 9834   2.312   5.014   9.191  0.0807 -0.3949  0.1780
   98OSM   H15F 9835   2.272   5.109   9.147  0.9311  0.9742  2.2792
   98OSM   H15G 9836   2.228   4.941   9.194  0.0459 -0.5075 -2.2686
   98OSM   C16F 9837   2.422   4.948   9.110  0.2956  0.4642 -0.6525
   98OSM   H16F 9838   2.424   4.839   9.134 -1.6118  0.5113 -0.2334
   98OSM   H16G 9839   2.524   4.990   9.122  0.3338 -0.1515  1.3189
   98OSM   C17F 9840   2.391   4.962   8.961  0.0153 -0.1155 -0.3684
   98OSM   H17F 9841   2.349   5.063   8.941  2.1432  1.2134  1.5868
   98OSM   H17G 9842   2.306   4.894   8.941  0.5709 -0.5602 -1.2806
   98OSM   C18F 9843   2.511   4.946   8.865  0.8490 -0.0802 -0.4596
   98OSM   H18F 9844   2.553   4.844   8.876  1.8582  0.2191 -1.5473
   98OSM   H18G 9845   2.597   5.013   8.884 -0.0383  1.1138 -0.5220
   98OSM   H18H 9846   2.481   4.966   8.760 -1.0570 -0.1643  0.0431
   99OSM      N 9847   3.982   5.071  10.962 -0.2416 -0.0511  0.5927
   99OSM    C15 9848   4.061   4.942  10.945 -0.2932  0.0066  0.2247
   99OSM   H15A 9849   4.015   4.877  10.872 -0.4003  1.5588 -1.1199
   99OSM   H15B 9850   4.084   4.895  11.040  1.7881  0.7706  0.1273
   99OSM   H15C 9851   4.162   4.962  10.911 -0.4767  0.8128  0.1373
   99OSM    C14 9852   3.858   5.035  11.034  0.6020 -0.8426 -0.4883
   99OSM   H14A 9853   3.779   4.990  10.975 -2.2283  1.6987  1.2361
   99OSM   H14B 9854   3.812   5.127  11.067  0.6843 -0.2918 -1.8603
   99OSM   H14C 9855   3.878   4.973  11.120 -0.0807 -0.4971 -0.0844
   99OSM    C13 9856   4.054   5.165  11.054  0.2193 -0.5816  0.3735
   99OSM   H13A 9857   4.155   5.182  11.020  0.3850 -1.2182  0.5445
   99OSM   H13B 9858   4.051   5.120  11.152 -0.3409 -0.7932  0.2648
   99OSM   H13C 9859   4.002   5.258  11.073  0.9849 -0.0826  0.0254
   99OSM    C12 9860   3.957   5.141  10.828  0.3663  0.2900  0.7526
   99OSM   H12A 9861   3.914   5.063  10.767 -1.0700  0.7419  1.1644
   99OSM   H12B 9862   4.054   5.168  10.789 -0.4793 -1.5199 -2.8642
   99OSM    C11 9863   3.875   5.274  10.818  0.4903 -0.3432 -0.3473
   99OSM   H11A 9864   3.774   5.248  10.858  2.0775 -3.3091  1.9335
   99OSM   H11B 9865   3.863   5.306  10.712  1.6069 -2.7183 -1.2187
   99OSM      P 9866   4.068   5.442  10.842 -0.0851 -0.2160 -0.5477
   99OSM    O13 9867   4.103   5.546  10.942 -0.0906 -0.5763  0.6384
   99OSM    O14 9868   4.167   5.334  10.813 -0.4612  0.5848  0.2434
   99OSM    O11 9869   4.035   5.517  10.716  0.1540 -0.0740  0.2245
   99OSM    O12 9870   3.928   5.383  10.897 -0.4784  0.0209  0.1807
   99OSM    C1S 9871   4.105   5.630  10.666  0.1515 -0.3925  0.1373
   99OSM    H1S 9872   4.192   5.666  10.724  3.2022 -0.0663 -4.3955
   99OSM    H1T 9873   4.037   5.716  10.651  2.5364  1.6910  0.9546
   99OSM     NF 9874   4.243   5.691  10.468 -0.0327 -0.2118 -0.2074
   99OSM    HNF 9875   4.212   5.752  10.396 -2.5876 -2.3622 -0.9780
   99OSM    C2S 9876   4.142   5.600  10.518  0.2932  0.2216 -0.8870
   99OSM    H2S 9877   4.179   5.496  10.514 -0.3749  0.0097 -1.6182
   99OSM    C3S 9878   4.013   5.595  10.436  0.7286  0.3838 -0.1499
   99OSM    H3S 9879   3.962   5.693  10.430 -0.4923 -0.2943 -1.0179
   99OSM     O3 9880   3.901   5.521  10.479 -0.4310 -0.4122  0.3309
   99OSM    HO3 9881   3.938   5.476  10.556 -0.2260  0.5646  0.8147
   99OSM    C4S 9882   4.059   5.553  10.290 -0.5483  0.5932 -0.1583
   99OSM    H4S 9883   4.111   5.627  10.228  2.1863 -1.1294 -0.0138
   99OSM    C5S 9884   4.048   5.430  10.237 -0.2462 -0.1378 -0.2204
   99OSM    H5S 9885   4.024   5.343  10.299 -2.6556  0.9119  0.3909
   99OSM    C6S 9886   4.088   5.386  10.085 -0.6783 -0.0799 -0.0573
   99OSM    H6S 9887   4.015   5.306  10.060 -1.7207  0.9227 -0.2778
   99OSM    H6T 9888   4.188   5.341  10.069 -1.2521 -0.3316 -3.2295
   99OSM    C7S 9889   4.076   5.505   9.984  0.1440  0.4522  0.6848
   99OSM    H7S 9890   4.155   5.580  10.008  1.4492 -0.6937  0.0664
   99OSM    H7T 9891   3.976   5.551   9.995 -0.2959 -0.8249  2.2791
   99OSM    C8S 9892   4.088   5.465   9.831 -0.0183  0.1485  0.5734
   99OSM    H8S 9893   4.112   5.558   9.774  1.7624  0.6699  2.1416
   99OSM    H8T 9894   3.993   5.412   9.808  0.0713  0.8326 -1.5181
   99OSM    C9S 9895   4.197   5.367   9.803 -0.1305  0.2773 -0.1912
   99OSM    H9S 9896   4.193   5.276   9.866 -2.7340  0.1431 -0.5013
   99OSM    H9T 9897   4.293   5.421   9.821  0.0027 -0.5606  1.8052
   99OSM   C10S 9898   4.182   5.307   9.660  0.1979 -0.3464  0.7270
   99OSM   H10S 9899   4.174   5.382   9.579 -1.5767 -0.3175  0.9056
   99OSM   H10T 9900   4.081   5.261   9.661  0.5738 -1.3067 -2.2770
   99OSM   C11S 9901   4.274   5.192   9.618  0.1623 -0.0478 -0.1598
   99OSM   H11S 9902   4.220   5.126   9.548 -2.7452  1.8343  0.2239
   99OSM   H11T 9903   4.298   5.134   9.710 -0.8981 -0.1891  0.0405
   99OSM   C12S 9904   4.399   5.237   9.541 -0.3236  0.4835 -0.4002
   99OSM   H12S 9905   4.464   5.302   9.604  0.2431 -0.1842 -0.2823
   99OSM   H12T 9906   4.464   5.148   9.525  0.4868  0.7495  1.2314
   99OSM   C13S 9907   4.372   5.312   9.411  0.3044 -0.4291 -0.4688
   99OSM   H13S 9908   4.333   5.414   9.428 -0.1375 -0.6136 -0.3789
   99OSM   H13T 9909   4.291   5.257   9.358  0.9644  0.0910 -2.0434
   99OSM   C14S 9910   4.486   5.308   9.307  0.0121 -0.6453 -0.6166
   99OSM   H14S 9911   4.579   5.336   9.362 -0.2969  0.8247 -0.8183
   99OSM   H14T 9912   4.470   5.387   9.230 -0.0510 -1.2126 -1.1865
   99OSM   C15S 9913   4.496   5.178   9.229  0.7082  0.3808  0.2172
   99OSM   H15S 9914   4.399   5.157   9.179 -0.1448  0.2196  1.9123
   99OSM   H15T 9915   4.517   5.110   9.314  2.0161  2.2703  1.4606
   99OSM   C16S 9916   4.613   5.178   9.125  0.2924 -0.1749  0.1900
   99OSM   H16S 9917   4.640   5.072   9.111  0.1340 -0.4583  1.9343
   99OSM   H16T 9918   4.702   5.236   9.161 -0.4618  0.2305  1.4388
   99OSM   C17S 9919   4.566   5.239   8.989  0.1200 -0.1520  0.0645
   99OSM   H17S 9920   4.659   5.243   8.928  0.0824  2.2744  0.1202
   99OSM   H17T 9921   4.534   5.343   9.010  0.4251 -0.0585  0.0746
   99OSM   C18S 9922   4.449   5.164   8.921  0.4029 -0.4637  0.9469
   99OSM   H18S 9923   4.479   5.165   8.814 -0.3971  0.0152  0.7273
   99OSM   H18T 9924   4.356   5.221   8.937  0.9591  0.6845  0.1383
   99OSM   H18U 9925   4.450   5.056   8.950 -0.0543 -0.2186  1.8880
   99OSM    C1F 9926   4.364   5.703  10.510 -0.1047  0.7655 -1.1514
   99OSM     OF 9927   4.408   5.632  10.600 -0.8451 -0.1158 -0.0309
   99OSM    C2F 9928   4.442   5.819  10.458  0.0068  0.0041  0.0519
   99OSM    H2F 9929   4.511   5.852  10.539  0.4315 -2.9498  0.9536
   99OSM    H2G 9930   4.380   5.910  10.443  0.3351 -0.0550 -1.7146
   99OSM    C3F 9931   4.533   5.792  10.348 -0.2077 -0.6575  0.0391
   99OSM    H3F 9932   4.611   5.871  10.355 -1.6581  0.8043 -0.2600
   99OSM    H3G 9933   4.578   5.690  10.354  0.4817 -0.3121  0.8551
   99OSM    C4F 9934   4.463   5.785  10.209  0.2181  0.3330  0.3528
   99OSM    H4F 9935   4.396   5.870  10.183  2.7054  2.1118 -0.3396
   99OSM    H4G 9936   4.412   5.687  10.193 -0.3747  0.5454  0.9182
   99OSM    C5F 9937   4.570   5.788  10.096 -0.4204  0.6813 -1.0408
   99OSM    H5F 9938   4.637   5.702  10.117  1.1587  2.0453 -0.3910
   99OSM    H5G 9939   4.623   5.885  10.098 -1.3073  1.1651 -1.1194
   99OSM    C6F 9940   4.513   5.781   9.957 -0.5310 -0.0533  0.3639
   99OSM    H6F 9941   4.431   5.855   9.950 -1.2226 -0.5585  2.8467
   99OSM    H6G 9942   4.472   5.681   9.930 -1.1212  0.0909  0.7161
   99OSM    C7F 9943   4.600   5.829   9.833 -0.5103 -0.2010 -0.3546
   99OSM    H7F 9944   4.673   5.912   9.849  2.8177 -3.2411  0.8800
   99OSM    H7G 9945   4.541   5.870   9.748  1.1719 -0.6350 -1.7541
   99OSM    C8F 9946   4.698   5.714   9.788  0.0966 -0.3908  0.2005
   99OSM    H8F 9947   4.750   5.670   9.875 -1.0470  3.2559  2.8694
   99OSM    H8G 9948   4.785   5.753   9.731  1.0800 -0.8384  1.3759
   99OSM    C9F 9949   4.642   5.600   9.708  1.2179  0.1834  0.1709
   99OSM    H9F 9950   4.658   5.500   9.750 -1.4273 -0.0292  0.7461
   99OSM   C10F 9951   4.586   5.600   9.585 -0.3006 -0.2304  0.4119
   99OSM   H10F 9952   4.539   5.511   9.541  1.7749 -0.2952 -1.7423
   99OSM   C11F 9953   4.567   5.730   9.503 -0.2383  0.2128 -0.1041
   99OSM   H11F 9954   4.648   5.804   9.518  0.4584 -0.2838 -1.3602
   99OSM   H11G 9955   4.474   5.786   9.529  1.2768  1.4880  2.7747
   99OSM   C12F 9956   4.557   5.700   9.348 -0.0389  0.2676  0.2821
   99OSM   H12F 9957   4.466   5.637   9.344 -0.4155  0.7372  1.3068
   99OSM   H12G 9958   4.648   5.652   9.306  0.4753  1.6351 -0.1617
   99OSM   C13F 9959   4.541   5.830   9.258  0.8708  0.2822 -0.1454
   99OSM   H13F 9960   4.634   5.890   9.245 -0.1709  1.7128 -1.3032
   99OSM   H13G 9961   4.462   5.892   9.307  0.0873 -2.6591  2.4376
   99OSM   C14F 9962   4.478   5.798   9.117 -0.2649  0.0780  0.1157
   99OSM   H14F 9963   4.380   5.747   9.127  0.9341 -2.1275  1.1320
   99OSM   H14G 9964   4.549   5.733   9.061 -0.0685  0.0652  0.3749
   99OSM   C15F 9965   4.456   5.924   9.037  0.4319  0.4100  0.4186
   99OSM   H15F 9966   4.554   5.964   9.002  0.2220 -0.9184 -1.7538
   99OSM   H15G 9967   4.427   5.994   9.119  1.0032  1.8419 -0.5676
   99OSM   C16F 9968   4.363   5.915   8.917  0.6004  0.1465  0.0670
   99OSM   H16F 9969   4.355   6.018   8.877 -1.6527 -0.0977 -0.2004
   99OSM   H16G 9970   4.258   5.909   8.955  0.7456 -0.3394  0.3964
   99OSM   C17F 9971   4.386   5.802   8.814 -0.0410 -0.4491 -0.6439
   99OSM   H17F 9972   4.389   5.706   8.871  0.2662 -1.2355 -1.9588
   99OSM   H17G 9973   4.483   5.815   8.761  0.8880 -1.8230  0.6605
   99OSM   C18F 9974   4.265   5.786   8.712 -0.9009 -0.1756  0.3919
   99OSM   H18F 9975   4.259   5.876   8.647  1.5037 -0.8094 -0.7767
   99OSM   H18G 9976   4.171   5.770   8.769  0.1730 -1.5355  1.8532
   99OSM   H18H 9977   4.280   5.698   8.646 -0.8977 -0.1550  0.3636
  100OSM      N 9978   6.312   6.256  11.034  0.3984  0.9896 -0.4740
  100OSM    C15 9979   6.163   6.264  11.009  0.6671  0.1334  0.1073
  100OSM   H15A 9980   6.105   6.204  11.078  0.7589 -0.3047 -0.1975
  100OSM   H15B 9981   6.147   6.218  10.912  0.7543 -0.8972  0.5681
  100OSM   H15C 9982   6.131   6.367  11.009  0.7381  0.1613  1.0497
  100OSM    C14 9983   6.380   6.356  10.956  0.1626 -0.1923  0.1011
  100OSM   H14A 9984   6.483   6.327  10.969  0.2786  0.4242  0.5952
  100OSM   H14B 9985   6.372   6.458  10.992  2.2207  0.5331 -1.4074
  100OSM   H14C 9986   6.357   6.350  10.851 -0.9996  2.3957  0.1762
  100OSM    C13 9987   6.338   6.295  11.169 -0.3362 -0.5645  0.1693
  100OSM   H13A 9988   6.317   6.397  11.196 -1.4507 -1.2733  2.1127
  100OSM   H13B 9989   6.441   6.274  11.196  0.0700  2.0408  0.7457
  100OSM   H13C 9990   6.275   6.243  11.241 -0.8088 -1.8766 -1.1708
  100OSM    C12 9991   6.346   6.108  11.004 -0.2670 -0.8227 -0.5670
  100OSM   H12A 9992   6.302   6.042  11.077  0.9238 -2.2616 -1.1252
  100OSM   H12B 9993   6.451   6.100  11.029 -0.2549  1.0191  0.1172
  100OSM    C11 9994   6.349   6.070  10.857 -0.1379  0.3947  0.4701
  100OSM   H11A 9995   6.396   5.969  10.854 -0.7049  0.1379  0.1073
  100OSM   H11B 9996   6.419   6.143  10.810  0.3293 -2.0835 -2.8964
  100OSM      P 9997   6.129   5.943  10.797  0.2653  0.1158  0.3948
  100OSM    O13 9998   6.207   5.822  10.811 -0.2689  0.6940 -0.5805
  100OSM    O14 9999   6.014   5.965  10.891 -0.4559 -0.5390  0.5382
  100OSM    O1110000   6.066   5.955  10.648  0.4830 -0.3327 -0.2504
  100OSM    O1210001   6.217   6.077  10.799  0.7720  0.2004 -0.2544
  100OSM    C1S10002   6.157   5.924  10.541 -0.0192 -0.3376  0.5390
  100OSM    H1S10003   6.177   5.815  10.545 -0.8248 -0.5150 -0.0623
  100OSM    H1T10004   6.251   5.983  10.539  0.2081 -0.7233 -0.4927
  100OSM     NF10005   6.171   5.877  10.291  0.1235 -0.5547  0.0372
  100OSM    HNF10006   6.212   5.935  10.221 -1.6196  0.2181 -0.3806
  100OSM    C2S10007   6.090   5.938  10.393  0.5796 -0.3610  0.7665
  100OSM    H2S10008   5.992   5.886  10.393  0.4869 -0.1892  1.7676
  100OSM    C3S10009   6.057   6.089  10.372  0.5700  0.0553  0.5285
  100OSM    H3S10010   6.150   6.146  10.392  0.0503  1.3405 -0.6384
  100OSM     O310011   5.969   6.142  10.464 -0.3181 -0.0470  0.4040
  100OSM    HO310012   5.976   6.079  10.536  0.7868 -0.3307  0.0425
  100OSM    C4S10013   6.005   6.115  10.232 -0.2750  0.0906  0.1986
  100OSM    H4S10014   6.088   6.150  10.168 -2.4863  1.5804 -1.9267
  100OSM    C5S10015   5.877   6.094  10.192 -0.8604  0.5808  0.2460
  100OSM    H5S10016   5.820   6.042  10.270  0.2885 -1.1771 -0.0620
  100OSM    C6S10017   5.829   6.114  10.049 -0.5764  0.6557 -0.3740
  100OSM    H6S10018   5.807   6.223  10.043 -0.6036  0.5549 -2.6455
  100OSM    H6T10019   5.736   6.057  10.025 -1.0837  0.3962  2.0272
  100OSM    C7S10020   5.933   6.071   9.943  0.2680  0.2320  0.6769
  100OSM    H7S10021   5.988   5.978   9.968  0.4879 -0.0533 -0.8764
  100OSM    H7T10022   6.006   6.155   9.946  1.7064 -0.9197 -1.2253
  100OSM    C8S10023   5.860   6.052   9.808 -0.0431 -0.0070  0.3726
  100OSM    H8S10024   5.801   6.142   9.780  0.1981 -0.1620 -0.6686
  100OSM    H8T10025   5.792   5.964   9.809  0.5361 -0.4539  0.8747
  100OSM    C9S10026   5.966   6.032   9.700 -0.6815  0.3140  0.9942
  100OSM    H9S10027   6.027   5.944   9.727 -0.5805  0.1241  0.1602
  100OSM    H9T10028   6.037   6.117   9.705 -0.5307  0.1909  0.9271
  100OSM   C10S10029   5.911   6.018   9.559  0.0483  0.5408 -0.3174
  100OSM   H10S10030   5.864   6.111   9.522 -2.7927 -0.9295 -0.5531
  100OSM   H10T10031   5.825   5.949   9.571 -0.2603  1.1517  1.0494
  100OSM   C11S10032   6.007   5.958   9.458 -0.0199  0.2151  0.0933
  100OSM   H11S10033   6.047   5.864   9.502 -0.6304 -0.3349 -0.5020
  100OSM   H11T10034   6.089   6.031   9.448  0.1964  0.1155  1.0863
  100OSM   C12S10035   5.953   5.928   9.310 -0.2567  0.7271 -0.3764
  100OSM   H12S10036   5.881   5.843   9.316  1.4254 -0.6816  0.1846
  100OSM   H12T10037   6.043   5.892   9.255  0.7432 -1.0425  2.3017
  100OSM   C13S10038   5.898   6.042   9.234 -0.6308  0.0284  0.1473
  100OSM   H13S10039   5.966   6.128   9.248 -0.7154  0.3260 -1.2198
  100OSM   H13T10040   5.802   6.076   9.279 -0.1607 -0.6124  1.6922
  100OSM   C14S10041   5.869   6.004   9.087  0.4947 -0.8052  0.1502
  100OSM   H14S10042   5.811   5.911   9.069 -1.6526  0.8204 -1.5989
  100OSM   H14T10043   5.972   6.002   9.048  0.1898  2.7019 -0.9261
  100OSM   C15S10044   5.797   6.113   9.011 -0.2355  0.3795  0.0728
  100OSM   H15S10045   5.872   6.194   9.003  2.0006 -1.4931  1.5661
  100OSM   H15T10046   5.701   6.144   9.059  0.4748 -0.7271  2.2821
  100OSM   C16S10047   5.764   6.071   8.861  0.1436 -0.2732 -0.2780
  100OSM   H16S10048   5.862   6.049   8.812 -0.0217 -1.2341 -0.1715
  100OSM   H16T10049   5.720   6.161   8.813  2.0251  0.2663 -1.0686
  100OSM   C17S10050   5.668   5.948   8.845  0.3242 -0.0765 -0.5776
  100OSM   H17S10051   5.681   5.878   8.930 -0.7218 -1.6712 -1.6968
  100OSM   H17T10052   5.696   5.893   8.753 -1.9977 -1.2103 -0.6361
  100OSM   C18S10053   5.519   6.005   8.853  0.3336  0.0952 -0.8694
  100OSM   H18S10054   5.442   5.934   8.816  0.6770 -0.9810  0.4322
  100OSM   H18T10055   5.495   6.089   8.785  0.3424  0.5620 -0.3009
  100OSM   H18U10056   5.506   6.029   8.961 -2.0886 -0.4460 -1.0184
  100OSM    C1F10057   6.174   5.742  10.285  0.2517 -0.3394  0.1810
  100OSM     OF10058   6.110   5.667  10.362 -0.3165  0.4867 -0.0695
  100OSM    C2F10059   6.253   5.685  10.173  0.1629  0.7468  0.5131
  100OSM    H2F10060   6.360   5.686  10.201  1.0830  1.6614 -2.7985
  100OSM    H2G10061   6.246   5.752  10.084  0.2246  0.0605 -0.0203
  100OSM    C3F10062   6.212   5.538  10.150  0.1726  0.2306  0.3019
  100OSM    H3F10063   6.104   5.546  10.126  0.3704  1.9188 -0.0932
  100OSM    H3G10064   6.228   5.479  10.243 -0.5057  0.7377  0.7434
  100OSM    C4F10065   6.284   5.471  10.034  0.8576 -0.5114  0.7376
  100OSM    H4F10066   6.277   5.360  10.037  1.1755 -0.5469  0.1268
  100OSM    H4G10067   6.391   5.502  10.038  0.6391  0.4006 -0.3811
  100OSM    C5F10068   6.247   5.529   9.900 -0.0249 -0.6194 -0.6230
  100OSM    H5F10069   6.241   5.639   9.899  1.5417 -0.5020  0.5801
  100OSM    H5G10070   6.149   5.484   9.873  0.3117 -0.7225 -1.7331
  100OSM    C6F10071   6.351   5.488   9.794 -0.2723  0.0035 -0.0784
  100OSM    H6F10072   6.450   5.525   9.829 -0.3488 -0.3233  0.4921
  100OSM    H6G10073   6.319   5.534   9.698 -0.9456 -0.6634 -0.1806
  100OSM    C7F10074   6.367   5.335   9.771  0.7841  0.0545 -0.2227
  100OSM    H7F10075   6.277   5.298   9.717  0.7904 -0.1157 -0.1152
  100OSM    H7G10076   6.377   5.273   9.863  1.1141  0.3839 -0.0344
  100OSM    C8F10077   6.487   5.301   9.687 -0.9063  0.4099  0.2477
  100OSM    H8F10078   6.579   5.324   9.745 -0.8857  1.2710 -0.1286
  100OSM    H8G10079   6.486   5.374   9.604 -0.2046  1.1145  0.8503
  100OSM    C9F10080   6.489   5.164   9.634  0.2274 -0.3628 -0.2809
  100OSM    H9F10081   6.477   5.084   9.709  2.4338 -0.4994 -0.0689
  100OSM   C10F10082   6.506   5.130   9.508  0.4122 -0.2310 -0.1054
  100OSM   H10F10083   6.517   5.024   9.482 -0.1518 -0.4459  0.5171
  100OSM   C11F10084   6.530   5.220   9.388 -0.3575  0.4158  0.0419
  100OSM   H11F10085   6.620   5.188   9.331 -0.4995 -1.5303  0.8808
  100OSM   H11G10086   6.549   5.326   9.413  1.0035  0.0495  0.6228
  100OSM   C12F10087   6.400   5.213   9.299 -0.1493 -0.0862 -0.9699
  100OSM   H12F10088   6.309   5.200   9.362  0.7223 -0.1412  0.3011
  100OSM   H12G10089   6.396   5.130   9.226  0.1865  1.3107 -2.5949
  100OSM   C13F10090   6.377   5.325   9.198 -0.1680  0.0674  0.2490
  100OSM   H13F10091   6.369   5.416   9.261 -0.1275 -0.4693  1.0363
  100OSM   H13G10092   6.277   5.304   9.153  0.7546  0.5409 -2.1141
  100OSM   C14F10093   6.489   5.355   9.101  0.8548  1.1253 -0.1921
  100OSM   H14F10094   6.485   5.282   9.017  0.2287  1.3515 -0.3558
  100OSM   H14G10095   6.591   5.358   9.146  0.5841  0.0638  0.5248
  100OSM   C15F10096   6.470   5.490   9.033  0.7946 -0.7324 -0.5451
  100OSM   H15F10097   6.530   5.490   8.939  0.0414 -0.5882 -1.0296
  100OSM   H15G10098   6.507   5.564   9.107  0.2117 -0.6200 -0.3701
  100OSM   C16F10099   6.332   5.536   8.992 -0.6976  0.2170  0.8330
  100OSM   H16F10100   6.251   5.529   9.068 -1.5899  0.9711 -0.0241
  100OSM   H16G10101   6.297   5.458   8.922 -0.9346  0.9099  0.1763
  100OSM   C17F10102   6.334   5.679   8.940 -0.0630  0.7812 -0.4840
  100OSM   H17F10103   6.228   5.698   8.913  0.3727  0.9692 -2.0679
  100OSM   H17G10104   6.394   5.681   8.847 -0.5422 -0.5948 -0.8484
  100OSM   C18F10105   6.359   5.790   9.048 -0.0632  0.4824  0.1840
  100OSM   H18F10106   6.468   5.796   9.068 -0.1355 -0.2761  0.8144
  100OSM   H18G10107   6.305   5.764   9.141  0.8070 -0.3275  0.4659
  100OSM   H18H10108   6.314   5.884   9.009 -1.2908  0.3897  1.3801
  101OSM      N10109   2.828   5.182  10.995  0.0114  0.2602 -0.1456
  101OSM    C1510110   2.716   5.202  11.092  0.1717 -0.7205 -0.1933
  101OSM   H15A10111   2.676   5.302  11.083  1.2038 -0.1092  1.8127
  101OSM   H15B10112   2.735   5.193  11.197 -2.6213 -1.4298  0.2951
  101OSM   H15C10113   2.639   5.126  11.082 -2.7802  1.9984  1.2867
  101OSM    C1410114   2.926   5.294  11.011 -0.1051 -0.1262  0.8818
  101OSM   H14A10115   2.965   5.295  11.111 -1.6642 -0.3431  1.5044
  101OSM   H14B10116   2.884   5.389  10.980 -1.5897 -1.5547 -1.6118
  101OSM   H14C10117   3.008   5.277  10.942 -2.5264 -0.0699 -2.1527
  101OSM    C1310118   2.896   5.055  11.032 -0.7145  0.4190  0.2188
  101OSM   H13A10119   2.972   5.051  10.956 -0.0816 -0.7933  0.8916
  101OSM   H13B10120   2.828   4.971  11.024 -1.5959  1.2159 -0.8022
  101OSM   H13C10121   2.944   5.059  11.128 -0.1001  2.1951 -0.1476
  101OSM    C1210122   2.780   5.183  10.857  0.0583  0.6913  0.2009
  101OSM   H12A10123   2.686   5.130  10.854  0.5679 -0.1968 -0.5986
  101OSM   H12B10124   2.851   5.125  10.800 -1.9360 -1.3991 -0.2054
  101OSM    C1110125   2.755   5.323  10.789 -0.1255  0.5378  0.5125
  101OSM   H11A10126   2.711   5.311  10.688  0.9290 -0.7076  0.1863
  101OSM   H11B10127   2.851   5.376  10.772 -0.6567  1.7515  1.2461
  101OSM      P10128   2.674   5.548  10.893  0.2954 -0.0790 -0.0380
  101OSM    O1310129   2.533   5.600  10.913  0.0625 -0.2523  0.2001
  101OSM    O1410130   2.773   5.579  11.000 -0.3018 -0.3332 -0.5483
  101OSM    O1110131   2.727   5.592  10.747  0.0480  0.1515 -0.3426
  101OSM    O1210132   2.652   5.397  10.874 -0.3520  0.4426 -0.3709
  101OSM    C1S10133   2.708   5.734  10.711  0.0604  0.6361 -0.5683
  101OSM    H1S10134   2.769   5.789  10.786  1.7407  0.8184 -2.0298
  101OSM    H1T10135   2.600   5.758  10.723  0.0198  0.2686 -0.1926
  101OSM     NF10136   2.737   5.903  10.539 -0.4220 -0.6952  0.2387
  101OSM    HNF10137   2.648   5.933  10.506 -0.2173 -0.2849  0.0524
  101OSM    C2S10138   2.743   5.763  10.563  0.3448  0.8123 -0.4584
  101OSM    H2S10139   2.846   5.722  10.553 -1.1112 -3.2692  0.3790
  101OSM    C3S10140   2.650   5.674  10.482 -0.0558  0.1465  0.2809
  101OSM    H3S10141   2.548   5.709  10.512 -0.1486  0.6326 -0.6053
  101OSM     O310142   2.662   5.534  10.510 -0.2013 -0.3194  0.4530
  101OSM    HO310143   2.703   5.539  10.597 -0.9276 -1.8628  0.9045
  101OSM    C4S10144   2.669   5.707  10.331  0.1258 -0.4269 -0.1063
  101OSM    H4S10145   2.606   5.792  10.301  0.2931  0.2853  1.5181
  101OSM    C5S10146   2.750   5.646  10.242  0.1465 -0.7117 -0.4273
  101OSM    H5S10147   2.810   5.560  10.276 -0.7779 -1.1347  0.1187
  101OSM    C6S10148   2.768   5.702  10.101 -1.4206  0.0654  0.4106
  101OSM    H6S10149   2.858   5.767  10.096 -1.0409 -0.6027 -1.9053
  101OSM    H6T10150   2.685   5.775  10.087 -3.3554 -1.8778  1.4321
  101OSM    C7S10151   2.779   5.606   9.975 -0.0638  0.3797  0.0557
  101OSM    H7S10152   2.690   5.540   9.980  0.8745 -0.9313 -0.3245
  101OSM    H7T10153   2.871   5.545   9.990 -1.1374 -1.4344 -0.6628
  101OSM    C8S10154   2.765   5.682   9.850  0.5917  0.4339  1.2228
  101OSM    H8S10155   2.851   5.752   9.837  1.2821 -0.4384  1.0266
  101OSM    H8T10156   2.676   5.748   9.849  0.9756  0.9550  1.0803
  101OSM    C9S10157   2.786   5.585   9.728 -0.1127 -0.3586 -0.3198
  101OSM    H9S10158   2.719   5.499   9.752  0.9958 -1.0923  0.1778
  101OSM    H9T10159   2.885   5.536   9.730 -0.2301 -0.8263 -3.4065
  101OSM   C10S10160   2.749   5.642   9.588  0.2703 -0.1098  0.1868
  101OSM   H10S10161   2.809   5.734   9.569 -0.3301  0.2062 -0.1947
  101OSM   H10T10162   2.648   5.686   9.601 -0.4356 -1.6986  0.0924
  101OSM   C11S10163   2.767   5.556   9.466  0.3172 -0.2961 -0.0168
  101OSM   H11S10164   2.782   5.455   9.508  3.0307 -0.4781 -1.3524
  101OSM   H11T10165   2.862   5.591   9.420  1.5092  0.0577  2.6045
  101OSM   C12S10166   2.644   5.544   9.373  0.8172 -0.3684 -0.0510
  101OSM   H12S10167   2.618   5.646   9.339 -1.4329 -1.0190 -0.3659
  101OSM   H12T10168   2.558   5.504   9.431  0.2682 -1.5792 -1.6538
  101OSM   C13S10169   2.669   5.460   9.247 -0.0073  0.1116  0.2576
  101OSM   H13S10170   2.699   5.357   9.279 -0.5423 -0.0087  0.3673
  101OSM   H13T10171   2.758   5.510   9.202  0.5652 -0.2779  0.9400
  101OSM   C14S10172   2.560   5.454   9.148  0.8437 -0.0595  0.3655
  101OSM   H14S10173   2.513   5.553   9.131  1.1626 -0.1920 -1.4840
  101OSM   H14T10174   2.481   5.399   9.203  1.8993  0.4247  2.4165
  101OSM   C15S10175   2.578   5.372   9.015  0.0765 -0.1065  0.4229
  101OSM   H15S10176   2.599   5.267   9.047 -0.7230 -0.6914 -0.9153
  101OSM   H15T10177   2.669   5.403   8.958  0.0907 -0.7693  0.0774
  101OSM   C16S10178   2.463   5.383   8.926  0.6828 -0.0219 -0.9312
  101OSM   H16S10179   2.426   5.487   8.916  1.9896  0.5850  0.5328
  101OSM   H16T10180   2.373   5.325   8.957 -0.5152  1.9889 -0.5796
  101OSM   C17S10181   2.480   5.326   8.785 -0.2402  0.1591 -0.1991
  101OSM   H17S10182   2.527   5.227   8.768  0.2881  0.1992  0.9545
  101OSM   H17T10183   2.562   5.392   8.750  0.3697 -1.2682 -1.5089
  101OSM   C18S10184   2.357   5.361   8.702  0.3337  0.1710  0.6291
  101OSM   H18S10185   2.263   5.341   8.757 -1.3735  5.2035 -0.2312
  101OSM   H18T10186   2.341   5.310   8.605 -0.5554 -1.4223  1.5926
  101OSM   H18U10187   2.343   5.471   8.695 -0.3332  0.1075  0.9755
  101OSM    C1F10188   2.830   5.985  10.582 -0.5587 -0.0553  0.0869
  101OSM     OF10189   2.940   5.950  10.626  0.4526  0.4439  0.6554
  101OSM    C2F10190   2.786   6.128  10.593  0.5626 -0.6823 -0.0683
  101OSM    H2F10191   2.758   6.150  10.698 -1.0653  0.6507 -0.7358
  101OSM    H2G10192   2.704   6.137  10.518 -0.6485 -1.4191  1.1495
  101OSM    C3F10193   2.888   6.243  10.558  0.0894  0.0252  0.0914
  101OSM    H3F10194   2.969   6.239  10.633  1.1109  2.7235 -0.7753
  101OSM    H3G10195   2.827   6.336  10.568  0.5235  0.8156 -3.6702
  101OSM    C4F10196   2.948   6.241  10.414  0.0014 -0.0975  0.4495
  101OSM    H4F10197   2.994   6.141  10.398 -0.9065 -0.1817 -1.8738
  101OSM    H4G10198   3.016   6.328  10.407 -1.9936  1.3963 -0.7028
  101OSM    C5F10199   2.834   6.265  10.316  0.3719 -0.6690 -0.2136
  101OSM    H5F10200   2.864   6.345  10.245  1.4188 -0.2819  0.6628
  101OSM    H5G10201   2.748   6.311  10.370 -1.4419 -0.7358 -2.9743
  101OSM    C6F10202   2.791   6.145  10.234  0.0718 -0.4290  0.2542
  101OSM    H6F10203   2.866   6.112  10.159 -1.1643 -1.1366 -0.6918
  101OSM    H6G10204   2.770   6.058  10.299 -1.3242  1.0248  1.7835
  101OSM    C7F10205   2.666   6.186  10.158  0.1330  0.3924  0.5851
  101OSM    H7F10206   2.677   6.276  10.094 -1.3397 -0.2880 -0.6403
  101OSM    H7G10207   2.582   6.224  10.221 -0.8325 -0.1416 -0.3632
  101OSM    C8F10208   2.617   6.076  10.070 -0.3217 -0.7045  0.7707
  101OSM    H8F10209   2.513   6.105  10.044  0.9671  1.8088 -1.7497
  101OSM    H8G10210   2.611   5.978  10.123  2.5744 -1.8809 -0.9689
  101OSM    C9F10211   2.690   6.050   9.941 -0.3213 -0.0491  0.2954
  101OSM    H9F10212   2.770   5.974   9.935  0.2971  0.7911 -2.5647
  101OSM   C10F10213   2.664   6.120   9.826 -0.6995 -0.0482 -0.5923
  101OSM   H10F10214   2.698   6.082   9.729 -0.8901 -0.5431 -0.4642
  101OSM   C11F10215   2.566   6.239   9.811 -0.1533  0.4013  0.3415
  101OSM   H11F10216   2.603   6.332   9.860 -1.8529  0.7405  1.0018
  101OSM   H11G10217   2.472   6.220   9.866 -1.1066  0.8364 -1.1301
  101OSM   C12F10218   2.541   6.287   9.666  0.0015  0.3232 -0.0189
  101OSM   H12F10219   2.447   6.347   9.659  0.5415  1.0493 -1.2298
  101OSM   H12G10220   2.511   6.195   9.612  1.7435 -0.9755  1.1743
  101OSM   C13F10221   2.660   6.340   9.595 -0.4323 -0.1571  0.7162
  101OSM   H13F10222   2.743   6.271   9.621 -0.9469 -0.1508  2.4332
  101OSM   H13G10223   2.686   6.436   9.645  0.9370 -0.7254  1.1104
  101OSM   C14F10224   2.638   6.351   9.440 -0.1399  0.4189 -0.8312
  101OSM   H14F10225   2.555   6.419   9.412 -1.0329  0.2547  1.3139
  101OSM   H14G10226   2.609   6.248   9.410 -2.3651  0.6130  0.5397
  101OSM   C15F10227   2.766   6.414   9.370  0.2387 -0.3496 -0.3931
  101OSM   H15F10228   2.856   6.366   9.415  1.0621  0.9932 -0.5859
  101OSM   H15G10229   2.772   6.524   9.383  0.2165 -0.4717  0.6793
  101OSM   C16F10230   2.763   6.392   9.211  0.2896  0.6851 -0.8641
  101OSM   H16F10231   2.694   6.463   9.160  0.8867  2.4277  0.6726
  101OSM   H16G10232   2.721   6.293   9.184  2.3108 -0.4859  0.1779
  101OSM   C17F10233   2.899   6.404   9.149  0.3175  0.4873  0.3721
  101OSM   H17F10234   2.966   6.329   9.196 -0.8839 -0.4982  0.5279
  101OSM   H17G10235   2.930   6.510   9.163 -0.6567  0.8775 -0.4286
  101OSM   C18F10236   2.895   6.377   8.999 -0.0400 -0.3616  0.1860
  101OSM   H18F10237   2.849   6.469   8.956  0.4739 -1.0172 -1.7992
  101OSM   H18G10238   2.842   6.285   8.965 -0.0780 -0.2977  0.0701
  101OSM   H18H10239   2.997   6.376   8.957  0.8779 -3.4924  2.3612
  102OSM      N10240   5.407   0.688  10.590 -0.3025 -0.1581 -0.3907
  102OSM    C1510241   5.352   0.825  10.565  0.1154  0.5520  0.4936
  102OSM   H15A10242   5.357   0.879  10.658  2.5684 -2.7337  2.4027
  102OSM   H15B10243   5.254   0.814  10.521  0.2468 -1.5916  0.6476
  102OSM   H15C10244   5.408   0.873  10.487  2.1746  0.5057  1.9073
  102OSM    C1410245   5.547   0.704  10.647  0.6534 -0.1808 -0.3538
  102OSM   H14A10246   5.608   0.760  10.577  1.5483 -0.1429  0.4534
  102OSM   H14B10247   5.579   0.603  10.667 -3.7301 -1.4840  0.7001
  102OSM   H14C10248   5.538   0.751  10.744  1.5459 -1.4729  0.3646
  102OSM    C1310249   5.316   0.622  10.689  0.0932 -0.1636 -0.6491
  102OSM   H13A10250   5.217   0.614  10.646  0.9017 -1.1429 -2.3968
  102OSM   H13B10251   5.311   0.675  10.783 -0.8079 -0.1029 -0.7279
  102OSM   H13C10252   5.336   0.517  10.705  1.1922  0.2450  0.7458
  102OSM    C1210253   5.397   0.599  10.472 -0.1320 -0.2826 -0.2405
  102OSM   H12A10254   5.462   0.513  10.483  0.1633 -0.1215 -0.7134
  102OSM   H12B10255   5.439   0.658  10.392 -0.3206 -2.6832 -2.1599
  102OSM    C1110256   5.260   0.556  10.417  0.8461 -1.1642 -0.3473
  102OSM   H11A10257   5.222   0.461  10.461  3.0941 -2.5424 -1.2977
  102OSM   H11B10258   5.286   0.530  10.312  2.1865  2.8851 -1.1163
  102OSM      P10259   5.010   0.647  10.392  0.4138 -0.0843  0.1720
  102OSM    O1310260   4.984   0.549  10.281 -0.3630 -0.4295  0.3204
  102OSM    O1410261   4.958   0.598  10.526  0.1820  0.2623  0.0064
  102OSM    O1110262   4.940   0.785  10.342  0.0204  0.0850  0.3954
  102OSM    O1210263   5.167   0.675  10.409  0.1911  0.3382  0.7890
  102OSM    C1S10264   5.038   0.887  10.311 -0.4211  0.3012  0.6650
  102OSM    H1S10265   5.108   0.860  10.230 -0.7900  3.7041 -0.8668
  102OSM    H1T10266   5.105   0.919  10.394 -1.0678 -0.1066  1.3483
  102OSM     NF10267   5.031   1.089  10.153 -0.2144 -0.1164 -0.5477
  102OSM    HNF10268   5.063   1.176  10.187 -0.5437 -0.1560 -0.1238
  102OSM    C2S10269   4.960   1.004  10.254  0.1274 -0.2747  0.2592
  102OSM    H2S10270   4.878   0.954  10.198  1.0790  0.0220 -1.4296
  102OSM    C3S10271   4.897   1.082  10.375 -0.5136  0.6394  0.9936
  102OSM    H3S10272   4.985   1.138  10.414  0.8259  0.7028 -1.9788
  102OSM     O310273   4.847   1.001  10.483  0.0032 -0.6967  0.2709
  102OSM    HO310274   4.870   0.908  10.471 -0.9322 -0.9522  0.3971
  102OSM    C4S10275   4.793   1.178  10.326 -0.5545  0.7956 -0.5252
  102OSM    H4S10276   4.710   1.124  10.277  1.4095 -1.1712 -1.7829
  102OSM    C5S10277   4.809   1.313  10.324  0.0846 -0.5115 -0.0437
  102OSM    H5S10278   4.910   1.350  10.348 -0.0968  0.5060 -0.7947
  102OSM    C6S10279   4.719   1.424  10.276 -0.0498 -0.1644 -0.0538
  102OSM    H6S10280   4.777   1.493  10.211 -0.9134 -0.1140 -0.7867
  102OSM    H6T10281   4.684   1.484  10.363 -0.9986 -0.1188 -0.4544
  102OSM    C7S10282   4.582   1.384  10.214  0.0771 -0.0007 -0.4294
  102OSM    H7S10283   4.518   1.474  10.211 -0.8295 -0.6677 -1.7816
  102OSM    H7T10284   4.534   1.318  10.290  2.4146 -1.4971 -0.1911
  102OSM    C8S10285   4.585   1.323  10.076 -0.2838  0.0656  0.7905
  102OSM    H8S10286   4.483   1.285  10.053 -0.6789  0.4840  1.8435
  102OSM    H8T10287   4.655   1.238  10.062 -0.1658  0.5014 -1.5772
  102OSM    C9S10288   4.627   1.430   9.977 -0.5016 -0.2363  0.2081
  102OSM    H9S10289   4.716   1.485  10.016 -0.4322 -0.7841  0.8537
  102OSM    H9T10290   4.546   1.502   9.954 -1.9087 -1.0221  2.5289
  102OSM   C10S10291   4.662   1.371   9.827  0.0467  0.4462 -0.7410
  102OSM   H10S10292   4.567   1.324   9.794 -0.8397  0.6158  1.4838
  102OSM   H10T10293   4.742   1.294   9.838 -1.3880 -1.3030 -2.2868
  102OSM   C11S10294   4.695   1.468   9.716 -0.5211 -0.4657 -0.1387
  102OSM   H11S10295   4.797   1.500   9.746 -0.5987 -1.6268  1.4684
  102OSM   H11T10296   4.641   1.564   9.732  0.1989 -0.0347 -0.3178
  102OSM   C12S10297   4.698   1.415   9.575 -0.0940 -0.2241 -0.0593
  102OSM   H12S10298   4.639   1.322   9.565  1.0873 -1.2283  1.9297
  102OSM   H12T10299   4.798   1.372   9.554 -0.0947  0.1615 -0.8682
  102OSM   C13S10300   4.694   1.529   9.469 -0.2943  0.4671  0.6871
  102OSM   H13S10301   4.760   1.610   9.508 -0.2147  1.0893 -0.7055
  102OSM   H13T10302   4.593   1.575   9.464  0.5733  2.4163  0.6226
  102OSM   C14S10303   4.728   1.479   9.329  0.0499 -0.2112 -0.0543
  102OSM   H14S10304   4.673   1.383   9.313 -0.6739  0.2579 -0.4233
  102OSM   H14T10305   4.837   1.459   9.332  0.1000  0.0677 -0.0819
  102OSM   C15S10306   4.712   1.582   9.219 -0.0778 -0.5448 -0.3767
  102OSM   H15S10307   4.779   1.669   9.239  0.2715 -1.3017  1.8835
  102OSM   H15T10308   4.605   1.613   9.221  0.0540  0.2045 -2.9466
  102OSM   C16S10309   4.748   1.534   9.077  0.2476 -0.3567  0.0746
  102OSM   H16S10310   4.683   1.448   9.050  0.6905 -0.5119 -0.5059
  102OSM   H16T10311   4.854   1.503   9.071  0.9724  2.0033  0.2657
  102OSM   C17S10312   4.715   1.637   8.971  0.1314  0.3726  0.4125
  102OSM   H17S10313   4.807   1.700   8.973  0.0536  0.4660  1.0731
  102OSM   H17T10314   4.634   1.697   9.018  0.2971  0.7428  0.2352
  102OSM   C18S10315   4.670   1.597   8.833 -0.4119  0.2342  0.0198
  102OSM   H18S10316   4.664   1.677   8.756 -1.2558  1.2293  1.1036
  102OSM   H18T10317   4.577   1.536   8.837  0.9219 -2.1319 -3.0027
  102OSM   H18U10318   4.744   1.526   8.791 -2.7421 -2.6162  0.5809
  102OSM    C1F10319   5.062   1.047  10.031 -0.6225 -0.3496 -0.5488
  102OSM     OF10320   5.061   0.929   9.994 -0.6020 -0.0911 -0.2900
  102OSM    C2F10321   5.116   1.158   9.941 -0.0333 -0.1656  0.3055
  102OSM    H2F10322   5.225   1.176   9.955  0.1704 -1.5878  0.5918
  102OSM    H2G10323   5.063   1.254   9.960 -1.3581 -0.3965 -2.0821
  102OSM    C3F10324   5.109   1.123   9.789 -0.5311 -0.0074 -0.0628
  102OSM    H3F10325   5.012   1.075   9.767 -0.3990 -0.6437  0.7087
  102OSM    H3G10326   5.184   1.045   9.766  0.3859  0.3471  1.6340
  102OSM    C4F10327   5.126   1.240   9.695  0.0959 -0.1104  0.4129
  102OSM    H4F10328   5.229   1.280   9.702 -0.3225  1.5439 -2.2157
  102OSM    H4G10329   5.054   1.312   9.739  0.4926  0.0698  0.7690
  102OSM    C5F10330   5.102   1.205   9.548  0.0266 -0.0838 -1.1568
  102OSM    H5F10331   4.995   1.176   9.538  0.0550 -0.4202 -0.5018
  102OSM    H5G10332   5.151   1.106   9.535 -0.1823 -0.2356 -0.7861
  102OSM    C6F10333   5.155   1.316   9.460 -0.3406 -0.2093 -0.0320
  102OSM    H6F10334   5.265   1.317   9.477 -0.8122  3.0026  3.3462
  102OSM    H6G10335   5.119   1.413   9.498  1.6311  0.7684 -0.5919
  102OSM    C7F10336   5.140   1.306   9.307  0.2771 -0.0203 -1.0900
  102OSM    H7F10337   5.206   1.372   9.246 -0.1854 -0.8784 -2.5495
  102OSM    H7G10338   5.037   1.336   9.278  0.6095  1.5745 -0.6984
  102OSM    C8F10339   5.163   1.160   9.254 -0.6733 -0.4675 -0.4466
  102OSM    H8F10340   5.251   1.118   9.306 -0.0414  1.6918  0.3091
  102OSM    H8G10341   5.202   1.183   9.152  0.8295  2.7889  0.7756
  102OSM    C9F10342   5.045   1.067   9.262  0.1532  0.3911  0.6776
  102OSM    H9F10343   5.012   1.046   9.365 -1.1744 -3.5137 -0.4843
  102OSM   C10F10344   4.993   0.996   9.157 -0.1780  0.2223  0.2368
  102OSM   H10F10345   4.904   0.937   9.182 -2.0779  2.3246 -1.3727
  102OSM   C11F10346   5.034   1.003   9.016 -0.4945 -0.3480  0.2740
  102OSM   H11F10347   5.083   0.911   8.975  0.7923  0.0665  0.8542
  102OSM   H11G10348   5.101   1.090   9.002  1.4746 -1.4205  2.7312
  102OSM   C12F10349   4.911   1.029   8.935 -0.3704 -0.4904  0.6936
  102OSM   H12F10350   4.827   0.956   8.940  0.1629 -1.2740 -1.2118
  102OSM   H12G10351   4.945   1.024   8.829 -2.5821 -0.0261 -0.0602
  102OSM   C13F10352   4.863   1.177   8.947 -0.6847 -0.1985 -0.0117
  102OSM   H13F10353   4.953   1.241   8.952  1.0144 -2.4851 -0.8601
  102OSM   H13G10354   4.803   1.192   9.039  0.1633 -0.2556  0.5436
  102OSM   C14F10355   4.778   1.222   8.835  0.6787 -1.1949 -0.6364
  102OSM   H14F10356   4.717   1.311   8.861  2.1681  0.1059 -1.4913
  102OSM   H14G10357   4.709   1.144   8.797  0.1555  0.0608 -2.3004
  102OSM   C15F10358   4.841   1.263   8.704 -0.4698  0.0867  0.5160
  102OSM   H15F10359   4.903   1.177   8.671 -1.6003 -0.2371 -0.7975
  102OSM   H15G10360   4.902   1.356   8.707  0.9350 -0.8208  0.6275
  102OSM   C16F10361   4.734   1.295   8.601 -0.2164  0.0984  1.0395
  102OSM   H16F10362   4.663   1.362   8.655 -1.1678  0.3064 -0.4431
  102OSM   H16G10363   4.682   1.202   8.569 -1.6879  0.7490  1.5035
  102OSM   C17F10364   4.784   1.376   8.480  0.2558 -0.0844  0.5894
  102OSM   H17F10365   4.840   1.298   8.424 -3.2081 -2.8673  0.8061
  102OSM   H17G10366   4.847   1.464   8.504  0.1108  0.5887 -1.4441
  102OSM   C18F10367   4.671   1.423   8.384  0.7503 -0.7562  0.2295
  102OSM   H18F10368   4.618   1.515   8.416 -0.4503 -1.0139 -0.9857
  102OSM   H18G10369   4.594   1.344   8.373 -1.5478  1.5222 -0.5376
  102OSM   H18H10370   4.721   1.439   8.287  1.7834 -0.1795  0.8529
  103OSM      N10371   3.066   3.774  11.076  0.2821 -0.3111  0.2235
  103OSM    C1510372   2.971   3.675  11.131  0.8614  0.6585  0.0700
  103OSM   H15A10373   3.001   3.620  11.219  0.0043  0.0617 -0.0095
  103OSM   H15B10374   2.966   3.603  11.052 -1.7409  0.3306  0.4981
  103OSM   H15C10375   2.872   3.717  11.141  1.3841  2.5342 -2.3854
  103OSM    C1410376   3.113   3.863  11.187 -0.4570 -0.4372 -0.0870
  103OSM   H14A10377   3.159   3.811  11.270  0.1749  1.4166  0.7632
  103OSM   H14B10378   3.027   3.913  11.229 -0.4797 -1.5344  1.2161
  103OSM   H14C10379   3.176   3.942  11.148  0.4287 -0.8826  0.4235
  103OSM    C1310380   3.179   3.705  11.018 -0.3690 -0.2572 -0.1030
  103OSM   H13A10381   3.145   3.644  10.936  0.5224 -0.2988 -0.4488
  103OSM   H13B10382   3.230   3.651  11.097  1.6618  0.0074 -1.1837
  103OSM   H13C10383   3.255   3.774  10.984 -1.9738  2.2594  1.2349
  103OSM    C1210384   2.996   3.855  10.973 -0.3879  0.4242 -0.3106
  103OSM   H12A10385   2.938   3.939  11.007  0.5511  1.5291 -1.3922
  103OSM   H12B10386   2.942   3.783  10.913  2.3973 -3.3081  1.3961
  103OSM    C1110387   3.090   3.939  10.875 -0.0937 -0.4691  0.6446
  103OSM   H11A10388   3.024   3.985  10.799  2.2693 -0.4120 -1.4240
  103OSM   H11B10389   3.157   3.867  10.822  0.5963 -0.9076  2.0880
  103OSM      P10390   3.123   4.175  10.967 -0.1522 -0.0713 -0.1822
  103OSM    O1310391   2.983   4.177  11.010  0.2133  0.3135  0.0277
  103OSM    O1410392   3.215   4.253  11.059 -0.4160 -0.4054 -0.0492
  103OSM    O1110393   3.132   4.239  10.822  0.4390 -0.4471 -0.0392
  103OSM    O1210394   3.173   4.028  10.947 -0.0898 -0.0394 -0.3566
  103OSM    C1S10395   3.243   4.252  10.737 -0.3999 -0.1868 -0.7101
  103OSM    H1S10396   3.308   4.163  10.727 -1.5803 -0.9763 -1.4223
  103OSM    H1T10397   3.309   4.335  10.771  0.4273 -2.2686  3.0088
  103OSM     NF10398   3.316   4.299  10.498  0.2823 -0.1070 -0.3167
  103OSM    HNF10399   3.369   4.383  10.509  0.3932 -0.2456  0.2335
  103OSM    C2S10400   3.204   4.296  10.594  0.1177  0.7008  0.1725
  103OSM    H2S10401   3.131   4.224  10.549  0.8347  0.2097 -0.2155
  103OSM    C3S10402   3.127   4.434  10.595  0.4602 -0.0004 -0.8184
  103OSM    H3S10403   3.204   4.513  10.607  1.3502 -0.9817  0.0531
  103OSM     O310404   3.026   4.447  10.698 -0.3307  0.0613 -0.0968
  103OSM    HO310405   3.030   4.363  10.743  1.1793 -0.4416 -1.1250
  103OSM    C4S10406   3.055   4.450  10.464 -0.3198  0.5884 -0.1400
  103OSM    H4S10407   2.986   4.365  10.464 -1.3618  1.4224 -0.3725
  103OSM    C5S10408   3.069   4.544  10.373  0.4315 -0.8866 -0.0901
  103OSM    H5S10409   3.142   4.625  10.387  1.3311 -1.2273 -2.5080
  103OSM    C6S10410   3.001   4.552  10.237 -0.2843  0.4675 -0.5274
  103OSM    H6S10411   2.993   4.662  10.221  2.0930  1.1837  2.7912
  103OSM    H6T10412   2.896   4.518  10.244 -0.7781  1.5601 -2.2077
  103OSM    C7S10413   3.069   4.505  10.106  0.0921  0.4270  0.2576
  103OSM    H7S10414   3.055   4.395  10.099  0.2625  0.3548  0.9988
  103OSM    H7T10415   3.175   4.538  10.111 -0.0511  0.9843 -0.2783
  103OSM    C8S10416   3.007   4.591   9.984  0.0083  0.1721 -0.1428
  103OSM    H8S10417   3.081   4.559   9.907 -2.2689  1.4644 -2.9976
  103OSM    H8T10418   3.021   4.700   9.996  3.6710 -0.2523 -0.1428
  103OSM    C9S10419   2.866   4.552   9.951 -0.2858  0.0844 -0.1850
  103OSM    H9S10420   2.809   4.555  10.046  0.9320 -1.6626  0.6380
  103OSM    H9T10421   2.871   4.448   9.912 -0.7194  0.0106 -0.0411
  103OSM   C10S10422   2.794   4.634   9.845  0.5105  0.2015  0.1541
  103OSM   H10S10423   2.806   4.744   9.862  2.2505  0.7168 -3.8852
  103OSM   H10T10424   2.685   4.614   9.835  1.0562 -1.5495 -2.5032
  103OSM   C11S10425   2.859   4.623   9.706  0.5252 -0.1001 -0.4747
  103OSM   H11S10426   2.866   4.514   9.682  2.1571 -0.1227  0.1027
  103OSM   H11T10427   2.963   4.659   9.711 -0.3599  2.5003 -0.2513
  103OSM   C12S10428   2.786   4.684   9.588 -0.9454  0.2975  0.3515
  103OSM   H12S10429   2.803   4.794   9.586 -0.6200  0.2231 -2.3051
  103OSM   H12T10430   2.676   4.676   9.601 -1.2406  0.8112 -1.7144
  103OSM   C13S10431   2.818   4.615   9.457 -0.2650  0.1221  0.5503
  103OSM   H13S10432   2.773   4.514   9.464 -0.2328 -0.0307 -1.3026
  103OSM   H13T10433   2.928   4.601   9.449 -0.1254  0.6355  1.5081
  103OSM   C14S10434   2.784   4.701   9.331 -0.0735 -0.6069  0.0807
  103OSM   H14S10435   2.821   4.805   9.338  0.1159 -0.7177  0.7720
  103OSM   H14T10436   2.675   4.724   9.334 -0.2830 -1.2842 -1.6289
  103OSM   C15S10437   2.806   4.629   9.203  0.5322  0.8197 -0.2784
  103OSM   H15S10438   2.758   4.529   9.213  0.5337  0.8337 -0.1362
  103OSM   H15T10439   2.912   4.599   9.187 -0.6063 -3.1799 -0.9727
  103OSM   C16S10440   2.760   4.696   9.069  0.2682  0.7631  0.5379
  103OSM   H16S10441   2.834   4.779   9.061 -1.5435  2.2256 -1.7785
  103OSM   H16T10442   2.657   4.733   9.087  0.8961  2.3751  0.9970
  103OSM   C17S10443   2.754   4.604   8.951 -0.0027  0.1007  0.0068
  103OSM   H17S10444   2.709   4.646   8.858 -1.2313 -0.9681  0.1062
  103OSM   H17T10445   2.688   4.517   8.971 -1.0843  1.0167  0.4698
  103OSM   C18S10446   2.893   4.558   8.907  0.2275  0.3092 -0.7734
  103OSM   H18S10447   2.880   4.490   8.820 -0.3253 -0.6416  0.0449
  103OSM   H18T10448   2.948   4.515   8.994  0.8521  4.2791  0.9110
  103OSM   H18U10449   2.951   4.645   8.870  0.4045  0.7354  0.4771
  103OSM    C1F10450   3.373   4.191  10.461 -0.5672  0.3586 -0.2799
  103OSM     OF10451   3.320   4.091  10.501  0.0214 -0.1192 -0.5802
  103OSM    C2F10452   3.501   4.205  10.386 -0.4748  0.4587  0.3407
  103OSM    H2F10453   3.586   4.226  10.455 -0.0313 -0.8490  0.1991
  103OSM    H2G10454   3.484   4.283  10.309  1.4310 -0.7410 -1.3183
  103OSM    C3F10455   3.544   4.066  10.324  0.5042 -0.0527 -0.4511
  103OSM    H3F10456   3.458   4.007  10.284 -0.3699 -0.3939  1.8116
  103OSM    H3G10457   3.582   4.002  10.407  2.3642 -1.8503 -2.6520
  103OSM    C4F10458   3.662   4.076  10.224  0.8171 -1.1343 -0.1787
  103OSM    H4F10459   3.622   4.133  10.138  1.3485 -0.2428  0.1622
  103OSM    H4G10460   3.689   3.976  10.183  1.0802 -1.2925  0.3729
  103OSM    C5F10461   3.798   4.136  10.271  0.0628  0.0791 -0.4132
  103OSM    H5F10462   3.850   4.065  10.338  0.3064  1.7547  1.2033
  103OSM    H5G10463   3.790   4.222  10.341  1.5363 -0.9375  1.0340
  103OSM    C6F10464   3.890   4.188  10.158  0.3047  0.7179 -0.4435
  103OSM    H6F10465   3.831   4.272  10.114 -1.0846  1.3217  2.4556
  103OSM    H6G10466   3.916   4.101  10.094  2.8903  0.4749  0.8502
  103OSM    C7F10467   4.021   4.231  10.219  0.0065  0.2245  0.2385
  103OSM    H7F10468   4.090   4.154  10.260 -1.7327 -0.8030  1.3240
  103OSM    H7G10469   4.007   4.289  10.313  4.1471  1.2907  0.2640
  103OSM    C8F10470   4.092   4.328  10.125 -0.3591 -0.8186  0.3443
  103OSM    H8F10471   4.089   4.284  10.023  2.9768 -1.3135  0.4195
  103OSM    H8G10472   4.197   4.337  10.160  0.0741  1.6727 -1.4741
  103OSM    C9F10473   4.025   4.460  10.110  0.6002  0.9305 -0.1128
  103OSM    H9F10474   3.982   4.504  10.201 -2.1048 -1.1989 -0.3098
  103OSM   C10F10475   4.010   4.549  10.007 -0.7403 -0.4602  0.0057
  103OSM   H10F10476   3.982   4.652  10.035  0.1350  0.2190 -1.5809
  103OSM   C11F10477   4.054   4.529   9.863  0.3367  0.2622  0.5436
  103OSM   H11F10478   4.102   4.429   9.850  1.0279  0.7046 -0.4386
  103OSM   H11G10479   4.129   4.608   9.839 -0.3775  1.4426  2.1319
  103OSM   C12F10480   3.937   4.552   9.766 -0.6691  0.5052 -0.3044
  103OSM   H12F10481   3.894   4.652   9.788 -0.7686  0.6966 -1.3283
  103OSM   H12G10482   3.850   4.487   9.786 -0.2096 -0.3421 -1.0582
  103OSM   C13F10483   3.980   4.543   9.609  0.4510 -0.2284  0.4433
  103OSM   H13F10484   4.054   4.621   9.578  0.3930 -0.2951  0.1362
  103OSM   H13G10485   3.882   4.548   9.557 -0.1679  3.5410  1.8451
  103OSM   C14F10486   4.041   4.405   9.578 -0.1948  0.0140 -0.2353
  103OSM   H14F10487   3.962   4.331   9.600  1.1916 -1.9988 -1.9455
  103OSM   H14G10488   4.128   4.377   9.641 -0.0673  0.0975 -0.3757
  103OSM   C15F10489   4.079   4.406   9.428 -0.4826  0.3868 -0.5850
  103OSM   H15F10490   4.170   4.470   9.430 -0.0192 -0.2796  0.6844
  103OSM   H15G10491   4.001   4.448   9.362 -1.9539 -1.1082  0.1665
  103OSM   C16F10492   4.133   4.266   9.383  0.1824  0.5085 -0.3125
  103OSM   H16F10493   4.037   4.210   9.370  0.8091 -0.8804  0.9042
  103OSM   H16G10494   4.191   4.212   9.460  1.8778  1.0796 -1.1661
  103OSM   C17F10495   4.206   4.269   9.255 -0.4733 -0.0893 -0.0161
  103OSM   H17F10496   4.249   4.172   9.224 -1.6377 -0.4688 -0.4540
  103OSM   H17G10497   4.292   4.337   9.277 -0.3869 -0.1728 -0.0978
  103OSM   C18F10498   4.126   4.328   9.138  0.3460 -0.2846 -0.6730
  103OSM   H18F10499   4.187   4.341   9.046 -0.7902  0.3862 -1.3489
  103OSM   H18G10500   4.097   4.434   9.156  1.1996 -0.3771  1.4819
  103OSM   H18H10501   4.030   4.275   9.125 -0.1417  0.4805 -0.2562
  104OSM      N10502   5.016   3.635  11.146 -0.1273 -0.1681  0.8879
  104OSM    C1510503   4.881   3.657  11.090 -0.0868 -0.5889  0.1332
  104OSM   H15A10504   4.827   3.745  11.123  0.5727  0.9293 -2.6924
  104OSM   H15B10505   4.818   3.572  11.110  1.0802 -1.9970 -1.9188
  104OSM   H15C10506   4.885   3.673  10.983  1.3852 -0.2954  0.2272
  104OSM    C1410507   5.114   3.745  11.132  0.4263 -0.6599 -0.2347
  104OSM   H14A10508   5.142   3.759  11.029 -0.5407  2.3418 -0.1507
  104OSM   H14B10509   5.206   3.728  11.186  0.9549  2.0837 -0.1864
  104OSM   H14C10510   5.069   3.833  11.177 -0.5797 -1.1354 -0.2887
  104OSM    C1310511   4.993   3.608  11.287 -0.5938 -0.1596 -0.4586
  104OSM   H13A10512   4.933   3.684  11.335 -1.2488 -0.2618 -1.1131
  104OSM   H13B10513   5.078   3.576  11.346 -0.5927  0.7595  0.0537
  104OSM   H13C10514   4.923   3.526  11.290  0.7200 -1.3223 -0.9779
  104OSM    C1210515   5.062   3.503  11.072 -0.7515 -0.2789 -0.2600
  104OSM   H12A10516   5.007   3.416  11.106  0.7582 -1.2335 -0.1984
  104OSM   H12B10517   5.167   3.486  11.094 -1.0885 -2.0100  0.0873
  104OSM    C1110518   5.053   3.502  10.916  0.2639 -0.5219 -0.8788
  104OSM   H11A10519   4.950   3.486  10.879  0.8133 -0.5759 -2.4361
  104OSM   H11B10520   5.102   3.406  10.888 -0.4180 -1.2234  0.2836
  104OSM      P10521   5.276   3.606  10.831 -0.0559  0.0111  0.6415
  104OSM    O1310522   5.317   3.746  10.792 -0.0425 -0.0066  0.0424
  104OSM    O1410523   5.334   3.550  10.957  0.4839 -0.2383 -0.1223
  104OSM    O1110524   5.306   3.490  10.720  0.2227 -0.4681 -0.6128
  104OSM    O1210525   5.120   3.613  10.847  0.1328 -0.1227  0.0809
  104OSM    C1S10526   5.207   3.451  10.623 -0.0361  0.1550 -0.9293
  104OSM    H1S10527   5.103   3.443  10.661  0.3177 -1.0694 -0.1948
  104OSM    H1T10528   5.237   3.352  10.584 -1.0963 -0.1980 -0.8315
  104OSM     NF10529   5.094   3.492  10.405  0.2796 -0.1677  0.2198
  104OSM    HNF10530   5.121   3.445  10.322  2.2588 -2.5650  2.1276
  104OSM    C2S10531   5.198   3.539  10.493 -0.2089  0.2283 -0.1786
  104OSM    H2S10532   5.164   3.637  10.533 -1.1458 -0.1412 -0.0639
  104OSM    C3S10533   5.335   3.561  10.417 -0.1379 -0.5147 -0.6681
  104OSM    H3S10534   5.368   3.458  10.394 -0.6872 -1.1605  1.3553
  104OSM     O310535   5.438   3.615  10.501  0.1687  0.6524  0.3564
  104OSM    HO310536   5.400   3.586  10.585 -1.0181 -0.5689 -0.5658
  104OSM    C4S10537   5.319   3.646  10.299  0.3000 -0.0988  0.5099
  104OSM    H4S10538   5.332   3.595  10.203  1.4134  0.9730  0.0835
  104OSM    C5S10539   5.306   3.784  10.293 -0.0126 -0.1024  0.2462
  104OSM    H5S10540   5.291   3.841  10.386 -0.9519  0.3777 -0.1938
  104OSM    C6S10541   5.300   3.862  10.167 -0.0656 -0.3201  0.2419
  104OSM    H6S10542   5.338   3.966  10.182 -1.3080  0.3934 -1.3268
  104OSM    H6T10543   5.195   3.876  10.133 -0.8840 -1.7068  2.1350
  104OSM    C7S10544   5.381   3.814  10.047 -0.0403 -0.2795  0.6298
  104OSM    H7S10545   5.331   3.721  10.013  2.1442 -2.6903  3.6760
  104OSM    H7T10546   5.484   3.788  10.082 -0.9727 -1.5758  2.5192
  104OSM    C8S10547   5.373   3.914   9.936 -0.3590  0.3742  0.2802
  104OSM    H8S10548   5.396   4.020   9.961  1.5719 -0.8197  3.9784
  104OSM    H8T10549   5.268   3.913   9.901 -0.1068 -0.3841 -0.4543
  104OSM    C9S10550   5.450   3.866   9.813 -0.1699  0.1643  0.2315
  104OSM    H9S10551   5.443   3.755   9.812 -0.7002  0.1759 -2.7863
  104OSM    H9T10552   5.557   3.892   9.826 -0.0083 -0.2612 -0.2137
  104OSM   C10S10553   5.407   3.915   9.676  0.3239 -0.1376  0.0229
  104OSM   H10S10554   5.431   4.023   9.663 -0.6098  0.0836  0.0565
  104OSM   H10T10555   5.296   3.905   9.677  0.2497  0.4184 -1.2663
  104OSM   C11S10556   5.469   3.830   9.560  0.2506 -0.3966 -0.4211
  104OSM   H11S10557   5.413   3.739   9.529 -0.5649 -0.5636  1.4570
  104OSM   H11T10558   5.572   3.818   9.603  0.7236 -0.1483 -1.4786
  104OSM   C12S10559   5.478   3.912   9.427 -0.3566  0.3519 -0.4952
  104OSM   H12S10560   5.543   3.998   9.454 -0.3830  0.4265 -0.6703
  104OSM   H12T10561   5.377   3.942   9.394 -0.0200  1.0421 -0.8971
  104OSM   C13S10562   5.541   3.845   9.300 -0.1836  0.5394 -0.0281
  104OSM   H13S10563   5.464   3.790   9.241  0.8694  0.2688 -1.1714
  104OSM   H13T10564   5.626   3.781   9.329  0.8134  2.3731  1.1931
  104OSM   C14S10565   5.609   3.955   9.226 -0.1119 -0.2786  0.5766
  104OSM   H14S10566   5.657   4.022   9.301 -1.9370  1.5075  0.2202
  104OSM   H14T10567   5.530   4.020   9.181  0.3251 -0.5893 -0.6433
  104OSM   C15S10568   5.713   3.908   9.121 -0.5074  0.1416  1.1761
  104OSM   H15S10569   5.795   3.856   9.174 -0.5744 -0.8446  0.3190
  104OSM   H15T10570   5.762   3.999   9.080 -2.0484  0.8099  0.7435
  104OSM   C16S10571   5.640   3.827   9.013 -0.0452  0.2629  0.5936
  104OSM   H16S10572   5.547   3.873   8.976  1.0704  0.9211 -1.4953
  104OSM   H16T10573   5.613   3.731   9.062 -1.4122  0.6129  0.5379
  104OSM   C17S10574   5.722   3.773   8.892  0.0031 -0.4715 -0.2848
  104OSM   H17S10575   5.673   3.684   8.846 -3.2077  0.5746  1.0207
  104OSM   H17T10576   5.822   3.745   8.932 -0.2426  2.1166  2.2928
  104OSM   C18S10577   5.735   3.863   8.766 -0.5771 -0.2597 -0.2267
  104OSM   H18S10578   5.816   3.939   8.777 -0.5212 -0.1378 -1.4851
  104OSM   H18T10579   5.637   3.899   8.729 -0.6677 -1.0149 -0.7261
  104OSM   H18U10580   5.775   3.788   8.696 -0.0792 -1.8064  1.6604
  104OSM    C1F10581   4.966   3.515  10.434 -0.5979 -0.5431 -0.4125
  104OSM     OF10582   4.929   3.540  10.546 -0.0108  0.1331  0.1763
  104OSM    C2F10583   4.872   3.504  10.320  0.2200 -0.0526  0.7249
  104OSM    H2F10584   4.780   3.452  10.353 -2.4150  3.3536 -0.9765
  104OSM    H2G10585   4.916   3.424  10.256 -0.1290 -0.1275  0.5790
  104OSM    C3F10586   4.827   3.637  10.252 -0.4416  0.4023  0.0104
  104OSM    H3F10587   4.919   3.684  10.210 -0.6909  0.5662 -0.3460
  104OSM    H3G10588   4.778   3.708  10.322 -0.6541  0.1290  0.1395
  104OSM    C4F10589   4.740   3.602  10.133  0.7869 -0.0590  0.2285
  104OSM    H4F10590   4.635   3.581  10.162  1.0549  0.9565  1.9710
  104OSM    H4G10591   4.788   3.515  10.083  2.8602  1.3740 -0.3445
  104OSM    C5F10592   4.723   3.719  10.038 -0.2601 -0.6071  0.3466
  104OSM    H5F10593   4.822   3.754  10.001 -1.9854  4.3681 -0.0110
  104OSM    H5G10594   4.680   3.809  10.086  1.6613  1.4743 -1.6840
  104OSM    C6F10595   4.630   3.680   9.925  0.3909  0.5411  0.1373
  104OSM    H6F10596   4.539   3.642   9.975  0.7169  0.6257  0.8099
  104OSM    H6G10597   4.662   3.590   9.868 -1.3267 -1.4302  2.1990
  104OSM    C7F10598   4.601   3.799   9.835 -0.0616  0.1914  0.4249
  104OSM    H7F10599   4.694   3.854   9.810 -1.0372  2.0442  0.8389
  104OSM    H7G10600   4.549   3.867   9.905 -1.0295 -0.5747  0.4673
  104OSM    C8F10601   4.527   3.781   9.699 -0.1536  0.0642  0.5557
  104OSM    H8F10602   4.504   3.882   9.658 -0.0988 -0.5604 -1.0726
  104OSM    H8G10603   4.427   3.737   9.719 -0.6614  1.1056  0.3810
  104OSM    C9F10604   4.596   3.706   9.588  0.3654  0.2764 -0.6979
  104OSM    H9F10605   4.684   3.643   9.611 -0.0930  0.1870  0.8339
  104OSM   C10F10606   4.540   3.682   9.468 -0.7190  0.3986  0.2972
  104OSM   H10F10607   4.600   3.618   9.401 -1.0315  1.0388 -0.6105
  104OSM   C11F10608   4.411   3.745   9.426  0.0183 -0.1983  0.2698
  104OSM   H11F10609   4.407   3.854   9.450 -1.0599 -0.1861  0.0569
  104OSM   H11G10610   4.330   3.694   9.483  1.4617 -3.6707 -0.6802
  104OSM   C12F10611   4.365   3.718   9.278  0.8731  0.6230 -0.0153
  104OSM   H12F10612   4.256   3.738   9.277  0.5931 -0.8055  0.4841
  104OSM   H12G10613   4.379   3.610   9.256  1.0790  1.1865 -2.7894
  104OSM   C13F10614   4.438   3.798   9.170  1.1394  0.3018  0.0735
  104OSM   H13F10615   4.482   3.715   9.109 -1.3406 -0.7494 -0.3540
  104OSM   H13G10616   4.529   3.843   9.215  0.9859 -0.6028  1.2892
  104OSM   C14F10617   4.346   3.892   9.081  0.0686 -0.4018 -0.6301
  104OSM   H14F10618   4.292   3.950   9.159  0.6265 -2.5036  1.3971
  104OSM   H14G10619   4.274   3.835   9.018 -0.2633  0.3734 -0.9542
  104OSM   C15F10620   4.416   3.993   8.994 -0.5896  0.3993  0.6300
  104OSM   H15F10621   4.335   4.043   8.937 -1.3016  0.3231  1.5620
  104OSM   H15G10622   4.477   3.934   8.922 -0.9133 -0.2754  0.9046
  104OSM   C16F10623   4.496   4.107   9.066 -1.2603 -0.8267 -0.4759
  104OSM   H16F10624   4.580   4.053   9.116 -0.5518  0.5889 -0.1190
  104OSM   H16G10625   4.435   4.159   9.143 -1.2673  0.2311 -1.1931
  104OSM   C17F10626   4.556   4.215   8.974  0.3618 -0.9539 -0.0645
  104OSM   H17F10627   4.483   4.239   8.894  1.1660 -0.4971 -0.6660
  104OSM   H17G10628   4.644   4.168   8.925  1.4955  3.7802 -2.8719
  104OSM   C18F10629   4.600   4.334   9.058  0.1695 -0.6497 -0.2152
  104OSM   H18F10630   4.638   4.411   8.987  0.1633  0.7170  1.2276
  104OSM   H18G10631   4.675   4.301   9.133  0.6764 -1.3228 -1.0139
  104OSM   H18H10632   4.506   4.374   9.101  1.2088  2.8840 -1.0079
  105OSM      N10633   1.785   0.140  10.726 -0.1191 -0.3378  0.5276
  105OSM    C1510634   1.678   0.123  10.824 -0.8321 -0.1165  0.5546
  105OSM   H15A10635   1.611   0.206  10.840  1.6718  1.9859  0.3995
  105OSM   H15B10636   1.725   0.101  10.919 -0.3949 -1.2955  0.0762
  105OSM   H15C10637   1.606   0.043  10.808  1.5184 -2.2182  0.1502
  105OSM    C1410638   1.729   0.224  10.610 -0.0603 -0.0841  0.0933
  105OSM   H14A10639   1.668   0.308  10.641  0.5948  0.0881  0.9474
  105OSM   H14B10640   1.651   0.163  10.569  0.6581 -2.4918  2.1720
  105OSM   H14C10641   1.801   0.251  10.534  0.4346 -2.6668 -0.3856
  105OSM    C1310642   1.889   0.235  10.783 -0.8228 -0.1120 -0.4637
  105OSM   H13A10643   1.837   0.327  10.805  3.4749  1.8818  2.0354
  105OSM   H13B10644   1.968   0.252  10.712 -0.1654 -0.4856  0.1685
  105OSM   H13C10645   1.932   0.202  10.877  0.2934 -0.0561 -0.9506
  105OSM    C1210646   1.844   0.009  10.679  0.2081  0.2097  0.0076
  105OSM   H12A10647   1.885  -0.038  10.767  0.9898  1.3002  0.2412
  105OSM   H12B10648   1.929   0.024  10.614 -0.2163 -1.1233 -0.8795
  105OSM    C1110649   1.743  -0.081  10.609  0.5369 -0.3718  0.1048
  105OSM   H11A10650   1.798  -0.161  10.556  0.3456 -0.9455  0.7636
  105OSM   H11B10651   1.700  -0.019  10.527 -1.3193  0.6842  1.8183
  105OSM      P10652   1.618  -0.268  10.737  0.0411  0.0941  0.3938
  105OSM    O1310653   1.750  -0.293  10.794 -0.7568 -0.0233 -0.1869
  105OSM    O1410654   1.505  -0.280  10.831  0.3474 -0.7583 -0.4252
  105OSM    O1110655   1.582  -0.349  10.605  0.4968 -0.0309  0.1059
  105OSM    O1210656   1.621  -0.124  10.684  0.1128  0.5795  0.3579
  105OSM    C1S10657   1.454  -0.316  10.539 -0.6769 -0.1040 -0.3072
  105OSM    H1S10658   1.411  -0.223  10.581  2.2797  2.5571 -2.8137
  105OSM    H1T10659   1.391  -0.407  10.545  0.7309 -1.0792  0.0139
  105OSM     NF10660   1.348  -0.280  10.316 -0.3581  0.7778 -0.0424
  105OSM    HNF10661   1.312  -0.350  10.256  1.9916 -0.2254 -0.3597
  105OSM    C2S10662   1.475  -0.307  10.381 -0.0156  0.4814 -0.1391
  105OSM    H2S10663   1.550  -0.228  10.362  0.6471 -0.3169 -0.8737
  105OSM    C3S10664   1.533  -0.436  10.317 -0.1476 -0.4405  0.4106
  105OSM    H3S10665   1.463  -0.519  10.338 -0.9601  0.2093  0.2751
  105OSM     O310666   1.653  -0.476  10.374  0.4204 -0.4331  0.3842
  105OSM    HO310667   1.660  -0.440  10.462 -0.7801  0.1298  0.2491
  105OSM    C4S10668   1.557  -0.415  10.164 -0.1889 -0.6027  0.3612
  105OSM    H4S10669   1.611  -0.322  10.142 -1.3800 -0.2955 -1.3294
  105OSM    C5S10670   1.518  -0.497  10.063  0.3986  0.1881 -0.2918
  105OSM    H5S10671   1.467  -0.593  10.079 -0.2613  0.5530 -0.2110
  105OSM    C6S10672   1.553  -0.469   9.920 -0.5159  1.0281  0.5994
  105OSM    H6S10673   1.586  -0.561   9.867 -2.8916  0.9015 -0.7272
  105OSM    H6T10674   1.638  -0.398   9.912  0.3142 -0.1442 -1.4255
  105OSM    C7S10675   1.432  -0.412   9.842 -0.1181  0.3707  0.3744
  105OSM    H7S10676   1.389  -0.330   9.903  0.6955  1.5835 -0.6666
  105OSM    H7T10677   1.359  -0.495   9.826 -0.7545  0.7623  1.2012
  105OSM    C8S10678   1.485  -0.351   9.710  0.1319 -0.0383 -0.1268
  105OSM    H8S10679   1.553  -0.264   9.721  0.3919 -0.4026  1.1704
  105OSM    H8T10680   1.396  -0.295   9.673 -0.5706 -1.3886 -0.5153
  105OSM    C9S10681   1.542  -0.449   9.608  0.9176 -0.0016 -0.4571
  105OSM    H9S10682   1.484  -0.543   9.619 -1.7752  1.5051 -1.1597
  105OSM    H9T10683   1.647  -0.478   9.628  0.6518 -1.5506 -1.2056
  105OSM   C10S10684   1.524  -0.413   9.466  0.4545 -0.2486  0.0616
  105OSM   H10S10685   1.501  -0.305   9.454 -1.3350 -0.6016  0.2227
  105OSM   H10T10686   1.448  -0.475   9.414  0.6771 -1.2151  0.8889
  105OSM   C11S10687   1.653  -0.437   9.390  0.5970  0.5149 -0.1405
  105OSM   H11S10688   1.749  -0.406   9.438  0.8648  1.1373 -1.0787
  105OSM   H11T10689   1.639  -0.386   9.293 -1.4205  2.7526  1.2763
  105OSM   C12S10690   1.668  -0.589   9.357  0.1965 -0.0518 -0.1975
  105OSM   H12S10691   1.569  -0.620   9.318  0.5276 -0.5016 -0.6856
  105OSM   H12T10692   1.682  -0.654   9.446 -0.9295 -2.4573 -1.7416
  105OSM   C13S10693   1.764  -0.618   9.245 -0.1234  0.2786  0.5248
  105OSM   H13S10694   1.863  -0.569   9.258  0.1321 -0.4090  1.2142
  105OSM   H13T10695   1.716  -0.562   9.162 -0.1022  0.2147  0.4702
  105OSM   C14S10696   1.781  -0.761   9.201  0.3583 -0.6804  0.3413
  105OSM   H14S10697   1.686  -0.808   9.168  0.3070 -0.5697  0.3297
  105OSM   H14T10698   1.818  -0.824   9.285  1.6242  0.1383  0.4117
  105OSM   C15S10699   1.879  -0.785   9.084 -0.0947  0.0155  0.8265
  105OSM   H15S10700   1.877  -0.889   9.045 -0.8746  0.9284 -1.6713
  105OSM   H15T10701   1.981  -0.768   9.125  0.0396 -0.2919  0.6178
  105OSM   C16S10702   1.870  -0.680   8.966 -0.1668 -0.9133  0.5308
  105OSM   H16S10703   1.880  -0.579   9.009 -0.2726  0.5257 -2.6770
  105OSM   H16T10704   1.766  -0.677   8.926  0.8451 -0.6232 -2.1369
  105OSM   C17S10705   1.977  -0.698   8.858 -0.2048 -0.0869 -0.5721
  105OSM   H17S10706   1.925  -0.766   8.787 -1.7249  0.9546 -0.4750
  105OSM   H17T10707   2.075  -0.740   8.890 -1.4084 -1.7661  0.9340
  105OSM   C18S10708   1.991  -0.559   8.793  0.1238  0.6733  0.4722
  105OSM   H18S10709   1.893  -0.527   8.754 -0.3736 -1.6696 -0.3099
  105OSM   H18T10710   2.068  -0.559   8.713  1.1170  1.6333  1.4073
  105OSM   H18U10711   2.019  -0.484   8.870 -0.9195  0.3629  1.1707
  105OSM    C1F10712   1.292  -0.163  10.335  0.1641 -0.1989 -0.0395
  105OSM     OF10713   1.361  -0.067  10.378 -0.4521  0.2160  0.3031
  105OSM    C2F10714   1.143  -0.142  10.313 -0.7280 -0.6077 -0.2712
  105OSM    H2F10715   1.098  -0.116  10.411 -0.4267  2.3298 -0.8800
  105OSM    H2G10716   1.094  -0.234  10.273  0.3554 -2.0750  1.6650
  105OSM    C3F10717   1.118  -0.023  10.220  0.0259  0.3046 -0.0518
  105OSM    H3F10718   1.192   0.055  10.251  0.6730 -1.4727  3.0464
  105OSM    H3G10719   1.015   0.013  10.237  0.2005  1.2237 -0.8708
  105OSM    C4F10720   1.132  -0.058  10.068 -0.0399  0.7938 -0.2173
  105OSM    H4F10721   1.075  -0.143  10.026 -0.2906  0.9921 -0.2770
  105OSM    H4G10722   1.235  -0.100  10.057 -1.0922 -1.2380 -2.8966
  105OSM    C5F10723   1.116   0.061   9.974  0.5084  0.8178 -0.0012
  105OSM    H5F10724   1.178   0.148  10.003 -0.3641  1.2335  0.6657
  105OSM    H5G10725   1.010   0.095   9.979  0.8143  1.9584 -1.0879
  105OSM    C6F10726   1.150   0.038   9.822  0.0911  0.2600  0.2460
  105OSM    H6F10727   1.256   0.007   9.823 -0.0659 -0.2827  0.4785
  105OSM    H6G10728   1.139   0.135   9.769  0.6909  0.0810 -0.2065
  105OSM    C7F10729   1.065  -0.070   9.758 -0.2868  0.6682 -0.6974
  105OSM    H7F10730   0.958  -0.060   9.788  0.1193 -1.8425  1.9207
  105OSM    H7G10731   1.106  -0.160   9.809  1.7833  0.9710 -1.8100
  105OSM    C8F10732   1.077  -0.079   9.604 -0.5076  0.1065  0.7230
  105OSM    H8F10733   1.027   0.010   9.559  2.0173  1.8542  1.2668
  105OSM    H8G10734   1.020  -0.171   9.578 -1.3252  0.6405  0.6285
  105OSM    C9F10735   1.214  -0.097   9.540 -0.0590 -0.0771  0.1037
  105OSM    H9F10736   1.295  -0.099   9.614  1.8695  1.0179 -1.9499
  105OSM   C10F10737   1.233  -0.097   9.407 -0.0104  0.0552 -0.1449
  105OSM   H10F10738   1.337  -0.101   9.370  0.7280 -0.7061  1.9629
  105OSM   C11F10739   1.131  -0.079   9.289 -0.4191  0.1688 -0.6609
  105OSM   H11F10740   1.177  -0.002   9.224 -0.8841 -0.3322 -1.5981
  105OSM   H11G10741   1.028  -0.057   9.325 -0.1563  1.1257 -0.4791
  105OSM   C12F10742   1.128  -0.213   9.211  0.0454 -0.8132  0.4742
  105OSM   H12F10743   1.021  -0.226   9.186  0.1454 -1.8162  0.5090
  105OSM   H12G10744   1.149  -0.302   9.275 -1.1209 -2.2221 -1.0403
  105OSM   C13F10745   1.215  -0.200   9.085  0.1993  0.0435 -1.0701
  105OSM   H13F10746   1.201  -0.297   9.033  0.5267 -0.7516  0.2985
  105OSM   H13G10747   1.323  -0.195   9.111  0.0197  0.0009 -0.3158
  105OSM   C14F10748   1.179  -0.083   8.990  0.2017 -0.2836  0.0025
  105OSM   H14F10749   1.228   0.011   9.024 -0.5872  0.8508 -1.9128
  105OSM   H14G10750   1.071  -0.064   9.005  0.5787  0.3867  2.0392
  105OSM   C15F10751   1.223  -0.112   8.847 -0.4850 -0.0779 -0.1352
  105OSM   H15F10752   1.173  -0.201   8.803  2.2301 -1.8193  0.1699
  105OSM   H15G10753   1.333  -0.119   8.834 -0.6117  2.7408 -3.4902
  105OSM   C16F10754   1.181   0.012   8.750 -0.0955 -0.0205  0.3102
  105OSM   H16F10755   1.255   0.016   8.666  0.4914  0.4026  0.8389
  105OSM   H16G10756   1.192   0.111   8.800  1.4415  0.1365 -0.2969
  105OSM   C17F10757   1.031   0.001   8.707 -0.1984 -0.1940 -0.2774
  105OSM   H17F10758   0.959   0.020   8.790 -1.5121 -1.6591 -1.0551
  105OSM   H17G10759   1.014  -0.108   8.696  0.2697 -0.4440  1.4357
  105OSM   C18F10760   0.988   0.069   8.577  0.2468  0.2454 -0.3039
  105OSM   H18F10761   1.068   0.048   8.502  0.3368 -1.4883  0.2447
  105OSM   H18G10762   0.992   0.180   8.588  2.7438  0.1547 -0.0002
  105OSM   H18H10763   0.892   0.031   8.536  1.1098 -0.5354 -1.6381
  106OSM      N10764   0.860   6.201  10.850  0.3187  0.2908  0.3458
  106OSM    C1510765   1.001   6.233  10.844  0.0140 -0.4101 -0.5658
  106OSM   H15A10766   1.034   6.231  10.947 -1.3514 -3.1700 -0.1465
  106OSM   H15B10767   1.029   6.329  10.804 -1.3409  1.1140  2.0388
  106OSM   H15C10768   1.058   6.152  10.800  0.2206 -0.0130 -1.0310
  106OSM    C1410769   0.849   6.050  10.897 -0.7862 -0.3138 -0.3783
  106OSM   H14A10770   0.884   6.037  10.998 -3.3240  1.8558  0.8649
  106OSM   H14B10771   0.917   5.985  10.844  0.3634 -1.1278  2.0590
  106OSM   H14C10772   0.747   6.017  10.879 -1.5438  1.7364 -0.0742
  106OSM    C1310773   0.789   6.286  10.951  0.5376  0.2227 -0.2786
  106OSM   H13A10774   0.799   6.389  10.921  1.6618  0.3371  0.4360
  106OSM   H13B10775   0.834   6.269  11.048 -4.2157  1.3069  2.2627
  106OSM   H13C10776   0.686   6.255  10.958 -0.2753  2.9386  0.3208
  106OSM    C1210777   0.793   6.216  10.716 -0.0735 -0.2092  0.3163
  106OSM   H12A10778   0.850   6.170  10.636 -0.8184 -0.1678 -0.2425
  106OSM   H12B10779   0.790   6.321  10.693  0.5091 -0.0938  0.7603
  106OSM    C1110780   0.653   6.154  10.714 -1.2603 -0.1567  0.2131
  106OSM   H11A10781   0.658   6.043  10.721  1.1860 -0.1820 -1.2699
  106OSM   H11B10782   0.618   6.175  10.610  2.1783  4.4064 -0.1785
  106OSM      P10783   0.469   6.132  10.889  0.0043 -0.0733 -0.1589
  106OSM    O1310784   0.555   6.044  10.970  1.0904 -0.0612  0.2408
  106OSM    O1410785   0.376   6.217  10.956 -0.3521  0.3780  0.2598
  106OSM    O1110786   0.391   6.051  10.790  0.1232  0.7278 -0.0718
  106OSM    O1210787   0.563   6.219  10.808  0.3317 -0.5036 -0.0716
  106OSM    C1S10788   0.316   6.106  10.679 -0.3915  0.1208 -0.4104
  106OSM    H1S10789   0.333   6.214  10.657 -0.4366  0.1732 -0.1866
  106OSM    H1T10790   0.206   6.094  10.680 -0.4876  1.0280  0.1061
  106OSM     NF10791   0.252   6.083  10.441  0.1958  0.2731  0.9850
  106OSM    HNF10792   0.176   6.019  10.431  4.2174 -4.5338 -0.6157
  106OSM    C2S10793   0.348   6.030  10.541 -0.2553  0.9335 -0.0518
  106OSM    H2S10794   0.453   6.053  10.514  0.2227 -0.3173  0.6797
  106OSM    C3S10795   0.340   5.881  10.560 -0.0516 -0.0930 -0.1827
  106OSM    H3S10796   0.238   5.851  10.594 -0.5319  0.6863 -0.9222
  106OSM     O310797   0.427   5.834  10.664  0.2397  0.2081  0.7141
  106OSM    HO310798   0.425   5.905  10.728 -0.1703 -0.0902  1.0352
  106OSM    C4S10799   0.371   5.814  10.429 -0.0902  0.0687 -0.1729
  106OSM    H4S10800   0.464   5.844  10.378  0.4764 -2.9261 -1.0090
  106OSM    C5S10801   0.297   5.718  10.370 -0.5597 -0.4657  0.9026
  106OSM    H5S10802   0.203   5.679  10.413 -0.5138  0.7345  2.1147
  106OSM    C6S10803   0.331   5.666  10.228  0.4722 -0.3677  0.1441
  106OSM    H6S10804   0.236   5.633  10.182 -0.2021  0.8866  0.6122
  106OSM    H6T10805   0.412   5.590  10.231 -0.1950 -1.1234 -1.0524
  106OSM    C7S10806   0.383   5.767  10.126  0.5843 -1.2851 -0.4351
  106OSM    H7S10807   0.430   5.709  10.044  3.0246 -1.7296  1.2413
  106OSM    H7T10808   0.464   5.829  10.169  0.0545 -2.0003  1.6612
  106OSM    C8S10809   0.277   5.861  10.075 -0.2943 -0.2440  0.3350
  106OSM    H8S10810   0.233   5.918  10.159 -1.5955 -2.6689  1.3610
  106OSM    H8T10811   0.203   5.795  10.024 -2.3668 -0.5816  3.6477
  106OSM    C9S10812   0.324   5.958   9.966 -0.0316 -0.5235 -0.8129
  106OSM    H9S10813   0.377   6.046  10.007 -4.1114  0.0931  3.4926
  106OSM    H9T10814   0.238   6.005   9.914 -1.3528 -0.2245  1.5846
  106OSM   C10S10815   0.405   5.889   9.855 -0.5141 -0.3761 -0.6045
  106OSM   H10S10816   0.338   5.807   9.821 -1.7942  0.9814 -1.4020
  106OSM   H10T10817   0.498   5.841   9.894  0.8485  1.9695 -0.8988
  106OSM   C11S10818   0.440   5.973   9.734 -0.1129 -0.4397 -0.0264
  106OSM   H11S10819   0.518   6.044   9.768 -1.0349  0.6298 -0.1313
  106OSM   H11T10820   0.357   6.040   9.702  0.1424  0.2054  0.6552
  106OSM   C12S10821   0.500   5.900   9.620 -0.5928  0.5226 -0.1078
  106OSM   H12S10822   0.418   5.839   9.576  0.0795  0.0912 -0.7802
  106OSM   H12T10823   0.589   5.843   9.655 -0.1155  2.2198  1.4850
  106OSM   C13S10824   0.553   5.997   9.512  0.2940  0.6550 -0.0871
  106OSM   H13S10825   0.641   6.048   9.556  1.9230 -2.3035  0.2072
  106OSM   H13T10826   0.465   6.060   9.489  0.5417  1.0835  0.1533
  106OSM   C14S10827   0.609   5.939   9.383  0.3083  0.7790  0.4008
  106OSM   H14S10828   0.542   5.857   9.351  0.2681  0.7971  0.4400
  106OSM   H14T10829   0.711   5.894   9.390  0.8364  2.1965  2.0927
  106OSM   C15S10830   0.622   6.044   9.271 -0.8847 -0.5634  0.9223
  106OSM   H15S10831   0.666   6.134   9.319  1.0231 -1.2277  0.4446
  106OSM   H15T10832   0.527   6.076   9.222  1.0178  1.4478 -1.5896
  106OSM   C16S10833   0.725   5.996   9.162  0.1612  0.2867  0.2478
  106OSM   H16S10834   0.676   5.928   9.090 -1.0851 -0.1635  1.5108
  106OSM   H16T10835   0.808   5.941   9.210  0.8265  1.5633  0.5993
  106OSM   C17S10836   0.799   6.099   9.071  0.9287 -0.4678  0.1040
  106OSM   H17S10837   0.888   6.056   9.019  0.7283 -0.2313 -0.4375
  106OSM   H17T10838   0.837   6.190   9.121  0.0708  1.1300 -2.1070
  106OSM   C18S10839   0.703   6.167   8.977  0.2909  0.1578  0.0408
  106OSM   H18S10840   0.655   6.097   8.905  1.8581 -0.0166 -0.8396
  106OSM   H18T10841   0.747   6.256   8.928  3.4991 -0.5191  1.5368
  106OSM   H18U10842   0.623   6.217   9.037 -2.8794 -0.8768 -3.1193
  106OSM    C1F10843   0.248   6.209  10.399 -0.0912 -0.5378 -0.1167
  106OSM     OF10844   0.329   6.286  10.448  0.1385  0.2224 -0.6215
  106OSM    C2F10845   0.147   6.251  10.295  0.0491 -0.5343  0.0865
  106OSM    H2F10846   0.061   6.304  10.341 -0.5453  0.4943 -2.1368
  106OSM    H2G10847   0.110   6.164  10.237  3.1437 -1.1789 -0.9950
  106OSM    C3F10848   0.211   6.341  10.187  0.3162 -0.1177 -0.2226
  106OSM    H3F10849   0.307   6.288  10.165 -0.2124 -0.7200 -1.1328
  106OSM    H3G10850   0.229   6.441  10.231 -0.4962  0.7101 -1.7433
  106OSM    C4F10851   0.130   6.361  10.069  0.5138  0.5102  0.1989
  106OSM    H4F10852   0.051   6.439  10.083  0.4448  0.6850 -1.0923
  106OSM    H4G10853   0.077   6.269  10.037 -0.7965  0.4041  2.4853
  106OSM    C5F10854   0.220   6.393   9.946 -0.6046 -1.0210 -1.3114
  106OSM    H5F10855   0.299   6.315   9.938  0.3880 -0.3638  1.5235
  106OSM    H5G10856   0.279   6.485   9.972 -1.0722 -0.4321 -2.3086
  106OSM    C6F10857   0.144   6.406   9.822 -0.6806 -0.4126  0.7101
  106OSM    H6F10858   0.109   6.511   9.813  0.0712 -0.3169 -1.2902
  106OSM    H6G10859   0.054   6.340   9.824 -3.2911  2.9920  0.2654
  106OSM    C7F10860   0.214   6.368   9.694  0.0848  0.1370 -0.6540
  106OSM    H7F10861   0.145   6.394   9.611  0.3857  1.3699 -0.5256
  106OSM    H7G10862   0.220   6.257   9.700  0.2988  0.0710 -2.0824
  106OSM    C8F10863   0.350   6.430   9.676 -0.1512 -1.3790  0.0051
  106OSM    H8F10864   0.410   6.434   9.770  0.8643 -1.1192 -0.6535
  106OSM    H8G10865   0.331   6.537   9.652 -0.6008 -1.6148 -0.6974
  106OSM    C9F10866   0.412   6.353   9.561 -0.2041  0.0791 -0.4147
  106OSM    H9F10867   0.489   6.285   9.600 -1.0463  1.1030  3.2534
  106OSM   C10F10868   0.401   6.363   9.426  0.4567  0.3751 -0.0461
  106OSM   H10F10869   0.452   6.283   9.371 -0.9528  0.3247 -1.3208
  106OSM   C11F10870   0.302   6.448   9.355 -0.0601  0.8871 -0.4086
  106OSM   H11F10871   0.279   6.535   9.420 -2.0201 -0.1050  0.2742
  106OSM   H11G10872   0.203   6.400   9.345 -0.2263  0.9168  1.0019
  106OSM   C12F10873   0.351   6.477   9.206  0.1533 -0.5321  0.0531
  106OSM   H12F10874   0.442   6.541   9.209 -0.1543 -0.0671 -0.3082
  106OSM   H12G10875   0.281   6.549   9.158 -0.6528 -1.3417  0.0206
  106OSM   C13F10876   0.364   6.360   9.107  0.1151  0.4477 -0.3995
  106OSM   H13F10877   0.279   6.291   9.126  0.8070 -0.2970  0.0181
  106OSM   H13G10878   0.465   6.320   9.134 -0.0863  0.1952 -0.0092
  106OSM   C14F10879   0.360   6.399   8.955 -0.4171 -0.0875 -0.3327
  106OSM   H14F10880   0.423   6.322   8.905  0.7626  1.2766 -0.9961
  106OSM   H14G10881   0.390   6.505   8.944 -0.0757 -0.1544 -0.0602
  106OSM   C15F10882   0.214   6.389   8.901  0.2450 -0.0347  0.3874
  106OSM   H15F10883   0.141   6.421   8.978 -0.5376 -0.8137 -0.0357
  106OSM   H15G10884   0.183   6.287   8.870  1.7707 -0.6638  0.8849
  106OSM   C16F10885   0.190   6.488   8.781  0.3013  0.0029 -0.4041
  106OSM   H16F10886   0.226   6.588   8.811 -0.6929  0.3658 -0.4244
  106OSM   H16G10887   0.079   6.490   8.782  0.3106  0.7659 -0.4845
  106OSM   C17F10888   0.257   6.440   8.648 -0.1945  0.1756 -0.6907
  106OSM   H17F10889   0.254   6.329   8.644  0.5878  0.0718  1.1749
  106OSM   H17G10890   0.367   6.458   8.652 -0.2493  0.2691  0.8231
  106OSM   C18F10891   0.188   6.486   8.516  0.2515 -0.0559  0.2959
  106OSM   H18F10892   0.229   6.585   8.487  1.0133  0.2586  2.3025
  106OSM   H18G10893   0.079   6.483   8.537  0.1467 -0.2419 -0.2897
  106OSM   H18H10894   0.212   6.415   8.434 -3.1495  0.8590 -1.5906
  107OSM      N10895   3.146   3.107  11.123  0.1910 -0.2929  0.1254
  107OSM    C1510896   3.290   3.081  11.092 -0.2877  0.1392 -0.4776
  107OSM   H15A10897   3.351   3.141  11.158  1.1716 -2.4977  0.6323
  107OSM   H15B10898   3.323   3.099  10.990  0.3163 -1.9731 -0.6892
  107OSM   H15C10899   3.319   2.979  11.114  3.3352  0.4750 -3.0702
  107OSM    C1410900   3.065   3.024  11.025 -0.3839  0.6959 -0.5099
  107OSM   H14A10901   3.064   2.919  11.051  0.4564  0.2728 -2.1045
  107OSM   H14B10902   3.098   3.028  10.922 -2.2465  0.4984 -1.1353
  107OSM   H14C10903   2.967   3.070  11.019 -0.4175  1.0043  2.0310
  107OSM    C1310904   3.123   3.072  11.270  0.7901 -0.1337 -0.0703
  107OSM   H13A10905   3.161   2.972  11.284  2.0713  0.1478 -1.3848
  107OSM   H13B10906   3.018   3.068  11.294  0.7989 -2.3634 -0.3600
  107OSM   H13C10907   3.175   3.142  11.334 -0.2108 -0.3135  0.9382
  107OSM    C1210908   3.105   3.256  11.097  0.1180 -0.3409 -0.1341
  107OSM   H12A10909   3.160   3.325  11.160 -2.9136 -0.8556  3.1949
  107OSM   H12B10910   3.004   3.275  11.128  0.1120 -0.3566 -0.1439
  107OSM    C1110911   3.136   3.313  10.956  0.0254  0.9810 -0.2802
  107OSM   H11A10912   3.223   3.260  10.912 -1.9345 -1.1433 -1.6564
  107OSM   H11B10913   3.164   3.420  10.968  1.9074  0.4743  0.0530
  107OSM      P10914   2.910   3.375  10.883 -0.3226 -0.0665  0.3314
  107OSM    O1310915   2.814   3.331  10.782  0.0045 -0.7365 -0.2237
  107OSM    O1410916   2.856   3.376  11.021  0.0414 -0.1765 -0.7082
  107OSM    O1110917   2.978   3.506  10.841 -0.2526 -0.0122  0.2151
  107OSM    O1210918   3.030   3.280  10.875  0.0935 -0.5213  0.0789
  107OSM    C1S10919   3.056   3.529  10.726 -0.6576 -0.2435 -0.3484
  107OSM    H1S10920   3.122   3.444  10.702  1.7109  0.8136  2.1169
  107OSM    H1T10921   3.135   3.601  10.757 -1.3919 -0.2492  1.5921
  107OSM     NF10922   3.047   3.565  10.485  0.2568 -0.1737 -0.1200
  107OSM    HNF10923   3.046   3.652  10.436 -1.3365  0.7312  1.4505
  107OSM    C2S10924   2.962   3.564  10.604  0.1009 -0.3392 -0.3232
  107OSM    H2S10925   2.890   3.480  10.593  0.7091 -0.7426 -1.2790
  107OSM    C3S10926   2.879   3.690  10.641 -0.5254 -0.0597  0.2085
  107OSM    H3S10927   2.959   3.767  10.630 -1.2259  0.5506 -0.7926
  107OSM     O310928   2.822   3.699  10.772 -0.0652 -0.0982  0.4400
  107OSM    HO310929   2.838   3.615  10.816  0.4597 -0.1021  0.2537
  107OSM    C4S10930   2.779   3.726  10.534 -0.3045  0.0690  0.5550
  107OSM    H4S10931   2.835   3.772  10.451 -1.0174  0.7772  0.4616
  107OSM    C5S10932   2.640   3.705  10.532  0.2048 -0.0362  0.4180
  107OSM    H5S10933   2.591   3.680  10.627  0.6941 -0.6467  0.5149
  107OSM    C6S10934   2.549   3.745  10.419  0.0745  0.6180 -0.3261
  107OSM    H6S10935   2.514   3.848  10.440 -0.7157  0.8756 -2.8249
  107OSM    H6T10936   2.463   3.675  10.414  0.0877  0.6836 -1.5078
  107OSM    C7S10937   2.599   3.748  10.273 -0.3839  0.2437 -0.3336
  107OSM    H7S10938   2.684   3.818  10.256 -1.1283  1.7362  1.7785
  107OSM    H7T10939   2.525   3.778  10.196 -1.1876 -1.0291 -0.0609
  107OSM    C8S10940   2.642   3.614  10.227 -0.1473  1.3816 -0.1032
  107OSM    H8S10941   2.563   3.535  10.233  0.8465  0.1370 -2.5713
  107OSM    H8T10942   2.719   3.581  10.300 -0.2573 -2.4301 -1.5911
  107OSM    C9S10943   2.699   3.629  10.086 -0.3898  0.5153  0.1469
  107OSM    H9S10944   2.744   3.529  10.068  0.5906  1.1352 -0.8903
  107OSM    H9T10945   2.784   3.700  10.086 -0.0169  0.1125 -2.0862
  107OSM   C10S10946   2.596   3.659   9.973  0.0925  0.5116  0.2392
  107OSM   H10S10947   2.579   3.769   9.972  0.6862  0.6008 -0.2812
  107OSM   H10T10948   2.501   3.602   9.975 -1.6132  3.1572 -1.9944
  107OSM   C11S10949   2.644   3.616   9.838  0.0658 -0.0693  0.4362
  107OSM   H11S10950   2.567   3.594   9.761 -0.8118 -0.2220  1.3524
  107OSM   H11T10951   2.711   3.527   9.844  2.3512  1.5964  0.4446
  107OSM   C12S10952   2.751   3.716   9.780 -0.3168 -0.5808  0.0099
  107OSM   H12S10953   2.836   3.724   9.851 -0.3387 -0.1252 -0.0131
  107OSM   H12T10954   2.711   3.819   9.768  0.9822 -0.1021 -0.3038
  107OSM   C13S10955   2.815   3.662   9.651 -0.5760 -0.0670  0.2220
  107OSM   H13S10956   2.825   3.553   9.669 -0.8221  0.3991  3.6039
  107OSM   H13T10957   2.916   3.708   9.643 -1.2909  1.6072  0.5445
  107OSM   C14S10958   2.726   3.684   9.521  0.6325 -0.2547 -0.7398
  107OSM   H14S10959   2.710   3.793   9.508  1.0523  0.0506  1.2579
  107OSM   H14T10960   2.625   3.647   9.550  0.0769  0.0365 -2.2674
  107OSM   C15S10961   2.783   3.627   9.391  0.1273 -0.6267 -0.6823
  107OSM   H15S10962   2.733   3.671   9.301 -1.2941 -0.3489  0.2303
  107OSM   H15T10963   2.760   3.519   9.381  1.7446 -0.9686 -0.7322
  107OSM   C16S10964   2.936   3.653   9.376  0.3837 -0.9086 -0.0100
  107OSM   H16S10965   2.975   3.586   9.455 -0.1394 -0.3796  0.7037
  107OSM   H16T10966   2.971   3.753   9.408  0.8309 -0.6292 -1.3288
  107OSM   C17S10967   2.997   3.609   9.245  0.0353  0.1554  0.8697
  107OSM   H17S10968   2.956   3.661   9.156 -0.8476 -0.1545  1.0895
  107OSM   H17T10969   2.956   3.509   9.220 -0.3754 -0.0257  2.2079
  107OSM   C18S10970   3.145   3.609   9.244  0.5578  0.1044  0.2771
  107OSM   H18S10971   3.173   3.535   9.323  1.6478 -0.7424 -0.8836
  107OSM   H18T10972   3.187   3.709   9.268 -2.3099  1.6370 -0.8634
  107OSM   H18U10973   3.185   3.563   9.152  0.3863 -0.2245  0.3659
  107OSM    C1F10974   3.124   3.458  10.435 -0.5283 -0.7601 -0.3797
  107OSM     OF10975   3.096   3.346  10.463 -0.1630 -0.3294 -0.0554
  107OSM    C2F10976   3.232   3.497  10.339 -0.3861  0.3139  0.9991
  107OSM    H2F10977   3.307   3.545  10.405 -0.9438  0.8795  1.2256
  107OSM    H2G10978   3.190   3.566  10.262 -1.2006  1.9092  2.8301
  107OSM    C3F10979   3.282   3.368  10.276  0.1672 -0.0936 -0.0536
  107OSM    H3F10980   3.206   3.300  10.232 -0.3314  0.6502 -0.3294
  107OSM    H3G10981   3.339   3.305  10.348 -2.5573 -2.3120  0.2816
  107OSM    C4F10982   3.386   3.395  10.170 -0.5235  0.1037  0.2360
  107OSM    H4F10983   3.432   3.295  10.153  3.2730  1.5695  1.4660
  107OSM    H4G10984   3.475   3.455  10.198 -1.9976  2.6712 -0.3583
  107OSM    C5F10985   3.339   3.448  10.040  0.0399  0.5996  0.2193
  107OSM    H5F10986   3.344   3.559  10.037  0.3790  0.5615 -2.4731
  107OSM    H5G10987   3.235   3.415  10.018  1.5846 -4.1183 -0.6535
  107OSM    C6F10988   3.420   3.399   9.914  0.0176  0.5082 -0.4297
  107OSM    H6F10989   3.407   3.289   9.919  0.9678  0.3767 -0.6470
  107OSM    H6G10990   3.529   3.419   9.921 -0.0240  0.1295  2.0079
  107OSM    C7F10991   3.366   3.446   9.776  0.2547 -0.2308  0.6866
  107OSM    H7F10992   3.387   3.555   9.772 -1.7181  0.1174 -1.0493
  107OSM    H7G10993   3.256   3.440   9.778  0.2474 -0.5896 -0.3900
  107OSM    C8F10994   3.419   3.360   9.656 -0.5601  0.1181  0.5319
  107OSM    H8F10995   3.528   3.360   9.678  0.0657 -2.8226 -2.0429
  107OSM    H8G10996   3.417   3.416   9.560  0.1847 -1.2591 -0.3131
  107OSM    C9F10997   3.357   3.225   9.659 -0.2514 -0.0416  0.5217
  107OSM    H9F10998   3.320   3.197   9.759  2.6523  1.6056  2.1207
  107OSM   C10F10999   3.350   3.134   9.563 -0.4350 -0.2818 -0.1962
  107OSM   H10F11000   3.307   3.035   9.581  2.6521 -1.3792  1.6607
  107OSM   C11F11001   3.407   3.147   9.426  0.3353 -0.6560 -0.1446
  107OSM   H11F11002   3.467   3.239   9.409  0.1250 -0.3907  0.5094
  107OSM   H11G11003   3.321   3.176   9.361  1.0107 -0.7996 -1.1013
  107OSM   C12F11004   3.464   3.023   9.360  0.2736 -0.3491  0.3167
  107OSM   H12F11005   3.389   2.942   9.349 -0.6063  0.0426  3.2537
  107OSM   H12G11006   3.542   2.985   9.430  0.8929  0.6059  0.1583
  107OSM   C13F11007   3.531   3.064   9.228 -0.5855  1.0753 -0.1012
  107OSM   H13F11008   3.576   2.973   9.182 -2.2701  0.5009 -0.6582
  107OSM   H13G11009   3.615   3.136   9.240 -0.6036  1.3175 -1.3042
  107OSM   C14F11010   3.425   3.129   9.136 -0.1303 -0.2596 -0.5607
  107OSM   H14F11011   3.406   3.230   9.177  1.4870 -0.4829  0.7893
  107OSM   H14G11012   3.333   3.067   9.139  1.2055 -2.2712 -0.1148
  107OSM   C15F11013   3.469   3.159   8.987 -0.0415 -0.0229  0.2862
  107OSM   H15F11014   3.510   3.066   8.943 -1.3880 -0.8243  0.6854
  107OSM   H15G11015   3.542   3.242   8.994 -0.2857  0.2828 -0.7355
  107OSM   C16F11016   3.350   3.218   8.904 -0.4973 -0.3112 -0.4933
  107OSM   H16F11017   3.382   3.233   8.799  0.3557  2.6882  0.1628
  107OSM   H16G11018   3.316   3.315   8.945 -2.3761 -1.0750 -0.1946
  107OSM   C17F11019   3.223   3.136   8.882 -0.7399  0.1918  0.2475
  107OSM   H17F11020   3.170   3.120   8.978 -0.2814  1.4371  0.7276
  107OSM   H17G11021   3.242   3.033   8.844 -1.2088 -0.7027  2.3881
  107OSM   C18F11022   3.127   3.195   8.774 -0.3881  0.2233  0.4726
  107OSM   H18F11023   3.172   3.223   8.676 -0.8721  0.4421  0.3090
  107OSM   H18G11024   3.099   3.298   8.804 -0.8491  0.2448 -0.0291
  107OSM   H18H11025   3.040   3.129   8.754  1.0507 -1.9716  1.2794
  108OSM      N11026   0.590   5.362  10.894  0.2310  0.1150 -0.2105
  108OSM    C1511027   0.677   5.434  10.792  0.0676  0.2664  0.2314
  108OSM   H15A11028   0.773   5.452  10.838 -0.2607 -1.2075  1.5404
  108OSM   H15B11029   0.645   5.533  10.764  3.4248  0.9338 -1.4474
  108OSM   H15C11030   0.682   5.380  10.699  0.5957 -0.6947  0.8110
  108OSM    C1411031   0.644   5.225  10.918  0.1794 -0.4623 -0.2408
  108OSM   H14A11032   0.606   5.183  11.009 -0.1304 -1.2802 -0.7368
  108OSM   H14B11033   0.752   5.227  10.925  0.0494  4.1550  2.2656
  108OSM   H14C11034   0.629   5.164  10.830 -1.5550 -0.0068 -0.2821
  108OSM    C1311035   0.609   5.426  11.031  0.4408  0.1016 -0.6670
  108OSM   H13A11036   0.715   5.435  11.048  0.3484  0.6939 -0.3973
  108OSM   H13B11037   0.569   5.364  11.110  1.2520 -0.9184 -1.0466
  108OSM   H13C11038   0.575   5.528  11.042  0.4456  0.1573 -1.1694
  108OSM    C1211039   0.450   5.364  10.850  0.1402 -0.0020  0.1151
  108OSM   H12A11040   0.389   5.335  10.934  0.1012 -0.5680 -0.1061
  108OSM   H12B11041   0.420   5.305  10.765 -1.3275  0.8148  0.0650
  108OSM    C1111042   0.397   5.500  10.815 -0.5973  0.0699  0.5903
  108OSM   H11A11043   0.423   5.526  10.710  1.6971 -0.3858  1.0044
  108OSM   H11B11044   0.440   5.586  10.871 -0.8512  0.9818 -0.5950
  108OSM      P11045   0.156   5.489  10.719 -0.1991 -0.0233 -0.3239
  108OSM    O1311046   0.051   5.393  10.758 -0.2278 -0.1011  0.5027
  108OSM    O1411047   0.104   5.623  10.694  0.0372 -0.3423 -0.3578
  108OSM    O1111048   0.241   5.420  10.595 -0.7833  0.5080  0.3187
  108OSM    O1211049   0.259   5.486  10.835  0.0840 -0.3030 -0.3451
  108OSM    C1S11050   0.164   5.326  10.522 -0.1696  0.3075  0.1896
  108OSM    H1S11051   0.073   5.370  10.474 -1.1993 -1.6188  0.3324
  108OSM    H1T11052   0.142   5.232  10.576  3.0512 -1.6651 -1.7771
  108OSM     NF11053   0.168   5.158  10.346  0.0159  0.0317  0.3011
  108OSM    HNF11054   0.199   5.065  10.362  1.5640  0.6967  1.3126
  108OSM    C2S11055   0.242   5.262  10.408 -0.3285 -0.1195 -0.4459
  108OSM    H2S11056   0.256   5.333  10.324  1.7492  1.8710  1.5275
  108OSM    C3S11057   0.374   5.214  10.462  0.1181 -0.4628 -0.6830
  108OSM    H3S11058   0.362   5.156  10.556 -2.8418  0.6705 -0.2787
  108OSM     O311059   0.462   5.318  10.517 -0.6993 -0.1765  0.4581
  108OSM    HO311060   0.405   5.396  10.520 -2.0254 -1.0646 -0.7159
  108OSM    C4S11061   0.460   5.145  10.363  0.0935 -0.2254 -0.1001
  108OSM    H4S11062   0.477   5.198  10.268 -0.2671  1.4696  0.7680
  108OSM    C5S11063   0.508   5.021  10.373  0.0715 -0.0118 -0.2708
  108OSM    H5S11064   0.488   4.966  10.467  0.6352  3.4533  1.9797
  108OSM    C6S11065   0.596   4.956  10.274 -0.1549  0.1548 -0.7239
  108OSM    H6S11066   0.571   4.848  10.272 -3.3861  0.7727  2.3595
  108OSM    H6T11067   0.699   4.969  10.313  0.3882 -1.9499 -1.4217
  108OSM    C7S11068   0.578   5.002  10.124  0.5340 -0.4261  0.2289
  108OSM    H7S11069   0.636   4.927  10.067 -0.9026 -1.5761  0.2408
  108OSM    H7T11070   0.633   5.097  10.112  0.7662 -0.7052 -0.9173
  108OSM    C8S11071   0.438   4.992  10.070  0.1164 -0.3998  1.1104
  108OSM    H8S11072   0.355   5.038  10.128 -1.4482 -1.2296 -0.4295
  108OSM    H8T11073   0.396   4.891  10.092  0.5809 -0.6175  0.9940
  108OSM    C9S11074   0.419   5.039   9.928  0.8133  0.2644  0.0454
  108OSM    H9S11075   0.482   5.129   9.911  0.0875  1.0670  1.4762
  108OSM    H9T11076   0.312   5.058   9.903  0.6842 -1.6881 -0.9697
  108OSM   C10S11077   0.473   4.928   9.834 -0.3021  0.5916 -0.6844
  108OSM   H10S11078   0.408   4.839   9.819 -1.0036  0.9789  0.0593
  108OSM   H10T11079   0.572   4.890   9.869 -0.2438  0.9244 -0.4889
  108OSM   C11S11080   0.488   4.979   9.689 -0.4755  0.2105 -0.4200
  108OSM   H11S11081   0.560   5.064   9.689 -0.2651  0.0355 -1.0489
  108OSM   H11T11082   0.386   5.004   9.655 -0.8332  0.3762  0.7534
  108OSM   C12S11083   0.551   4.876   9.593  0.8647  0.6874  0.2442
  108OSM   H12S11084   0.498   4.778   9.602 -1.0803  1.7103  0.2700
  108OSM   H12T11085   0.650   4.843   9.631  0.2876 -0.6320  0.6352
  108OSM   C13S11086   0.550   4.918   9.453  0.0463 -0.8999  0.2773
  108OSM   H13S11087   0.622   5.000   9.438  0.5735 -0.7944  3.1255
  108OSM   H13T11088   0.451   4.961   9.426  0.1262 -0.6635  0.3681
  108OSM   C14S11089   0.582   4.802   9.363 -0.1192 -0.8012  0.6276
  108OSM   H14S11090   0.523   4.711   9.384  0.5949 -0.7656  3.0402
  108OSM   H14T11091   0.680   4.755   9.386 -0.5149 -1.4163  1.0600
  108OSM   C15S11092   0.570   4.841   9.217 -0.0123  0.2011 -0.2369
  108OSM   H15S11093   0.613   4.942   9.198 -0.9415  0.6068 -0.2032
  108OSM   H15T11094   0.462   4.849   9.193  0.3224 -0.6155 -2.1480
  108OSM   C16S11095   0.636   4.743   9.115 -0.5747  0.0064  0.0545
  108OSM   H16S11096   0.568   4.656   9.113 -0.8206  0.2039 -0.2088
  108OSM   H16T11097   0.738   4.710   9.144  0.1261  1.7739 -0.3693
  108OSM   C17S11098   0.646   4.811   8.977 -0.7634  0.3213  0.8542
  108OSM   H17S11099   0.683   4.738   8.902 -0.2065  0.6280  0.8319
  108OSM   H17T11100   0.718   4.895   8.980  0.4789 -0.6688 -0.5133
  108OSM   C18S11101   0.512   4.865   8.918 -0.5634 -0.1858  0.7036
  108OSM   H18S11102   0.537   4.931   8.832 -0.6429 -1.0186  0.0430
  108OSM   H18T11103   0.451   4.934   8.980 -3.0079 -1.0103 -0.6925
  108OSM   H18U11104   0.447   4.778   8.893 -1.2976  0.0748  1.6719
  108OSM    C1F11105   0.058   5.177  10.272 -0.1878  0.8714 -0.4208
  108OSM     OF11106   0.014   5.293  10.265 -0.3859 -0.5645 -0.1830
  108OSM    C2F11107   0.012   5.053  10.187 -0.2429  0.4057  0.1961
  108OSM    H2F11108  -0.001   4.967  10.256 -2.0060  0.6230  0.1692
  108OSM    H2G11109   0.094   5.047  10.113 -0.9631  0.3800 -0.6119
  108OSM    C3F11110  -0.118   5.074  10.106  0.5392 -0.0268  0.2110
  108OSM    H3F11111  -0.133   5.171  10.053  0.1407  0.9923  2.1403
  108OSM    H3G11112  -0.200   5.070  10.181  1.8313 -0.5773  1.6062
  108OSM    C4F11113  -0.132   4.965   9.994 -0.0079 -0.7758  0.2420
  108OSM    H4F11114  -0.241   4.977   9.973  0.3519  3.1147  0.1644
  108OSM    H4G11115  -0.130   4.863  10.036 -3.6648  0.0186  2.6324
  108OSM    C5F11116  -0.033   4.982   9.873 -0.0675  0.1732 -0.8139
  108OSM    H5F11117   0.066   4.966   9.921 -1.4887 -0.4482  2.0545
  108OSM    H5G11118  -0.040   5.081   9.824 -0.9673  0.6370  0.2238
  108OSM    C6F11119  -0.059   4.886   9.756 -0.0341  0.4136  0.2590
  108OSM    H6F11120  -0.157   4.919   9.716 -0.3247 -0.8531 -0.1181
  108OSM    H6G11121  -0.074   4.781   9.790  0.0811  0.0511 -0.7999
  108OSM    C7F11122   0.049   4.888   9.652 -0.1070  0.3684 -0.3162
  108OSM    H7F11123   0.128   4.820   9.689  0.3007  0.7365 -0.5126
  108OSM    H7G11124   0.088   4.992   9.645 -1.1302  0.8199  0.5377
  108OSM    C8F11125  -0.000   4.849   9.514 -0.7659 -0.0514 -0.3203
  108OSM    H8F11126  -0.072   4.932   9.495  1.0277  1.1914 -1.9666
  108OSM    H8G11127  -0.039   4.746   9.527 -1.2698  0.3966  1.8881
  108OSM    C9F11128   0.107   4.838   9.407 -0.1403 -0.0782 -0.1439
  108OSM    H9F11129   0.205   4.798   9.438 -0.0922 -2.8689 -3.6085
  108OSM   C10F11130   0.091   4.885   9.284  0.8330 -0.5309 -0.5435
  108OSM   H10F11131   0.178   4.876   9.218  0.8140  4.1047 -1.3893
  108OSM   C11F11132  -0.040   4.942   9.231  0.4999 -0.5622 -0.3270
  108OSM   H11F11133  -0.053   5.050   9.258  2.5024 -0.2873 -0.3883
  108OSM   H11G11134  -0.126   4.877   9.258 -1.0287  0.8702 -1.5588
  108OSM   C12F11135  -0.041   4.938   9.080  0.0556  0.2191  0.2909
  108OSM   H12F11136  -0.032   4.832   9.047 -0.1465  0.5411 -0.8080
  108OSM   H12G11137   0.049   4.997   9.053 -0.3882  3.0952  4.6881
  108OSM   C13F11138  -0.158   5.018   9.019 -0.5566  0.6452  0.0469
  108OSM   H13F11139  -0.184   5.101   9.087 -2.0465 -0.0890  0.4081
  108OSM   H13G11140  -0.252   4.958   9.015  1.1460 -2.0263 -1.4052
  108OSM   C14F11141  -0.124   5.063   8.871 -0.7026 -0.0957 -0.3427
  108OSM   H14F11142  -0.094   4.968   8.822 -2.6715  0.3146 -2.4324
  108OSM   H14G11143  -0.041   5.136   8.867 -0.9193  0.1294 -0.6986
  108OSM   C15F11144  -0.251   5.109   8.796 -0.5428 -0.8824 -0.6513
  108OSM   H15F11145  -0.296   5.203   8.836  0.1243 -0.4731 -0.8630
  108OSM   H15G11146  -0.333   5.036   8.816 -0.2576 -0.7891  0.9707
  108OSM   C16F11147  -0.224   5.130   8.645 -0.3945 -0.1118 -0.8466
  108OSM   H16F11148  -0.202   5.023   8.621  0.4402 -0.4235  1.1781
  108OSM   H16G11149  -0.144   5.204   8.626  0.6457 -0.0576  3.2266
  108OSM   C17F11150  -0.356   5.162   8.576  0.1214  0.2412  0.4446
  108OSM   H17F11151  -0.393   5.260   8.615 -0.3702 -0.5923  2.1072
  108OSM   H17G11152  -0.424   5.085   8.618 -1.2692  2.5094  2.5100
  108OSM   C18F11153  -0.369   5.159   8.419 -0.4173  0.0724  0.0277
  108OSM   H18F11154  -0.476   5.162   8.388 -0.4602  1.7809  0.3158
  108OSM   H18G11155  -0.318   5.073   8.370 -1.6087 -1.7272  1.8214
  108OSM   H18H11156  -0.322   5.249   8.375 -2.3936  1.1278  0.0081
  109OSM      N11157   6.087   3.349  11.025 -0.5832 -0.2767 -0.1446
  109OSM    C1511158   6.174   3.357  11.146  0.1000  0.0374 -0.0009
  109OSM   H15A11159   6.273   3.401  11.139 -0.0449  0.8907  2.6689
  109OSM   H15B11160   6.185   3.258  11.188 -0.6088  0.7992  2.0361
  109OSM   H15C11161   6.107   3.410  11.212 -0.3344 -3.0733  2.1187
  109OSM    C1411162   6.137   3.264  10.920 -0.3444  0.2222 -0.2967
  109OSM   H14A11163   6.129   3.160  10.946  1.2802  0.1199 -0.1677
  109OSM   H14B11164   6.239   3.288  10.894 -1.2401  0.6394 -3.6064
  109OSM   H14C11165   6.081   3.269  10.828 -0.9026 -0.7766 -0.0255
  109OSM    C1311166   5.954   3.293  11.072  0.3552  0.5066 -0.4111
  109OSM   H13A11167   5.898   3.375  11.115  1.9855  1.6108 -0.3494
  109OSM   H13B11168   5.970   3.207  11.135  2.8735 -0.4186 -2.2431
  109OSM   H13C11169   5.903   3.264  10.981 -0.0138 -0.4884  0.1076
  109OSM    C1211170   6.061   3.495  10.978 -0.3287 -0.3654  0.1515
  109OSM   H12A11171   5.977   3.497  10.911 -0.6508  1.6243  0.5744
  109OSM   H12B11172   6.149   3.529  10.924 -0.0564  2.5912  2.3362
  109OSM    C1111173   6.022   3.604  11.086 -0.0101 -0.9377  0.8568
  109OSM   H11A11174   6.014   3.699  11.028 -1.1466 -0.5470  1.6343
  109OSM   H11B11175   6.101   3.612  11.163  0.8621  0.2557 -0.1533
  109OSM      P11176   5.757   3.601  11.097  0.0390  0.2072  0.2362
  109OSM    O1311177   5.674   3.491  11.141  0.3712 -0.0454 -0.5126
  109OSM    O1411178   5.707   3.740  11.121 -0.0298  0.1157 -0.5960
  109OSM    O1111179   5.793   3.578  10.942  0.0819 -0.3704  0.6751
  109OSM    O1211180   5.897   3.580  11.153  0.1892  0.0670 -0.0374
  109OSM    C1S11181   5.713   3.643  10.846  0.2806 -0.4555  0.2547
  109OSM    H1S11182   5.736   3.750  10.826  0.9474 -0.6188  0.1562
  109OSM    H1T11183   5.604   3.623  10.860 -0.0549  0.2117 -1.2833
  109OSM     NF11184   5.705   3.658  10.594  0.3837  0.6471 -0.0702
  109OSM    HNF11185   5.614   3.647  10.557  0.2451 -1.8095  0.9375
  109OSM    C2S11186   5.749   3.572  10.705 -0.2545 -0.2642 -0.0190
  109OSM    H2S11187   5.860   3.563  10.703 -0.2751 -0.5363  0.0542
  109OSM    C3S11188   5.695   3.422  10.715 -0.2918 -0.5610  0.3704
  109OSM    H3S11189   5.588   3.429  10.742 -0.2573 -0.9435  0.6111
  109OSM     O311190   5.767   3.347  10.821  0.4282 -0.0418 -0.2106
  109OSM    HO311191   5.802   3.413  10.881  1.0177 -1.9573  1.6397
  109OSM    C4S11192   5.697   3.350  10.580  0.1650 -0.1545 -1.0588
  109OSM    H4S11193   5.595   3.350  10.541 -0.2753  1.3537  0.0431
  109OSM    C5S11194   5.802   3.288  10.521  0.6285 -0.7785  0.3147
  109OSM    H5S11195   5.904   3.291  10.562  0.6198  1.2148  0.2380
  109OSM    C6S11196   5.788   3.218  10.390  0.4453  0.1426 -0.0330
  109OSM    H6S11197   5.802   3.108  10.402  0.5819  0.2113  0.4615
  109OSM    H6T11198   5.870   3.232  10.317 -0.4273  0.5291 -0.9451
  109OSM    C7S11199   5.657   3.240  10.313 -0.2412 -0.0563 -0.0230
  109OSM    H7S11200   5.635   3.349  10.316  3.0408  0.6994 -1.1937
  109OSM    H7T11201   5.580   3.184  10.370 -0.2711  0.7805  0.7665
  109OSM    C8S11202   5.640   3.191  10.171 -0.1302  0.7574 -0.2186
  109OSM    H8S11203   5.680   3.087  10.163  1.9720  1.6737 -2.0293
  109OSM    H8T11204   5.691   3.256  10.097 -0.0325  0.7823 -0.1313
  109OSM    C9S11205   5.490   3.179  10.124 -0.0630  0.1491 -0.4539
  109OSM    H9S11206   5.451   3.282  10.135 -1.1958 -0.0549 -2.2628
  109OSM    H9T11207   5.438   3.119  10.202 -0.7000  1.1544 -0.0975
  109OSM   C10S11208   5.458   3.115   9.989  0.4906  0.6146  0.0195
  109OSM   H10S11209   5.348   3.123   9.980  0.3510 -0.2957  0.7897
  109OSM   H10T11210   5.486   3.007   9.988  1.6379  0.8901 -3.6698
  109OSM   C11S11211   5.541   3.174   9.874 -0.0442  0.3790  0.3618
  109OSM   H11S11212   5.527   3.107   9.786 -0.4983  0.5448  0.3068
  109OSM   H11T11213   5.649   3.176   9.902  0.2027 -1.2671 -0.4373
  109OSM   C12S11214   5.489   3.315   9.848 -0.2504 -0.2673  0.3905
  109OSM   H12S11215   5.495   3.374   9.942 -1.4536 -0.6487  0.7268
  109OSM   H12T11216   5.384   3.309   9.811 -0.1114 -1.9361  0.2355
  109OSM   C13S11217   5.573   3.392   9.746  0.3322 -0.0079 -0.5101
  109OSM   H13S11218   5.680   3.398   9.773  0.2110  0.0510 -0.0324
  109OSM   H13T11219   5.548   3.500   9.737  1.0921  0.3050  0.9556
  109OSM   C14S11220   5.582   3.316   9.613 -0.1124 -0.8781 -0.7618
  109OSM   H14S11221   5.474   3.294   9.597 -0.0959 -0.7734 -1.0089
  109OSM   H14T11222   5.641   3.222   9.613  1.0227 -0.1731 -1.4210
  109OSM   C15S11223   5.643   3.382   9.492 -0.0798  0.7005  0.1708
  109OSM   H15S11224   5.752   3.360   9.491 -0.7921 -3.1377  0.1333
  109OSM   H15T11225   5.622   3.492   9.490  1.1170  0.9760  2.0126
  109OSM   C16S11226   5.591   3.316   9.355  0.2260 -0.6574  0.2956
  109OSM   H16S11227   5.483   3.340   9.344  0.3548  0.0366  0.5111
  109OSM   H16T11228   5.595   3.210   9.387 -0.0443  0.3774  3.9435
  109OSM   C17S11229   5.670   3.354   9.232  0.3942 -0.0210  0.0183
  109OSM   H17S11230   5.656   3.277   9.153 -0.7455  1.3016 -1.0848
  109OSM   H17T11231   5.778   3.359   9.259  0.3004  1.8586  0.1157
  109OSM   C18S11232   5.641   3.492   9.171 -1.0263 -0.6191 -0.0915
  109OSM   H18S11233   5.533   3.514   9.153 -1.3436 -0.3354  1.9995
  109OSM   H18T11234   5.700   3.508   9.078 -2.2324  1.3635 -0.5371
  109OSM   H18U11235   5.661   3.574   9.242  0.0295 -3.0092  2.4697
  109OSM    C1F11236   5.765   3.773  10.563 -0.3563 -0.1700 -0.4627
  109OSM     OF11237   5.876   3.797  10.615 -0.4855  0.0742 -0.1048
  109OSM    C2F11238   5.695   3.857  10.465 -0.0439 -0.2656  0.0734
  109OSM    H2F11239   5.664   3.949  10.519  0.7245 -0.1713  0.3624
  109OSM    H2G11240   5.597   3.812  10.440  2.0868 -3.7394 -2.4001
  109OSM    C3F11241   5.780   3.889  10.342 -0.1924  0.5051 -0.4886
  109OSM    H3F11242   5.863   3.958  10.366  1.8271 -2.1892  0.6057
  109OSM    H3G11243   5.726   3.932  10.254  1.1043 -1.5070 -2.3313
  109OSM    C4F11244   5.845   3.760  10.290 -0.0228  0.3524  0.1948
  109OSM    H4F11245   5.917   3.711  10.359 -0.5224 -0.9782 -0.2138
  109OSM    H4G11246   5.904   3.805  10.207  0.1622 -0.2780 -0.0203
  109OSM    C5F11247   5.761   3.643  10.239  0.0017 -0.7267 -0.7838
  109OSM    H5F11248   5.655   3.676  10.226  0.8375  1.6215 -1.7739
  109OSM    H5G11249   5.768   3.558  10.310 -0.6146 -0.5193 -0.4674
  109OSM    C6F11250   5.802   3.594  10.097 -1.1445 -0.0729  0.1640
  109OSM    H6F11251   5.739   3.503  10.078 -2.7525  0.8066  1.1878
  109OSM    H6G11252   5.909   3.566  10.104 -0.9246  0.6607 -0.2278
  109OSM    C7F11253   5.773   3.677   9.975 -0.2700  0.0868  0.2249
  109OSM    H7F11254   5.797   3.786   9.982  0.6660  0.0310 -1.6545
  109OSM    H7G11255   5.663   3.666   9.967 -0.5365  1.3902  1.9229
  109OSM    C8F11256   5.860   3.636   9.851  0.7550  0.3881  0.3923
  109OSM    H8F11257   5.823   3.677   9.754 -0.0993  0.6372  0.8133
  109OSM    H8G11258   5.847   3.526   9.862 -1.1055  0.1333 -3.4477
  109OSM    C9F11259   6.001   3.673   9.876  0.1444  0.5607  0.6094
  109OSM    H9F11260   6.022   3.699   9.981 -2.7374  0.6217  1.2397
  109OSM   C10F11261   6.097   3.695   9.785 -0.4928 -0.0100 -0.1330
  109OSM   H10F11262   6.199   3.712   9.824  0.0875 -0.3077 -1.5021
  109OSM   C11F11263   6.085   3.683   9.636  0.5026  0.8130  0.8879
  109OSM   H11F11264   6.164   3.749   9.594  0.8554 -0.7654 -1.0221
  109OSM   H11G11265   5.989   3.727   9.603  0.3945 -0.6239 -0.8143
  109OSM   C12F11266   6.100   3.537   9.579  0.1091  0.5286 -0.2737
  109OSM   H12F11267   6.053   3.466   9.650 -0.0557  2.0173  1.1581
  109OSM   H12G11268   6.208   3.515   9.590 -0.7241 -3.4156  0.5802
  109OSM   C13F11269   6.033   3.529   9.437 -0.0020 -0.0249 -0.3353
  109OSM   H13F11270   5.926   3.550   9.456 -0.4205 -0.8827 -1.7114
  109OSM   H13G11271   6.044   3.421   9.414  0.1221  0.0314 -0.5537
  109OSM   C14F11272   6.094   3.617   9.330  0.1164 -0.2800 -0.4516
  109OSM   H14F11273   6.204   3.612   9.313  0.1813 -0.2371 -0.0516
  109OSM   H14G11274   6.086   3.727   9.345 -0.7503 -0.3961 -0.0049
  109OSM   C15F11275   6.026   3.596   9.193 -0.5060 -0.0875  0.3259
  109OSM   H15F11276   5.917   3.617   9.195 -0.4469  0.2365  0.1775
  109OSM   H15G11277   6.042   3.496   9.149  0.3110  1.3199 -2.7544
  109OSM   C16F11278   6.078   3.683   9.072 -0.3083 -0.1345 -0.2360
  109OSM   H16F11279   6.043   3.786   9.093  2.8300  0.9499 -0.1534
  109OSM   H16G11280   6.041   3.658   8.970 -0.5196  4.0786 -1.3062
  109OSM   C17F11281   6.230   3.674   9.055  0.3755 -0.3448 -0.0664
  109OSM   H17F11282   6.269   3.570   9.066  2.7250  0.6282  1.3369
  109OSM   H17G11283   6.283   3.735   9.131 -0.7259 -2.7880  2.8076
  109OSM   C18F11284   6.278   3.724   8.916 -0.5350  0.1537 -0.0611
  109OSM   H18F11285   6.389   3.725   8.920 -0.3160 -3.0082 -3.1835
  109OSM   H18G11286   6.237   3.827   8.904 -2.0191 -0.3476  0.5620
  109OSM   H18H11287   6.232   3.656   8.841 -0.4261  1.5770 -1.4408
  110OSM      N11288   6.190   1.861  11.189  0.2096 -0.1228  1.0030
  110OSM    C1511289   6.210   1.720  11.240  0.5254 -0.0509 -0.0247
  110OSM   H15A11290   6.240   1.726  11.343  0.0729  1.8681  0.0054
  110OSM   H15B11291   6.292   1.667  11.194  0.7928 -0.4044  0.8631
  110OSM   H15C11292   6.117   1.664  11.232  1.5022 -1.8625  0.9162
  110OSM    C1411293   6.128   1.851  11.049 -0.6636  0.4263 -0.2884
  110OSM   H14A11294   6.192   1.793  10.984 -0.4251 -0.2958  0.5918
  110OSM   H14B11295   6.123   1.950  11.006  0.2106 -0.2390 -1.9774
  110OSM   H14C11296   6.032   1.802  11.049 -1.0120  1.0575  2.2752
  110OSM    C1311297   6.097   1.927  11.281 -0.2208  0.3484 -0.3278
  110OSM   H13A11298   6.061   2.026  11.255  1.2482  0.7204 -0.9752
  110OSM   H13B11299   6.135   1.941  11.381  0.0428  0.6750 -0.4714
  110OSM   H13C11300   6.004   1.874  11.296 -0.2364  0.5662  0.3711
  110OSM    C1211301   6.324   1.940  11.190 -0.2730  0.2360 -0.2968
  110OSM   H12A11302   6.354   1.961  11.291 -0.2702 -1.8237  0.1520
  110OSM   H12B11303   6.305   2.037  11.148  0.9271 -0.1203 -1.7332
  110OSM    C1111304   6.443   1.867  11.117 -0.5891  0.2555 -0.4227
  110OSM   H11A11305   6.477   1.781  11.177 -1.9701 -0.7040 -0.9967
  110OSM   H11B11306   6.532   1.934  11.121 -0.2134 -0.0991 -2.2829
  110OSM      P11307   6.431   1.690  10.918  0.1205  0.3101  0.3159
  110OSM    O1311308   6.396   1.584  11.019 -0.5812 -0.2464  0.0863
  110OSM    O1411309   6.360   1.694  10.789 -0.2448  0.9814  0.0669
  110OSM    O1111310   6.583   1.682  10.891  0.6139  0.2093 -0.5645
  110OSM    O1211311   6.409   1.825  10.982 -0.3651  0.1434 -0.5879
  110OSM    C1S11312   6.638   1.644  10.764 -0.1267 -0.6683  0.1422
  110OSM    H1S11313   6.568   1.581  10.705 -0.2530 -1.2994  0.9511
  110OSM    H1T11314   6.735   1.590  10.770  1.0506  1.5362  1.5721
  110OSM     NF11315   6.682   1.712  10.527  0.2505  0.6198 -0.2697
  110OSM    HNF11316   6.774   1.686  10.500 -0.4713 -0.8012 -1.4376
  110OSM    C2S11317   6.665   1.763  10.660 -0.2395 -0.8564 -0.3044
  110OSM    H2S11318   6.578   1.832  10.668  1.5809  1.3724  0.7780
  110OSM    C3S11319   6.785   1.849  10.719 -0.3695 -0.0136  0.0639
  110OSM    H3S11320   6.872   1.784  10.743  0.4646  0.4796 -1.5702
  110OSM     O311321   6.738   1.913  10.840  0.2739  0.6238 -0.0673
  110OSM    HO311322   6.676   1.848  10.873  0.4026 -0.2741 -1.5189
  110OSM    C4S11323   6.819   1.959  10.616  0.0832 -0.7741 -0.3955
  110OSM    H4S11324   6.753   2.047  10.608 -4.0537 -3.6544  0.5258
  110OSM    C5S11325   6.937   1.953  10.556  0.0350  0.4375 -0.1852
  110OSM    H5S11326   6.995   1.860  10.557  0.7681  0.8961  0.2287
  110OSM    C6S11327   6.977   2.055  10.453 -0.3604 -0.0312  0.4763
  110OSM    H6S11328   7.078   2.089  10.484  0.6557 -1.0482 -1.5619
  110OSM    H6T11329   6.909   2.142  10.463  0.0431  0.3284  0.1111
  110OSM    C7S11330   6.980   2.011  10.308  0.0023  0.4397 -0.1139
  110OSM    H7S11331   6.873   1.999  10.280  0.8105 -2.1137 -2.2965
  110OSM    H7T11332   7.032   1.918  10.279 -1.0352 -0.2435  0.1649
  110OSM    C8S11333   7.032   2.111  10.203 -0.6503  0.6774  0.9580
  110OSM    H8S11334   7.142   2.121  10.217 -0.5419  0.1041  0.5115
  110OSM    H8T11335   6.990   2.211  10.225  2.7549  1.9806  1.8954
  110OSM    C9S11336   7.000   2.063  10.063  0.6716 -0.7910 -0.2699
  110OSM    H9S11337   6.893   2.077  10.038  0.4554  1.3178  1.6812
  110OSM    H9T11338   7.024   1.955  10.053 -0.9034 -1.3612  1.7096
  110OSM   C10S11339   7.094   2.135   9.959 -0.5569 -0.5782  0.4592
  110OSM   H10S11340   7.203   2.116   9.975 -0.8341 -2.8440 -0.1399
  110OSM   H10T11341   7.072   2.243   9.975  0.0583 -0.6912  2.1325
  110OSM   C11S11342   7.070   2.110   9.810  0.0520  0.0124 -0.0101
  110OSM   H11S11343   6.962   2.131   9.796  0.1011  0.8836  0.8209
  110OSM   H11T11344   7.070   2.001   9.789 -0.2118  0.0256 -0.0797
  110OSM   C12S11345   7.160   2.184   9.706  0.5944  0.6038  0.5454
  110OSM   H12S11346   7.178   2.117   9.619 -0.0233  1.7402 -0.4666
  110OSM   H12T11347   7.259   2.205   9.752  0.5076 -0.9204  1.4873
  110OSM   C13S11348   7.101   2.312   9.653 -0.5064  0.3008  0.3864
  110OSM   H13S11349   7.078   2.366   9.748 -0.0614  2.6613 -0.8164
  110OSM   H13T11350   7.005   2.289   9.602 -0.8781  1.3742  0.5883
  110OSM   C14S11351   7.203   2.395   9.572  0.0203  0.5348  0.5070
  110OSM   H14S11352   7.289   2.419   9.638 -0.0804  0.0365  0.8180
  110OSM   H14T11353   7.163   2.486   9.524 -0.4142 -0.1299 -0.4195
  110OSM   C15S11354   7.269   2.312   9.462 -0.9428 -0.7734 -0.0508
  110OSM   H15S11355   7.196   2.278   9.385 -1.6946  0.3342  0.1630
  110OSM   H15T11356   7.324   2.226   9.505 -0.5357 -1.4788 -1.9408
  110OSM   C16S11357   7.371   2.391   9.377 -0.2022 -0.1009  0.5732
  110OSM   H16S11358   7.452   2.436   9.439  1.8131 -0.0906 -1.9559
  110OSM   H16T11359   7.316   2.472   9.326 -1.9329 -1.9203 -0.5227
  110OSM   C17S11360   7.423   2.312   9.255  0.1636 -0.1638  0.5155
  110OSM   H17S11361   7.346   2.237   9.230 -1.0942  0.2375  2.9647
  110OSM   H17T11362   7.512   2.252   9.284  1.0421 -0.2446 -2.2036
  110OSM   C18S11363   7.445   2.407   9.142 -0.0180  0.5053 -1.3492
  110OSM   H18S11364   7.504   2.496   9.173 -0.2136 -0.3723  1.7024
  110OSM   H18T11365   7.349   2.436   9.093 -1.4505 -3.2950 -0.8995
  110OSM   H18U11366   7.509   2.363   9.063 -0.5572  1.0394 -2.0906
  110OSM    C1F11367   6.579   1.669  10.451  0.0279  1.2591 -0.3839
  110OSM     OF11368   6.463   1.680  10.481 -0.7285  0.1844 -0.2796
  110OSM    C2F11369   6.622   1.586  10.340  0.7730 -0.3730  0.4522
  110OSM    H2F11370   6.534   1.526  10.310  2.1890 -3.5229  2.3957
  110OSM    H2G11371   6.709   1.521  10.364  1.7268  0.4125 -0.7827
  110OSM    C3F11372   6.663   1.683  10.219  0.5793 -0.2457  1.6254
  110OSM    H3F11373   6.765   1.723  10.237  0.6499 -0.1469  1.0195
  110OSM    H3G11374   6.599   1.774  10.218 -0.0060 -0.6447  1.9519
  110OSM    C4F11375   6.666   1.620  10.085 -0.2620 -0.6081 -0.3750
  110OSM    H4F11376   6.560   1.612  10.054  0.1235 -2.8236 -1.2292
  110OSM    H4G11377   6.705   1.516  10.077  3.2800  0.7820 -2.1846
  110OSM    C5F11378   6.747   1.710   9.981  0.2110  0.2333  0.3068
  110OSM    H5F11379   6.844   1.737  10.028  0.4236 -2.5705  1.6023
  110OSM    H5G11380   6.680   1.794   9.955  1.3144  1.5162  1.5170
  110OSM    C6F11381   6.796   1.635   9.860 -0.0051  0.4528 -0.1694
  110OSM    H6F11382   6.819   1.531   9.890 -0.1240  0.6957  0.7833
  110OSM    H6G11383   6.895   1.670   9.824 -0.0338 -1.0262 -1.7504
  110OSM    C7F11384   6.686   1.626   9.742 -0.3675  0.4119  0.2724
  110OSM    H7F11385   6.582   1.620   9.781 -0.4535 -2.3775 -0.2933
  110OSM    H7G11386   6.711   1.536   9.682 -3.8882 -1.4069  1.3991
  110OSM    C8F11387   6.712   1.743   9.649 -0.0624 -0.2680 -0.0839
  110OSM    H8F11388   6.817   1.745   9.613 -0.1672 -0.5605 -0.4094
  110OSM    H8G11389   6.711   1.838   9.706  0.2523 -0.6672  0.5895
  110OSM    C9F11390   6.603   1.739   9.544  0.6983 -0.4050 -0.1357
  110OSM    H9F11391   6.508   1.776   9.586 -0.3858 -1.9975 -1.1086
  110OSM   C10F11392   6.604   1.691   9.419  0.4926  0.1221  1.1033
  110OSM   H10F11393   6.508   1.680   9.366  1.2722  0.1008 -0.3191
  110OSM   C11F11394   6.728   1.637   9.345  0.2092 -0.6221  0.1707
  110OSM   H11F11395   6.721   1.528   9.327  0.0098 -0.3468 -1.4418
  110OSM   H11G11396   6.826   1.656   9.394  0.2367  0.0447 -0.1321
  110OSM   C12F11397   6.749   1.706   9.210 -0.0014  0.4830 -0.1119
  110OSM   H12F11398   6.848   1.667   9.180  0.0022 -1.2432  1.9903
  110OSM   H12G11399   6.753   1.817   9.218  3.1129  0.4015 -0.1322
  110OSM   C13F11400   6.641   1.681   9.106  0.1346  0.5926  0.5823
  110OSM   H13F11401   6.566   1.762   9.125  0.3439  1.0885 -0.6352
  110OSM   H13G11402   6.596   1.581   9.123  0.1506  0.2318 -1.2925
  110OSM   C14F11403   6.688   1.689   8.970  0.4470 -1.5007 -0.0348
  110OSM   H14F11404   6.747   1.782   8.955 -1.5418 -0.5325 -2.3126
  110OSM   H14G11405   6.598   1.688   8.904  0.2573 -1.8718  0.2254
  110OSM   C15F11406   6.771   1.566   8.935 -0.3325 -0.8197 -0.1884
  110OSM   H15F11407   6.712   1.473   8.945  0.9816 -1.6243  0.2229
  110OSM   H15G11408   6.849   1.548   9.012 -0.0340  1.4310  0.0629
  110OSM   C16F11409   6.839   1.581   8.796 -0.3402 -0.0076 -0.3796
  110OSM   H16F11410   6.774   1.583   8.706 -0.9629  0.4850  0.0793
  110OSM   H16G11411   6.911   1.497   8.781  0.7332  1.0600 -1.3172
  110OSM   C17F11412   6.929   1.706   8.777  0.3755  0.3020  0.5899
  110OSM   H17F11413   6.864   1.795   8.769 -0.2635 -0.3677 -2.3478
  110OSM   H17G11414   6.980   1.698   8.678  0.1761  1.8969  0.3476
  110OSM   C18F11415   7.033   1.719   8.892  0.7229  0.2551 -0.3690
  110OSM   H18F11416   7.080   1.815   8.863 -1.1395  1.3587  0.1645
  110OSM   H18G11417   7.107   1.638   8.875 -1.2016 -1.2446 -1.8925
  110OSM   H18H11418   6.991   1.723   8.995 -1.7248 -0.1516 -1.3128
  111OSM      N11419   0.565   6.810  10.923 -0.0542 -0.2247 -0.2183
  111OSM    C1511420   0.443   6.831  11.003 -0.1406  0.1813  0.2487
  111OSM   H15A11421   0.472   6.857  11.103 -1.6657  1.8971  0.2720
  111OSM   H15B11422   0.379   6.745  10.993 -0.1415  0.1754  0.3082
  111OSM   H15C11423   0.383   6.912  10.965  1.1198  1.7993  1.6557
  111OSM    C1411424   0.649   6.933  10.920 -0.5874 -0.5333 -0.3155
  111OSM   H14A11425   0.722   6.914  10.843  2.7473 -1.7727  3.0158
  111OSM   H14B11426   0.687   6.948  11.020 -2.4855  0.8349  0.2254
  111OSM   H14C11427   0.596   7.019  10.882  0.7267 -0.1562 -1.3484
  111OSM    C1311428   0.647   6.707  10.981  0.7128 -0.3234  0.3645
  111OSM   H13A11429   0.674   6.716  11.086  3.3372 -2.3381 -0.0834
  111OSM   H13B11430   0.744   6.706  10.933 -0.3148  0.3056 -1.7672
  111OSM   H13C11431   0.609   6.609  10.958 -0.1522  0.3883 -1.2845
  111OSM    C1211432   0.520   6.786  10.779 -0.2252 -0.1166 -0.3193
  111OSM   H12A11433   0.467   6.866  10.729  0.6406 -0.5784 -2.0241
  111OSM   H12B11434   0.444   6.709  10.779 -1.3281  0.9547  0.6608
  111OSM    C1111435   0.630   6.744  10.676  0.1565  0.7797 -0.0464
  111OSM   H11A11436   0.570   6.713  10.588 -0.6806 -0.0467  0.8097
  111OSM   H11B11437   0.677   6.654  10.721 -1.4376 -1.0572 -2.0175
  111OSM      P11438   0.866   6.814  10.590 -0.1110 -0.6133 -0.2873
  111OSM    O1311439   0.973   6.906  10.635 -0.1676 -0.6433  0.0278
  111OSM    O1411440   0.882   6.671  10.613  0.1844  0.3320  0.0934
  111OSM    O1111441   0.841   6.823  10.438 -0.4218  0.6989  0.3406
  111OSM    O1211442   0.722   6.850  10.648 -0.2249  0.5613 -0.6597
  111OSM    C1S11443   0.736   6.891  10.362 -0.1842  0.4070 -0.3470
  111OSM    H1S11444   0.746   7.000  10.380 -0.4755  0.4875 -0.6670
  111OSM    H1T11445   0.639   6.858  10.406 -0.4035  0.4226 -0.8144
  111OSM     NF11446   0.637   6.941  10.140  1.0325  0.0772 -1.1711
  111OSM    HNF11447   0.551   6.896  10.114 -0.0305  1.7613 -0.6106
  111OSM    C2S11448   0.731   6.857  10.216  0.5313 -0.0154 -0.7318
  111OSM    H2S11449   0.830   6.886  10.174  1.1642 -0.0093  0.7537
  111OSM    C3S11450   0.707   6.700  10.194 -0.1133 -0.2445 -0.6247
  111OSM    H3S11451   0.599   6.678  10.207  0.1149 -1.4819 -0.7504
  111OSM     O311452   0.774   6.613  10.286  0.2902  0.1811 -0.5250
  111OSM    HO311453   0.795   6.678  10.353 -0.1893  0.4010 -0.5846
  111OSM    C4S11454   0.741   6.657  10.053 -0.3248 -0.3226  0.2225
  111OSM    H4S11455   0.838   6.606  10.047  0.9720  2.1646 -0.7432
  111OSM    C5S11456   0.660   6.659   9.939 -0.2268 -0.2301  0.3306
  111OSM    H5S11457   0.553   6.671   9.957 -1.1137  0.2929 -4.6158
  111OSM    C6S11458   0.694   6.599   9.810 -0.2799 -0.1011  0.8890
  111OSM    H6S11459   0.617   6.520   9.796  0.2487 -0.8531  2.1619
  111OSM    H6T11460   0.788   6.540   9.812 -0.7469 -0.9551 -0.5500
  111OSM    C7S11461   0.686   6.676   9.679  1.1353 -0.1793 -0.1698
  111OSM    H7S11462   0.739   6.772   9.695 -0.9696  0.8336  0.8822
  111OSM    H7T11463   0.579   6.705   9.669  0.4786 -2.0796  1.1337
  111OSM    C8S11464   0.716   6.590   9.561 -0.6974  0.2226 -0.3635
  111OSM    H8S11465   0.651   6.500   9.568  0.9353 -0.8221  2.5117
  111OSM    H8T11466   0.821   6.554   9.557 -0.8488 -0.2237 -0.3660
  111OSM    C9S11467   0.701   6.667   9.435 -0.1486  0.3780 -0.2344
  111OSM    H9S11468   0.770   6.754   9.444  1.4623 -0.6599 -2.2033
  111OSM    H9T11469   0.603   6.719   9.435 -1.1987 -1.5474  0.6958
  111OSM   C10S11470   0.726   6.583   9.313  0.8847 -0.3418  0.0741
  111OSM   H10S11471   0.659   6.494   9.324 -0.8746  0.8296 -0.8954
  111OSM   H10T11472   0.833   6.554   9.308  0.9205 -0.3542  0.8525
  111OSM   C11S11473   0.699   6.670   9.187  1.0732  0.5278  0.2653
  111OSM   H11S11474   0.785   6.738   9.169  3.1020 -1.9941  0.3102
  111OSM   H11T11475   0.612   6.739   9.192  1.4324  1.2679 -2.5154
  111OSM   C12S11476   0.697   6.576   9.058  0.4117 -0.8751 -0.3627
  111OSM   H12S11477   0.626   6.492   9.070 -2.3030  0.9163 -3.2349
  111OSM   H12T11478   0.803   6.548   9.041  1.9111  3.4335  1.3739
  111OSM   C13S11479   0.654   6.639   8.924 -0.8834 -0.1125 -0.0342
  111OSM   H13S11480   0.710   6.735   8.915  0.4318 -0.9455 -0.9132
  111OSM   H13T11481   0.547   6.668   8.915 -0.3207  2.0659 -0.0186
  111OSM   C14S11482   0.681   6.556   8.796  0.3541 -0.2822 -0.5328
  111OSM   H14S11483   0.614   6.468   8.803  1.0946 -0.8840 -0.9486
  111OSM   H14T11484   0.787   6.524   8.793  0.5982  0.5633 -1.1121
  111OSM   C15S11485   0.639   6.633   8.664 -0.7779  0.8756 -0.3774
  111OSM   H15S11486   0.609   6.736   8.695 -0.6021  1.1322 -1.0543
  111OSM   H15T11487   0.540   6.598   8.630 -0.1110 -0.1129 -1.3235
  111OSM   C16S11488   0.733   6.620   8.540  0.1098  0.0612 -0.4271
  111OSM   H16S11489   0.834   6.643   8.579  0.1444  0.5031 -0.7792
  111OSM   H16T11490   0.713   6.703   8.469  4.4911  1.8536  0.3538
  111OSM   C17S11491   0.738   6.486   8.467 -0.0204  0.0266 -0.0287
  111OSM   H17S11492   0.805   6.421   8.528 -1.4120 -3.2380 -1.8707
  111OSM   H17T11493   0.791   6.489   8.369 -0.0422 -1.0588 -0.0771
  111OSM   C18S11494   0.605   6.414   8.444  0.6605  0.1226  0.3729
  111OSM   H18S11495   0.541   6.475   8.378  0.3371  0.7707  1.2708
  111OSM   H18T11496   0.555   6.401   8.542  0.6508  0.2900  0.3899
  111OSM   H18U11497   0.623   6.312   8.403 -0.4570  0.0170  0.1172
  111OSM    C1F11498   0.654   7.075  10.121 -0.5119 -0.3082  0.6350
  111OSM     OF11499   0.759   7.131  10.158  0.4494 -0.1983 -0.7270
  111OSM    C2F11500   0.541   7.148  10.056 -0.5615  0.4306  0.0222
  111OSM    H2F11501   0.461   7.150  10.133 -0.4737  0.4616  0.1130
  111OSM    H2G11502   0.501   7.091   9.970 -1.1526 -0.4037  0.8370
  111OSM    C3F11503   0.586   7.289  10.010  0.2230 -0.3390 -0.0903
  111OSM    H3F11504   0.619   7.348  10.098 -0.7456  0.1859 -0.0818
  111OSM    H3G11505   0.500   7.338   9.961  1.3765  1.2204 -0.5768
  111OSM    C4F11506   0.696   7.305   9.898 -0.1231  0.0110 -0.7224
  111OSM    H4F11507   0.793   7.267   9.935  1.7808  2.3757 -3.0786
  111OSM    H4G11508   0.698   7.415   9.887 -0.5292  0.6023  3.8998
  111OSM    C5F11509   0.653   7.255   9.757  0.3377  0.3141  0.5985
  111OSM    H5F11510   0.555   7.296   9.723  0.6065  1.5572  1.2602
  111OSM    H5G11511   0.624   7.148   9.755  2.3529 -0.2191 -0.8894
  111OSM    C6F11512   0.743   7.277   9.642  0.0595  0.0446 -0.1001
  111OSM    H6F11513   0.768   7.385   9.646 -1.9395  0.4860  1.1074
  111OSM    H6G11514   0.696   7.254   9.545  0.7509  2.5855 -1.0891
  111OSM    C7F11515   0.882   7.208   9.658  0.0497  0.5252 -0.2503
  111OSM    H7F11516   0.875   7.097   9.651 -0.1470  0.6437 -2.2114
  111OSM    H7G11517   0.924   7.232   9.758 -1.9018  1.9541  0.2628
  111OSM    C8F11518   0.980   7.239   9.544 -0.1107  0.1469  0.5874
  111OSM    H8F11519   1.000   7.348   9.532  2.5706 -0.1648  1.8423
  111OSM    H8G11520   0.940   7.198   9.448 -1.3479  2.7239 -0.0593
  111OSM    C9F11521   1.114   7.177   9.568  0.5213 -0.0780  0.0445
  111OSM    H9F11522   1.147   7.183   9.672 -1.4190 -1.9939  0.8173
  111OSM   C10F11523   1.198   7.119   9.481  0.2863  0.3754  0.6534
  111OSM   H10F11524   1.284   7.069   9.527 -1.7077 -2.9215  0.9548
  111OSM   C11F11525   1.173   7.102   9.337  0.4772 -0.2168 -0.7517
  111OSM   H11F11526   1.108   7.189   9.311  1.8702  1.0707  0.0167
  111OSM   H11G11527   1.122   7.011   9.300  2.2449 -0.9676 -1.3795
  111OSM   C12F11528   1.306   7.112   9.259 -0.0030 -0.8085  0.0883
  111OSM   H12F11529   1.358   7.019   9.290 -0.8264 -1.6859 -1.0812
  111OSM   H12G11530   1.355   7.210   9.280  0.6133 -0.7484 -1.5746
  111OSM   C13F11531   1.286   7.101   9.109 -0.6610  0.0957 -0.1939
  111OSM   H13F11532   1.263   7.199   9.064 -1.0504  0.8128  1.5231
  111OSM   H13G11533   1.204   7.029   9.086 -0.8777  0.7139 -1.3881
  111OSM   C14F11534   1.412   7.056   9.039 -0.3262 -0.0584 -0.5689
  111OSM   H14F11535   1.382   7.036   8.934 -1.5266  1.5919 -0.5738
  111OSM   H14G11536   1.448   6.961   9.084 -0.2346 -0.4973 -1.5586
  111OSM   C15F11537   1.529   7.157   9.040  0.1527 -0.1631  0.8021
  111OSM   H15F11538   1.545   7.192   9.144  1.7911 -1.1939  0.9102
  111OSM   H15G11539   1.489   7.241   8.979  1.4401  0.9894  1.5055
  111OSM   C16F11540   1.656   7.097   8.984  0.1367  0.1824 -0.4272
  111OSM   H16F11541   1.620   7.056   8.888 -0.4424  0.3375 -0.2778
  111OSM   H16G11542   1.689   7.018   9.055  0.9317 -0.0050 -1.0029
  111OSM   C17F11543   1.772   7.190   8.974 -0.1009  0.2863 -0.6590
  111OSM   H17F11544   1.816   7.217   9.073  0.0498 -0.0478 -0.6372
  111OSM   H17G11545   1.733   7.286   8.934 -0.7502 -0.1736 -1.1211
  111OSM   C18F11546   1.893   7.145   8.903 -0.4033 -0.3583 -0.1523
  111OSM   H18F11547   1.938   7.055   8.951 -0.6023 -0.9027 -0.9621
  111OSM   H18G11548   1.967   7.228   8.905 -0.7797 -0.0102 -0.4943
  111OSM   H18H11549   1.875   7.127   8.794 -0.5119  1.9934 -0.5473
  112OSM      N11550   0.367   4.600  11.132 -0.3614  1.2059  0.8317
  112OSM    C1511551   0.463   4.572  11.248 -0.3571 -1.0614  0.5842
  112OSM   H15A11552   0.532   4.491  11.229  1.6530  0.2411  2.1372
  112OSM   H15B11553   0.405   4.548  11.336  0.8508  0.2447  1.7528
  112OSM   H15C11554   0.533   4.653  11.261 -1.6453 -0.0159  1.0657
  112OSM    C1411555   0.307   4.732  11.166  0.3505  0.0860  0.0951
  112OSM   H14A11556   0.384   4.801  11.199  0.2814 -0.5766  1.6667
  112OSM   H14B11557   0.248   4.733  11.256  0.2007  1.0133 -0.0094
  112OSM   H14C11558   0.264   4.785  11.082 -1.8858 -0.7282  0.6924
  112OSM    C1311559   0.444   4.611  11.005 -0.4164  0.3265  0.1192
  112OSM   H13A11560   0.528   4.674  11.029 -1.0450  0.2058  2.9165
  112OSM   H13B11561   0.383   4.637  10.920  2.6507  0.7126 -2.0412
  112OSM   H13C11562   0.473   4.517  10.963 -0.9076  1.4647 -2.8486
  112OSM    C1211563   0.267   4.482  11.126  0.0549  0.3072 -0.2633
  112OSM   H12A11564   0.210   4.489  11.218 -0.4086 -0.4283 -0.4915
  112OSM   H12B11565   0.309   4.383  11.132 -0.4263  0.1616  0.9706
  112OSM    C1111566   0.185   4.465  10.994  0.1226  0.0956  0.4502
  112OSM   H11A11567   0.151   4.567  10.966 -1.8560 -0.4739  0.6854
  112OSM   H11B11568   0.096   4.402  11.014  2.0036 -2.2966  1.4398
  112OSM      P11569   0.312   4.264  10.902 -0.0269 -0.3087 -0.0030
  112OSM    O1311570   0.438   4.253  10.831  0.5446  0.1664  0.8262
  112OSM    O1411571   0.309   4.214  11.044  0.6304 -0.0540 -0.8033
  112OSM    O1111572   0.202   4.184  10.817 -0.5541  0.7052 -0.0655
  112OSM    O1211573   0.268   4.410  10.894  0.3292 -0.2150  0.2347
  112OSM    C1S11574   0.142   4.239  10.698  0.0750  0.0697 -0.1343
  112OSM    H1S11575   0.151   4.349  10.693  0.6038 -0.0560 -3.5910
  112OSM    H1T11576   0.036   4.208  10.701  0.6118 -1.7790  0.6373
  112OSM     NF11577   0.156   4.274  10.454  0.2796  0.6929  0.6627
  112OSM    HNF11578   0.069   4.255  10.410  0.6850  2.7134 -1.1008
  112OSM    C2S11579   0.204   4.186  10.562  0.1134  0.7609  0.4933
  112OSM    H2S11580   0.314   4.201  10.575  0.5204 -1.4313 -0.3478
  112OSM    C3S11581   0.181   4.034  10.541  0.0737 -0.1265  0.4802
  112OSM    H3S11582   0.078   4.004  10.510  0.3493 -0.5062 -0.0677
  112OSM     O311583   0.209   3.960  10.658 -1.0117  0.2268  0.4642
  112OSM    HO311584   0.245   4.020  10.724  1.5217  0.0078 -0.6653
  112OSM    C4S11585   0.274   3.997  10.434 -0.4058 -0.2515 -0.0950
  112OSM    H4S11586   0.382   3.985  10.453 -0.3164  0.3193 -0.2395
  112OSM    C5S11587   0.239   3.967  10.307 -0.0027 -0.0475  0.6711
  112OSM    H5S11588   0.134   3.971  10.275 -0.8197 -1.9841  2.9127
  112OSM    C6S11589   0.347   3.934  10.205  0.8240  0.5742 -0.6115
  112OSM    H6S11590   0.332   3.825  10.190  1.0138  0.2946  1.1673
  112OSM    H6T11591   0.449   3.942  10.246  1.4669  2.0426 -2.4182
  112OSM    C7S11592   0.340   4.002  10.062 -0.0249 -0.5137 -0.1126
  112OSM    H7S11593   0.348   4.113  10.070 -0.6303 -0.4034 -0.9695
  112OSM    H7T11594   0.243   3.982  10.011 -1.2630  1.7993  1.2352
  112OSM    C8S11595   0.445   3.941   9.971 -0.2585  0.0920 -0.9640
  112OSM    H8S11596   0.459   3.834   9.999 -0.4082  0.8892  2.2775
  112OSM    H8T11597   0.549   3.973   9.993 -0.3046 -1.9958  2.5569
  112OSM    C9S11598   0.414   3.961   9.826  0.0088  0.2067  0.1996
  112OSM    H9S11599   0.398   4.070   9.809  2.3639  0.8972  2.1746
  112OSM    H9T11600   0.322   3.904   9.801  0.1131 -1.7394  4.0403
  112OSM   C10S11601   0.515   3.908   9.725  0.2804 -0.2323 -0.2664
  112OSM   H10S11602   0.555   3.809   9.756  2.4709  0.1907 -1.6136
  112OSM   H10T11603   0.604   3.975   9.726 -1.3229  1.9637 -0.8047
  112OSM   C11S11604   0.461   3.895   9.579 -0.1119  0.3141 -0.4141
  112OSM   H11S11605   0.399   3.986   9.563  1.3022  1.7329  1.8772
  112OSM   H11T11606   0.400   3.803   9.573  0.7719 -0.2548 -0.7663
  112OSM   C12S11607   0.571   3.886   9.474 -0.3408 -0.2705  0.9246
  112OSM   H12S11608   0.620   3.985   9.487  1.2858 -0.4884 -2.7849
  112OSM   H12T11609   0.522   3.883   9.374  2.0742 -0.0072 -0.3000
  112OSM   C13S11610   0.662   3.768   9.487  0.3709 -0.1029  0.7726
  112OSM   H13S11611   0.598   3.677   9.488 -0.1163  0.1774 -1.5533
  112OSM   H13T11612   0.737   3.760   9.568 -0.4253  0.5775  1.5859
  112OSM   C14S11613   0.748   3.743   9.358  0.1272  0.0312  0.2739
  112OSM   H14S11614   0.678   3.700   9.283  0.8554 -2.2064  0.8140
  112OSM   H14T11615   0.827   3.669   9.383  2.8899  2.7119 -0.2471
  112OSM   C15S11616   0.817   3.863   9.295  0.3961  0.4731 -0.3850
  112OSM   H15S11617   0.894   3.899   9.368  0.5242 -1.7354  0.5982
  112OSM   H15T11618   0.746   3.945   9.269  1.0194  0.9753 -0.5414
  112OSM   C16S11619   0.890   3.831   9.168  0.3374  0.6406 -0.0442
  112OSM   H16S11620   0.818   3.791   9.094 -0.9357  3.2335 -0.2634
  112OSM   H16T11621   0.970   3.757   9.188  0.3895  0.1955 -1.8186
  112OSM   C17S11622   0.941   3.958   9.102  0.0653  0.9541 -0.3583
  112OSM   H17S11623   0.865   4.039   9.102 -0.8902  0.0848 -0.6612
  112OSM   H17T11624   0.976   3.923   9.003 -2.5084 -2.0322 -0.3029
  112OSM   C18S11625   1.059   4.022   9.174 -0.4139  0.7678 -0.5141
  112OSM   H18S11626   1.095   4.113   9.122  0.1584  0.7672 -0.1236
  112OSM   H18T11627   1.148   3.956   9.174 -0.6980  0.3780 -0.0642
  112OSM   H18U11628   1.037   4.043   9.280  0.6877  0.4001 -0.2051
  112OSM    C1F11629   0.210   4.399  10.442  0.2064  0.6794 -0.2674
  112OSM     OF11630   0.300   4.433  10.516 -0.1848 -0.1915 -0.5939
  112OSM    C2F11631   0.143   4.484  10.342 -0.0906 -0.5299 -0.7395
  112OSM    H2F11632   0.055   4.535  10.386  1.3701  0.7418  0.7687
  112OSM    H2G11633   0.089   4.427  10.263  3.0334 -1.3897 -2.3273
  112OSM    C3F11634   0.230   4.604  10.307  0.1701 -0.1154  0.9186
  112OSM    H3F11635   0.335   4.579  10.280 -0.2280  1.2830 -2.0676
  112OSM    H3G11636   0.244   4.669  10.396  3.9874 -1.9971  1.8012
  112OSM    C4F11637   0.176   4.707  10.205  0.6494  0.1500  0.0223
  112OSM    H4F11638   0.234   4.800  10.219 -1.2761  1.2265  1.0947
  112OSM    H4G11639   0.070   4.738  10.214  0.6249 -0.2065  1.0070
  112OSM    C5F11640   0.216   4.657  10.069  0.3648  0.7092 -0.2691
  112OSM    H5F11641   0.321   4.621  10.069  0.6616  1.5400  0.5708
  112OSM    H5G11642   0.218   4.743   9.999 -0.6799  0.9349 -0.0252
  112OSM    C6F11643   0.143   4.541   9.996 -0.1204 -0.1431  0.4669
  112OSM    H6F11644   0.041   4.583   9.999  0.8390  2.2099  1.1957
  112OSM    H6G11645   0.154   4.446  10.053 -1.6773  0.4973  1.8535
  112OSM    C7F11646   0.201   4.517   9.864 -0.4221 -0.2010 -0.7142
  112OSM    H7F11647   0.312   4.509   9.873 -0.4946 -0.3371  0.0236
  112OSM    H7G11648   0.191   4.598   9.789  0.3193 -0.1296 -0.7463
  112OSM    C8F11649   0.123   4.403   9.799  0.8724  0.6041 -0.2696
  112OSM    H8F11650   0.018   4.440   9.804  0.1156 -1.6501  1.5948
  112OSM    H8G11651   0.128   4.308   9.858 -1.3538  0.4140 -0.3295
  112OSM    C9F11652   0.166   4.391   9.658  0.5953  0.6702 -0.2182
  112OSM    H9F11653   0.274   4.370   9.649  0.5696  0.5522 -0.2516
  112OSM   C10F11654   0.090   4.413   9.546  0.0226  0.2396  0.1316
  112OSM   H10F11655   0.133   4.419   9.445 -2.4499 -0.9425 -1.0263
  112OSM   C11F11656  -0.062   4.435   9.538 -0.7181  0.3063  0.0948
  112OSM   H11F11657  -0.089   4.496   9.627 -0.1562 -2.4910  2.2417
  112OSM   H11G11658  -0.118   4.339   9.539 -0.4972  0.1735 -0.2264
  112OSM   C12F11659  -0.105   4.519   9.413  0.1627  0.6774  0.0506
  112OSM   H12F11660  -0.026   4.596   9.399 -1.5632  2.2899 -0.9649
  112OSM   H12G11661  -0.200   4.572   9.434 -0.3075 -0.2037  0.1866
  112OSM   C13F11662  -0.111   4.436   9.288 -0.4113  0.1423 -0.3578
  112OSM   H13F11663  -0.214   4.397   9.273  0.3040 -1.6542 -0.8238
  112OSM   H13G11664  -0.049   4.344   9.292  0.2723  0.6352  0.7305
  112OSM   C14F11665  -0.055   4.513   9.165 -0.2783  0.2203  0.1885
  112OSM   H14F11666  -0.076   4.622   9.164 -0.8536  0.1206 -1.3734
  112OSM   H14G11667  -0.107   4.469   9.077  0.4845 -1.1951  0.4382
  112OSM   C15F11668   0.100   4.520   9.143  0.3054  0.4540 -0.2603
  112OSM   H15F11669   0.152   4.565   9.230 -0.2507 -0.2851  0.4646
  112OSM   H15G11670   0.116   4.584   9.054  0.4044  1.7017  0.6370
  112OSM   C16F11671   0.172   4.388   9.122  0.0842  0.8354 -0.6291
  112OSM   H16F11672   0.148   4.322   9.208  0.3705 -1.4386 -2.2354
  112OSM   H16G11673   0.281   4.412   9.125  0.7877 -2.3346  0.7771
  112OSM   C17F11674   0.141   4.328   8.986 -0.0265  0.0929  0.4136
  112OSM   H17F11675   0.166   4.395   8.902 -0.7954 -0.1185  0.0081
  112OSM   H17G11676   0.031   4.310   8.984 -0.1442  0.9072 -0.3624
  112OSM   C18F11677   0.213   4.197   8.964 -0.1838 -0.0199 -0.0678
  112OSM   H18F11678   0.320   4.182   8.988 -0.8528 -3.0831  1.1791
  112OSM   H18G11679   0.212   4.169   8.856 -1.3293  0.7595 -0.2733
  112OSM   H18H11680   0.159   4.122   9.026  1.1350  1.4427  2.9139
  113OSM      N11681   1.063   4.085  11.069 -0.0118  0.1433  0.5864
  113OSM    C1511682   1.107   4.146  11.199  0.6873 -0.5026  0.7564
  113OSM   H15A11683   1.212   4.126  11.209  1.1556  0.6098 -1.7815
  113OSM   H15B11684   1.056   4.103  11.285  1.7344 -0.0403  1.6268
  113OSM   H15C11685   1.092   4.253  11.192 -1.4956 -0.8440 -0.3562
  113OSM    C1411686   1.121   3.943  11.066  0.4848 -0.1409  0.1744
  113OSM   H14A11687   1.079   3.889  11.150  0.6296  0.2728  0.5101
  113OSM   H14B11688   1.229   3.942  11.058  0.6287  1.8165  1.5952
  113OSM   H14C11689   1.089   3.888  10.978  3.1972 -0.9173 -0.3817
  113OSM    C1311690   0.919   4.080  11.061  0.1909  0.5521 -0.4766
  113OSM   H13A11691   0.870   4.028  11.142  1.3969  0.2121  0.0555
  113OSM   H13B11692   0.888   4.029  10.971 -0.5614  0.3061 -0.0791
  113OSM   H13C11693   0.866   4.174  11.050  0.0862  0.6110  0.4632
  113OSM    C1211694   1.135   4.165  10.958 -0.1006 -0.2987  0.2380
  113OSM   H12A11695   1.240   4.142  10.966  0.3471  1.2939 -0.9113
  113OSM   H12B11696   1.101   4.267  10.958 -0.2166 -0.3241 -1.4046
  113OSM    C1111697   1.097   4.115  10.820  0.1113  0.3508  0.4878
  113OSM   H11A11698   1.127   4.009  10.810  0.1477  0.4577 -0.5861
  113OSM   H11B11699   1.163   4.172  10.751 -0.3045  0.7018  0.3715
  113OSM      P11700   0.923   4.253  10.679 -0.1402  0.3593 -0.4078
  113OSM    O1311701   0.775   4.277  10.693 -0.2238 -0.1166  0.5085
  113OSM    O1411702   1.018   4.366  10.677  0.3631  0.4002 -0.7358
  113OSM    O1111703   0.946   4.173  10.547 -0.4235 -0.1576 -0.0853
  113OSM    O1211704   0.964   4.142  10.789 -0.3996 -0.1640 -0.1425
  113OSM    C1S11705   0.911   4.032  10.538 -0.1580 -0.1298 -0.2128
  113OSM    H1S11706   0.845   4.000  10.621 -1.5641 -0.2147 -1.3539
  113OSM    H1T11707   1.007   3.976  10.546 -0.9544 -1.5416 -0.3403
  113OSM     NF11708   0.780   3.871  10.403 -0.2659  0.7438  0.6389
  113OSM    HNF11709   0.838   3.798  10.367 -0.9243  0.0432  0.9992
  113OSM    C2S11710   0.843   3.999  10.399 -0.3966 -0.3697  0.0146
  113OSM    H2S11711   0.767   4.079  10.384  0.5322  0.6418  0.5848
  113OSM    C3S11712   0.954   4.014  10.285  0.1515 -0.3111  0.1536
  113OSM    H3S11713   1.031   3.935  10.286 -0.5825 -1.1340 -3.1056
  113OSM     O311714   1.024   4.139  10.294  0.0235 -0.6474 -0.2503
  113OSM    HO311715   1.008   4.166  10.385  1.6883  1.8635 -0.6470
  113OSM    C4S11716   0.882   4.009  10.153 -0.7925 -0.7719  1.1530
  113OSM    H4S11717   0.844   4.105  10.113  0.4579 -1.9964 -3.3225
  113OSM    C5S11718   0.883   3.903  10.074 -1.0323 -0.9724 -0.1060
  113OSM    H5S11719   0.940   3.813  10.102  0.9292  0.4990  0.8434
  113OSM    C6S11720   0.828   3.905   9.937 -0.5528  0.6838 -0.2345
  113OSM    H6S11721   0.763   3.993   9.918 -0.9159  0.2747 -0.9011
  113OSM    H6T11722   0.765   3.813   9.929  1.8021 -1.0717  0.6613
  113OSM    C7S11723   0.932   3.904   9.821  0.1491 -0.7895 -0.5551
  113OSM    H7S11724   1.017   3.974   9.837 -0.8475  0.2050  0.4331
  113OSM    H7T11725   0.883   3.926   9.724  1.8517  0.5702 -1.1232
  113OSM    C8S11726   0.996   3.763   9.812 -0.0715 -0.1493  0.0572
  113OSM    H8S11727   0.916   3.690   9.787  0.6902 -1.4491  1.3271
  113OSM    H8T11728   1.043   3.729   9.907 -0.8743 -1.7872 -0.1070
  113OSM    C9S11729   1.102   3.743   9.703  0.5337  0.2723  0.0223
  113OSM    H9S11730   1.109   3.635   9.676 -0.8131  0.2574 -0.3022
  113OSM    H9T11731   1.196   3.790   9.738 -0.6419  2.6470  0.1313
  113OSM   C10S11732   1.080   3.817   9.575  0.0336  0.4533  0.0109
  113OSM   H10S11733   1.056   3.924   9.596 -0.6541  0.3918 -0.4294
  113OSM   H10T11734   0.986   3.780   9.529  0.3893 -0.1995 -0.1906
  113OSM   C11S11735   1.185   3.812   9.463 -0.6345 -0.0954 -0.1464
  113OSM   H11S11736   1.128   3.855   9.378  0.2757 -0.6907 -1.0689
  113OSM   H11T11737   1.210   3.706   9.442 -3.3642 -0.9991  0.9417
  113OSM   C12S11738   1.322   3.872   9.497 -0.0249  0.2503  0.0520
  113OSM   H12S11739   1.372   3.803   9.569  0.3284  0.8637  0.3958
  113OSM   H12T11740   1.297   3.971   9.541  0.0984  0.4959 -0.4342
  113OSM   C13S11741   1.406   3.866   9.375  0.3902 -0.3235  0.3336
  113OSM   H13S11742   1.370   3.920   9.285  0.6016  0.6395  0.8232
  113OSM   H13T11743   1.414   3.758   9.349  0.3198 -0.3433  0.3964
  113OSM   C14S11744   1.555   3.905   9.387  0.3047 -0.2325  0.0970
  113OSM   H14S11745   1.589   3.830   9.462 -2.0293 -2.1860 -0.7438
  113OSM   H14T11746   1.566   4.007   9.431  1.7284 -0.7057  0.8603
  113OSM   C15S11747   1.637   3.906   9.256  0.2495 -0.3519  0.3630
  113OSM   H15S11748   1.611   3.814   9.201 -1.9469  0.7019 -0.4344
  113OSM   H15T11749   1.745   3.909   9.282  0.6133  0.1686 -1.1840
  113OSM   C16S11750   1.611   4.030   9.165  0.1776  0.5119 -0.2045
  113OSM   H16S11751   1.634   4.115   9.233 -2.4820  0.1257  1.2094
  113OSM   H16T11752   1.504   4.035   9.137 -0.4858 -0.0004  2.1272
  113OSM   C17S11753   1.699   4.030   9.039  0.5528  0.1163 -0.1273
  113OSM   H17S11754   1.660   3.941   8.985 -1.8354  0.0715  1.5808
  113OSM   H17T11755   1.807   4.014   9.060  1.4070  2.6043 -2.3500
  113OSM   C18S11756   1.685   4.156   8.956  1.1196  0.3819 -0.5954
  113OSM   H18S11757   1.585   4.167   8.909  0.9202  0.4667 -0.1496
  113OSM   H18T11758   1.750   4.162   8.866  2.0001 -0.5449 -0.0351
  113OSM   H18U11759   1.708   4.245   9.018 -1.4964  1.1995 -0.7361
  113OSM    C1F11760   0.679   3.839  10.487  0.1299 -0.7758  0.1641
  113OSM     OF11761   0.627   3.925  10.556 -0.3072 -0.2413  0.3201
  113OSM    C2F11762   0.638   3.700  10.509  1.6007 -0.4343  0.3671
  113OSM    H2F11763   0.647   3.690  10.619 -1.0609  0.0880  0.6571
  113OSM    H2G11764   0.714   3.637  10.457  0.5923  0.2863 -2.0276
  113OSM    C3F11765   0.498   3.659  10.462  0.4840 -0.5891 -0.4869
  113OSM    H3F11766   0.475   3.674  10.354 -3.7164  3.8976  0.8677
  113OSM    H3G11767   0.425   3.711  10.527  0.3109  0.0159 -1.1590
  113OSM    C4F11768   0.469   3.507  10.463 -0.2751  0.1003 -0.9135
  113OSM    H4F11769   0.477   3.475  10.569 -1.2837  1.4251 -0.4248
  113OSM    H4G11770   0.541   3.461  10.392 -0.9977 -2.5012  0.0153
  113OSM    C5F11771   0.331   3.458  10.406 -0.7886  0.0114 -0.2004
  113OSM    H5F11772   0.241   3.498  10.459  0.6841  1.4750  1.2783
  113OSM    H5G11773   0.324   3.348  10.421  0.9743  0.0567  1.0721
  113OSM    C6F11774   0.308   3.508  10.261 -0.3237  0.7936  1.2186
  113OSM    H6F11775   0.404   3.520  10.206 -0.1411 -2.1406  0.8132
  113OSM    H6G11776   0.266   3.610  10.270  1.3860  1.6789 -0.4566
  113OSM    C7F11777   0.212   3.439  10.171  0.1839  0.2910 -0.3014
  113OSM    H7F11778   0.129   3.392  10.229 -1.1739  0.1849 -2.2444
  113OSM    H7G11779   0.267   3.359  10.118 -1.3504  1.2251 -3.4575
  113OSM    C8F11780   0.142   3.549  10.083  0.0824 -0.0301 -0.3936
  113OSM    H8F11781   0.090   3.625  10.146 -1.5371 -0.2668 -1.4223
  113OSM    H8G11782   0.072   3.488  10.022 -0.3475  1.1412 -1.0983
  113OSM    C9F11783   0.234   3.615   9.999 -0.6780  0.6866  0.8156
  113OSM    H9F11784   0.251   3.722  10.015 -1.3372  1.0186 -0.5514
  113OSM   C10F11785   0.280   3.560   9.882  0.2482  0.5041 -0.5670
  113OSM   H10F11786   0.349   3.619   9.821 -0.3700  1.0394 -0.7539
  113OSM   C11F11787   0.243   3.420   9.824 -0.8378 -0.7958  0.2690
  113OSM   H11F11788   0.146   3.391   9.870 -2.1806  1.6809 -0.8756
  113OSM   H11G11789   0.322   3.354   9.866 -0.9599  0.4708  2.5964
  113OSM   C12F11790   0.221   3.409   9.672  0.6580  0.4178 -0.4244
  113OSM   H12F11791   0.169   3.502   9.638  0.9357  0.6377 -0.2502
  113OSM   H12G11792   0.153   3.323   9.655  2.0968 -0.5340 -1.4968
  113OSM   C13F11793   0.346   3.386   9.589  0.2350  0.4360 -1.3016
  113OSM   H13F11794   0.373   3.285   9.627  1.4266  0.5651 -1.7941
  113OSM   H13G11795   0.431   3.452   9.615  2.0373 -2.4202  0.2505
  113OSM   C14F11796   0.332   3.384   9.439  0.2128 -0.1750  0.3445
  113OSM   H14F11797   0.296   3.481   9.399 -0.8539 -1.3763 -1.6816
  113OSM   H14G11798   0.274   3.293   9.412  0.9629 -1.4100  2.7107
  113OSM   C15F11799   0.466   3.360   9.374 -0.4936 -0.5487  0.2364
  113OSM   H15F11800   0.506   3.262   9.408  2.6229  0.4278 -0.4683
  113OSM   H15G11801   0.530   3.442   9.414  0.8426 -1.7534  0.5769
  113OSM   C16F11802   0.480   3.381   9.221 -0.3583 -0.3252 -0.3098
  113OSM   H16F11803   0.581   3.353   9.184 -0.5533  0.4077 -1.4402
  113OSM   H16G11804   0.463   3.490   9.212 -0.2471 -0.0649  2.2082
  113OSM   C17F11805   0.376   3.296   9.150 -0.5804  0.0348 -0.5117
  113OSM   H17F11806   0.278   3.310   9.201  1.2473  1.3217  2.8475
  113OSM   H17G11807   0.391   3.189   9.174  1.4849  0.5112  0.4254
  113OSM   C18F11808   0.369   3.325   8.998 -0.2607 -0.5287 -0.1740
  113OSM   H18F11809   0.359   3.434   8.976 -2.5987 -1.0478 -1.9379
  113OSM   H18G11810   0.288   3.282   8.935 -1.7463  1.1886  0.4889
  113OSM   H18H11811   0.464   3.284   8.960 -0.2747 -0.2810 -0.4795
  114OSM      N11812   1.431   1.747  11.442 -0.2718  0.2088 -0.6326
  114OSM    C1511813   1.547   1.714  11.354  0.0278  0.1506 -0.4008
  114OSM   H15A11814   1.593   1.802  11.311  0.6539 -0.9369 -2.0410
  114OSM   H15B11815   1.516   1.657  11.268  0.3057 -2.8206  1.4176
  114OSM   H15C11816   1.631   1.668  11.403 -1.7941 -0.3904  2.2885
  114OSM    C1411817   1.404   1.630  11.531  0.0687 -0.9387 -0.0852
  114OSM   H14A11818   1.487   1.595  11.591 -0.8248 -1.3654  0.9220
  114OSM   H14B11819   1.373   1.541  11.478  0.1931 -0.8033 -0.3879
  114OSM   H14C11820   1.325   1.656  11.600 -0.9787  0.8405 -1.8931
  114OSM    C1311821   1.475   1.871  11.522 -0.2372 -0.3830  0.0718
  114OSM   H13A11822   1.579   1.883  11.547 -0.4176  2.2340 -0.2799
  114OSM   H13B11823   1.416   1.875  11.612 -1.8028  2.0640 -0.9977
  114OSM   H13C11824   1.439   1.960  11.472 -0.2563 -0.6090 -0.3171
  114OSM    C1211825   1.298   1.772  11.363 -0.3264  0.2876 -0.2339
  114OSM   H12A11826   1.226   1.808  11.435  2.0449  1.8895  1.3900
  114OSM   H12B11827   1.273   1.675  11.323  2.6511 -0.3250 -0.7592
  114OSM    C1111828   1.295   1.884  11.253 -0.3772  0.0611  0.8096
  114OSM   H11A11829   1.196   1.887  11.203  0.4069 -1.7044 -0.9331
  114OSM   H11B11830   1.362   1.852  11.170  0.9620  1.0574  1.4983
  114OSM      P11831   1.227   2.144  11.306  0.5429 -0.4674  0.0584
  114OSM    O1311832   1.124   2.110  11.405 -0.2957  0.2458  0.0061
  114OSM    O1411833   1.305   2.264  11.328  0.0815 -0.3225  0.3082
  114OSM    O1111834   1.174   2.133  11.160  0.1006 -0.4231 -0.0457
  114OSM    O1211835   1.337   2.017  11.303  0.7252  0.1155  0.2471
  114OSM    C1S11836   1.213   2.231  11.062  0.3577 -0.6693  0.0649
  114OSM    H1S11837   1.323   2.248  11.060  0.2636  0.1918  1.5090
  114OSM    H1T11838   1.160   2.326  11.084 -0.2710 -1.0713  0.3028
  114OSM     NF11839   1.194   2.288  10.825  0.1272 -0.6055 -0.1328
  114OSM    HNF11840   1.116   2.340  10.789  0.3691 -1.2387 -1.6021
  114OSM    C2S11841   1.164   2.182  10.918  0.1798  0.2710  0.5738
  114OSM    H2S11842   1.223   2.091  10.895 -0.9758 -1.1290  2.9709
  114OSM    C3S11843   1.015   2.139  10.911 -0.0852 -0.1038 -0.2812
  114OSM    H3S11844   0.955   2.230  10.931 -1.1444 -0.6460 -0.9004
  114OSM     O311845   0.970   2.043  11.001 -0.1899  0.5684  1.3104
  114OSM    HO311846   1.038   2.034  11.069  0.5094 -1.7672  0.3353
  114OSM    C4S11847   0.982   2.100  10.768 -0.1060 -0.6184  0.6946
  114OSM    H4S11848   1.042   2.017  10.727  1.4127 -0.6315  2.8628
  114OSM    C5S11849   0.881   2.144  10.692 -0.6429  0.2451 -0.3849
  114OSM    H5S11850   0.812   2.223  10.726  2.1167  3.4951 -2.0444
  114OSM    C6S11851   0.856   2.099  10.550  0.1607  0.3991  0.3770
  114OSM    H6S11852   0.933   2.025  10.518  0.6986  1.5070 -0.9196
  114OSM    H6T11853   0.868   2.188  10.484  1.6530 -0.3076 -0.3313
  114OSM    C7S11854   0.711   2.046  10.515 -0.8169 -0.4145 -0.5297
  114OSM    H7S11855   0.629   2.071  10.586 -1.4969 -1.4640 -0.9273
  114OSM    H7T11856   0.726   1.936  10.518  4.1494  0.1196 -1.7392
  114OSM    C8S11857   0.664   2.097  10.377 -0.2639  0.3250  0.1501
  114OSM    H8S11858   0.645   2.207  10.381  0.3043  0.5572 -2.5937
  114OSM    H8T11859   0.568   2.052  10.342  1.6057 -3.1165 -0.7705
  114OSM    C9S11860   0.774   2.081  10.273  0.6686 -0.1829 -0.3712
  114OSM    H9S11861   0.801   1.973  10.271 -0.2298 -0.4109 -0.4344
  114OSM    H9T11862   0.872   2.130  10.290  0.2872 -0.2558  2.1987
  114OSM   C10S11863   0.736   2.125  10.122  0.9310  0.0782  0.0823
  114OSM   H10S11864   0.627   2.117  10.106  0.9944 -0.1571 -0.2441
  114OSM   H10T11865   0.783   2.061  10.043 -1.8851 -0.0751 -1.5169
  114OSM   C11S11866   0.778   2.272  10.095  0.5264  0.7054  0.2359
  114OSM   H11S11867   0.889   2.277  10.096  0.5504  0.2371 -0.0082
  114OSM   H11T11868   0.734   2.351  10.159  0.6152  2.5415 -1.9022
  114OSM   C12S11869   0.751   2.325   9.948 -0.3953 -0.2268 -0.1983
  114OSM   H12S11870   0.797   2.425   9.936  1.0709 -0.6001  2.1132
  114OSM   H12T11871   0.644   2.356   9.938  0.1625  1.2481 -1.7847
  114OSM   C13S11872   0.784   2.231   9.830 -0.2046 -0.0924 -0.1105
  114OSM   H13S11873   0.742   2.131   9.849  1.9453 -0.7896  1.1661
  114OSM   H13T11874   0.894   2.219   9.841  0.2669  0.6083 -3.3115
  114OSM   C14S11875   0.740   2.294   9.697  0.5264 -0.0146  0.3904
  114OSM   H14S11876   0.651   2.358   9.718  1.0602  0.6479  0.6444
  114OSM   H14T11877   0.706   2.215   9.626  0.5403  3.6554 -3.9272
  114OSM   C15S11878   0.842   2.382   9.631  0.5859 -0.1109  0.6764
  114OSM   H15S11879   0.895   2.443   9.707  2.1625 -0.5700 -0.0526
  114OSM   H15T11880   0.786   2.454   9.567  0.2504  0.3924  1.5210
  114OSM   C16S11881   0.928   2.303   9.532  0.3067  0.2536 -0.0313
  114OSM   H16S11882   0.869   2.236   9.465  1.3765 -0.5670 -0.1742
  114OSM   H16T11883   1.007   2.250   9.590 -0.9201 -0.0802  1.3662
  114OSM   C17S11884   1.003   2.403   9.439 -0.2846 -0.7045  0.2553
  114OSM   H17S11885   0.925   2.457   9.383  1.3153  1.3424 -0.0330
  114OSM   H17T11886   1.067   2.353   9.363  0.5204  0.7207 -0.0207
  114OSM   C18S11887   1.086   2.510   9.515 -0.2077 -0.2051 -0.5146
  114OSM   H18S11888   1.161   2.567   9.456 -1.9685  0.4353 -2.1871
  114OSM   H18T11889   1.131   2.469   9.608  0.3470 -1.7864 -1.4748
  114OSM   H18U11890   1.011   2.583   9.553 -1.2974 -1.5216 -0.1316
  114OSM    C1F11891   1.317   2.333  10.796  0.0459  0.4627  0.3632
  114OSM     OF11892   1.417   2.275  10.836  0.4808 -0.0499  0.1429
  114OSM    C2F11893   1.325   2.456  10.711  0.2964 -0.4932 -0.3929
  114OSM    H2F11894   1.291   2.542  10.772 -1.3371 -1.0044 -0.5578
  114OSM    H2G11895   1.262   2.440  10.620  0.8461 -1.1244 -0.6626
  114OSM    C3F11896   1.473   2.504  10.686  0.2648 -0.5892 -0.1023
  114OSM    H3F11897   1.524   2.414  10.646 -0.2130 -0.8900 -0.0394
  114OSM    H3G11898   1.528   2.530  10.779 -1.1776  0.9385  0.3640
  114OSM    C4F11899   1.480   2.632  10.600 -0.1154  0.4646  0.7526
  114OSM    H4F11900   1.586   2.641  10.567 -0.2578 -1.9439 -0.5124
  114OSM    H4G11901   1.446   2.707  10.674 -1.8512 -0.5976  1.0600
  114OSM    C5F11902   1.394   2.640  10.477 -0.3591  0.6136  0.0253
  114OSM    H5F11903   1.417   2.735  10.424  0.1295 -0.0289 -0.9105
  114OSM    H5G11904   1.284   2.645  10.491 -0.2667 -1.0684  1.6686
  114OSM    C6F11905   1.416   2.523  10.384  0.4360 -0.7472  0.2253
  114OSM    H6F11906   1.383   2.429  10.432  1.7886 -0.3809  1.9188
  114OSM    H6G11907   1.525   2.516  10.368  0.6235 -0.4520  1.3351
  114OSM    C7F11908   1.338   2.544  10.251  0.1821  0.4587  0.1958
  114OSM    H7F11909   1.408   2.594  10.181  0.2869 -0.8346 -0.6374
  114OSM    H7G11910   1.256   2.613  10.278 -0.7177 -0.2341 -0.7337
  114OSM    C8F11911   1.264   2.415  10.192  0.6226 -0.2932 -0.3383
  114OSM    H8F11912   1.207   2.371  10.277 -1.8908  3.8179  0.2583
  114OSM    H8G11913   1.344   2.348  10.156 -0.0979 -2.3575  1.6997
  114OSM    C9F11914   1.157   2.448  10.089 -0.6266  0.4560  0.5890
  114OSM    H9F11915   1.060   2.472  10.136 -0.5348  0.8223  0.5924
  114OSM   C10F11916   1.160   2.424   9.956  0.6488  0.4535 -0.5055
  114OSM   H10F11917   1.063   2.438   9.906 -1.0136  0.8804  2.7309
  114OSM   C11F11918   1.275   2.366   9.881  0.3564  0.3360  0.4546
  114OSM   H11F11919   1.228   2.284   9.822 -2.0968  1.5904  0.6184
  114OSM   H11G11920   1.342   2.306   9.946  0.3787  1.2681  1.3069
  114OSM   C12F11921   1.346   2.470   9.792 -0.1970 -0.1850  0.1111
  114OSM   H12F11922   1.429   2.531   9.836  0.2414 -0.2531 -0.6244
  114OSM   H12G11923   1.276   2.556   9.780 -2.2086 -1.6549  1.1764
  114OSM   C13F11924   1.406   2.407   9.665  0.1204  0.0865 -0.2355
  114OSM   H13F11925   1.332   2.337   9.622  1.4451 -1.8997  0.6680
  114OSM   H13G11926   1.496   2.350   9.698 -0.9799 -0.4233  1.9576
  114OSM   C14F11927   1.456   2.507   9.558 -0.0869 -0.5239 -0.3378
  114OSM   H14F11928   1.521   2.585   9.603 -1.4158 -0.4512  1.5534
  114OSM   H14G11929   1.369   2.567   9.526 -1.6509 -1.1952  2.4373
  114OSM   C15F11930   1.530   2.439   9.444  0.5290  0.2390 -0.5969
  114OSM   H15F11931   1.453   2.370   9.404  1.5501 -1.8037  0.9137
  114OSM   H15G11932   1.605   2.373   9.491 -1.3686 -1.5134  0.0264
  114OSM   C16F11933   1.584   2.525   9.327  0.5192 -0.3946  0.4691
  114OSM   H16F11934   1.630   2.463   9.247 -1.0706  0.9064 -1.5112
  114OSM   H16G11935   1.661   2.598   9.358  3.0985 -1.7887 -2.3801
  114OSM   C17F11936   1.475   2.609   9.261  0.2062  0.5351 -0.5396
  114OSM   H17F11937   1.520   2.679   9.188  1.7087  0.2268  0.0532
  114OSM   H17G11938   1.417   2.668   9.335  0.0708 -0.6194  0.3032
  114OSM   C18F11939   1.363   2.525   9.195  0.2452 -0.6525  0.2177
  114OSM   H18F11940   1.400   2.478   9.102  1.5454 -0.0430  0.4153
  114OSM   H18G11941   1.285   2.589   9.148 -0.5000 -1.2059  0.6913
  114OSM   H18H11942   1.315   2.454   9.266  2.9953 -0.6234  2.1972
  115OSM      N11943   2.608   6.218   6.064 -0.0392  0.5179  0.1814
  115OSM    C1511944   2.635   6.082   6.009  0.4549 -0.5991 -0.0667
  115OSM   H15A11945   2.726   6.076   5.950  0.5307 -1.2482  0.1094
  115OSM   H15B11946   2.551   6.048   5.950 -1.2803 -1.6575  2.9606
  115OSM   H15C11947   2.654   6.006   6.083  1.1895 -0.4089 -0.0515
  115OSM    C1411948   2.720   6.250   6.158 -0.2588 -0.4453 -0.3967
  115OSM   H14A11949   2.795   6.310   6.108 -0.5344 -1.5909 -2.2246
  115OSM   H14B11950   2.771   6.159   6.187  0.2714 -0.2429 -0.6781
  115OSM   H14C11951   2.683   6.305   6.243  0.2896 -1.1004  0.2710
  115OSM    C1311952   2.610   6.318   5.957 -0.1518 -0.4015  0.6317
  115OSM   H13A11953   2.704   6.326   5.905 -1.0543  1.2121 -0.7633
  115OSM   H13B11954   2.587   6.418   5.989  1.4093  0.0882  0.2788
  115OSM   H13C11955   2.535   6.298   5.882  0.6493  1.5185 -0.7066
  115OSM    C1211956   2.476   6.213   6.145 -0.2651  0.1049 -0.1398
  115OSM   H12A11957   2.471   6.305   6.201  1.1164  0.2765 -0.2882
  115OSM   H12B11958   2.473   6.139   6.224 -1.5373  0.5715  0.2685
  115OSM    C1111959   2.354   6.203   6.055 -0.6938  0.1824 -0.2671
  115OSM   H11A11960   2.350   6.289   5.986  1.4848  1.0456  0.6221
  115OSM   H11B11961   2.263   6.225   6.115 -1.1902 -1.7302 -0.2841
  115OSM      P11962   2.303   5.947   6.062 -0.6585 -0.2510 -0.4451
  115OSM    O1311963   2.180   5.887   6.007  0.6468  0.1438 -0.8512
  115OSM    O1411964   2.425   5.866   6.073  0.0142 -0.5959  0.0947
  115OSM    O1111965   2.262   5.991   6.215 -0.4415  0.1563 -0.2885
  115OSM    O1211966   2.343   6.079   5.983 -0.2848  0.5651 -0.1558
  115OSM    C1S11967   2.296   5.917   6.325 -0.2081 -0.1101 -0.9207
  115OSM    H1S11968   2.403   5.933   6.348 -0.3507 -0.9930  0.4355
  115OSM    H1T11969   2.288   5.810   6.296 -0.4948 -0.0633 -1.0217
  115OSM     NF11970   2.255   5.889   6.571 -0.0313 -0.2104 -0.2996
  115OSM    HNF11971   2.227   5.803   6.613 -0.6377  2.2966  4.9498
  115OSM    C2S11972   2.201   5.938   6.447  0.6309  0.0494 -0.4772
  115OSM    H2S11973   2.189   6.048   6.459  2.3533  0.3936 -1.7209
  115OSM    C3S11974   2.062   5.879   6.413 -0.2641 -0.5068 -0.1444
  115OSM    H3S11975   2.082   5.770   6.411 -0.4125 -0.5302 -0.4015
  115OSM     O311976   2.021   5.923   6.279  0.2620  0.1423 -0.4082
  115OSM    HO311977   2.103   5.963   6.248  1.1834 -1.7056 -0.4343
  115OSM    C4S11978   1.956   5.916   6.520 -0.7605  0.1097 -0.0731
  115OSM    H4S11979   1.945   6.022   6.546  0.2838  0.1941  0.0087
  115OSM    C5S11980   1.882   5.829   6.593 -0.2443 -0.5443  0.1438
  115OSM    H5S11981   1.876   5.726   6.556 -0.8628 -0.3421 -0.3426
  115OSM    C6S11982   1.774   5.859   6.699 -0.2366 -0.3520 -0.0703
  115OSM    H6S11983   1.762   5.775   6.771  0.1874 -1.6405 -1.4641
  115OSM    H6T11984   1.686   5.881   6.637  0.1523 -0.9123 -0.8336
  115OSM    C7S11985   1.804   5.979   6.788  0.0302  0.3906  0.0376
  115OSM    H7S11986   1.708   6.013   6.834 -0.5521 -1.2504  0.0776
  115OSM    H7T11987   1.832   6.060   6.718 -2.3830  1.0470 -0.2083
  115OSM    C8S11988   1.907   5.959   6.895 -0.0392  0.6782 -0.0206
  115OSM    H8S11989   1.948   6.061   6.911  2.5703 -0.2747 -0.3387
  115OSM    H8T11990   1.987   5.888   6.864 -0.5116 -0.0205  0.3314
  115OSM    C9S11991   1.849   5.923   7.031  0.5758  0.0694  0.4271
  115OSM    H9S11992   1.800   5.823   7.030  0.9633 -0.1418  2.2383
  115OSM    H9T11993   1.778   6.002   7.065  0.0524  0.1497 -0.8157
  115OSM   C10S11994   1.964   5.908   7.133 -0.1680  0.6237 -0.1079
  115OSM   H10S11995   1.989   6.012   7.164  1.9780  0.4840 -1.3098
  115OSM   H10T11996   2.054   5.858   7.093  0.2098 -0.2466  1.7497
  115OSM   C11S11997   1.913   5.833   7.260 -0.7868 -0.4487 -0.7211
  115OSM   H11S11998   1.863   5.737   7.235  0.7088 -1.6098  0.6225
  115OSM   H11T11999   1.847   5.907   7.310 -2.4802 -0.4433 -2.8866
  115OSM   C12S12000   2.029   5.790   7.357 -0.3171  0.2130  0.3190
  115OSM   H12S12001   2.089   5.877   7.392 -1.1774  0.5586  0.9586
  115OSM   H12T12002   2.085   5.710   7.304 -1.0036 -0.5525  0.7425
  115OSM   C13S12003   1.966   5.726   7.483 -0.3551  0.2897  0.0654
  115OSM   H13S12004   1.895   5.653   7.439  0.8281 -0.5347 -0.5223
  115OSM   H13T12005   1.929   5.797   7.559 -0.3339 -0.9203  1.2187
  115OSM   C14S12006   2.070   5.646   7.558  0.1870  0.1300 -0.2560
  115OSM   H14S12007   2.154   5.712   7.590  1.8862 -1.9726 -0.3210
  115OSM   H14T12008   2.103   5.552   7.511  1.2018  0.6441 -0.5869
  115OSM   C15S12009   2.017   5.611   7.692 -0.6927  0.5235  0.5006
  115OSM   H15S12010   1.929   5.545   7.674  0.3359 -0.6239 -0.4242
  115OSM   H15T12011   1.971   5.696   7.746 -0.2585  1.3334 -0.3955
  115OSM   C16S12012   2.127   5.540   7.775 -0.8840 -0.1325 -0.4919
  115OSM   H16S12013   2.213   5.608   7.795  1.3844 -3.5421  1.7822
  115OSM   H16T12014   2.156   5.452   7.714 -2.2664 -0.7362 -0.3122
  115OSM   C17S12015   2.078   5.483   7.906  0.0273  0.6337  0.6166
  115OSM   H17S12016   2.150   5.402   7.931 -1.9046 -1.3230  0.0516
  115OSM   H17T12017   1.982   5.428   7.897  0.0640  0.6502  0.0924
  115OSM   C18S12018   2.061   5.588   8.018  0.4442  0.0459  0.3971
  115OSM   H18S12019   1.980   5.565   8.090 -0.5182  1.5145 -0.1999
  115OSM   H18T12020   2.041   5.687   7.971 -2.6679 -0.8124 -0.1539
  115OSM   H18U12021   2.150   5.588   8.085  0.8970  1.3123 -0.1764
  115OSM    C1F12022   2.355   5.947   6.628  0.0513 -0.2137 -0.0327
  115OSM     OF12023   2.411   6.049   6.580 -0.2079  0.1766 -0.6904
  115OSM    C2F12024   2.398   5.888   6.759 -0.3393  0.3691  0.2385
  115OSM    H2F12025   2.508   5.896   6.767 -0.3023  1.5918 -1.2796
  115OSM    H2G12026   2.378   5.779   6.744 -1.8836  0.6755  0.0114
  115OSM    C3F12027   2.322   5.939   6.885 -0.0492  0.7303 -0.6231
  115OSM    H3F12028   2.216   5.936   6.854 -0.0189 -0.9682 -0.6151
  115OSM    H3G12029   2.360   6.042   6.896  2.6512 -0.2322 -0.4013
  115OSM    C4F12030   2.333   5.857   7.010  0.2555 -0.3395 -0.7583
  115OSM    H4F12031   2.260   5.773   7.011 -0.0987 -0.0726 -2.3423
  115OSM    H4G12032   2.300   5.921   7.094 -1.2307 -0.6921 -1.0601
  115OSM    C5F12033   2.471   5.796   7.046  0.2152  0.1114 -0.3870
  115OSM    H5F12034   2.539   5.873   7.003 -1.1338 -0.5671 -3.8503
  115OSM    H5G12035   2.481   5.702   6.988 -1.7237  0.1388 -0.7901
  115OSM    C6F12036   2.494   5.754   7.186 -0.0115 -0.3159 -0.2110
  115OSM    H6F12037   2.427   5.815   7.252  1.7101  1.4220 -0.0108
  115OSM    H6G12038   2.597   5.777   7.222 -0.6589 -2.3971  3.2194
  115OSM    C7F12039   2.458   5.603   7.208 -0.4246  0.6243 -0.5812
  115OSM    H7F12040   2.518   5.544   7.134  2.3800  1.7174  0.7426
  115OSM    H7G12041   2.349   5.590   7.193 -0.8406  0.9824  1.9204
  115OSM    C8F12042   2.495   5.544   7.345  0.6249  0.5024 -0.5218
  115OSM    H8F12043   2.604   5.547   7.368  0.5657  3.7498 -0.4856
  115OSM    H8G12044   2.472   5.436   7.339 -0.2230  0.5576  1.3058
  115OSM    C9F12045   2.429   5.609   7.460  0.2695  0.3715  0.1527
  115OSM    H9F12046   2.365   5.695   7.437 -0.8968 -1.1617 -2.5989
  115OSM   C10F12047   2.437   5.573   7.590 -0.2576  0.1150  0.0656
  115OSM   H10F12048   2.378   5.629   7.664 -2.9028 -2.4068 -0.0725
  115OSM   C11F12049   2.505   5.443   7.632  0.2253 -0.5467 -0.0702
  115OSM   H11F12050   2.484   5.365   7.555  1.2997 -1.3241  0.4258
  115OSM   H11G12051   2.444   5.407   7.717 -0.5502  3.2549  1.0894
  115OSM   C12F12052   2.658   5.460   7.652  0.1397  0.6004 -0.3627
  115OSM   H12F12053   2.711   5.469   7.555  1.9218 -1.7033  0.3617
  115OSM   H12G12054   2.705   5.364   7.681 -1.5703 -0.0525  0.2697
  115OSM   C13F12055   2.697   5.575   7.747  0.5479 -0.0644 -0.4748
  115OSM   H13F12056   2.607   5.606   7.806  0.2423 -0.5317 -0.6913
  115OSM   H13G12057   2.738   5.658   7.686 -0.5555  0.4473 -0.5486
  115OSM   C14F12058   2.804   5.539   7.855  0.0915  0.0842 -0.0317
  115OSM   H14F12059   2.768   5.455   7.917 -3.0940 -0.4846 -2.4944
  115OSM   H14G12060   2.828   5.624   7.923  1.5645  0.2284 -0.7063
  115OSM   C15F12061   2.934   5.485   7.796 -0.8807 -0.0835 -0.5936
  115OSM   H15F12062   2.990   5.550   7.726  2.0953 -2.5455 -0.5932
  115OSM   H15G12063   2.913   5.390   7.743 -0.9739 -0.4564  0.1132
  115OSM   C16F12064   3.047   5.456   7.893 -0.3974 -0.3607 -0.5973
  115OSM   H16F12065   3.012   5.387   7.972  0.6570 -1.1286 -0.7818
  115OSM   H16G12066   3.093   5.542   7.947  1.5896 -1.9133  0.2737
  115OSM   C17F12067   3.160   5.379   7.817  0.0168 -0.4194  0.2991
  115OSM   H17F12068   3.206   5.449   7.744  0.3777 -1.0900 -0.1284
  115OSM   H17G12069   3.107   5.303   7.755 -0.3958 -0.8008  1.0996
  115OSM   C18F12070   3.269   5.315   7.909  0.5699 -0.3725  0.4373
  115OSM   H18F12071   3.362   5.359   7.868 -1.0422  2.5126 -0.2523
  115OSM   H18G12072   3.262   5.205   7.903  1.0456 -0.3217 -1.1822
  115OSM   H18H12073   3.245   5.352   8.011  1.3518  2.5999 -0.3892
  116OSM      N12074   2.672   3.499   6.009 -0.2558 -0.0300  0.4217
  116OSM    C1512075   2.694   3.361   5.971  0.3162  0.3348 -0.1885
  116OSM   H15A12076   2.689   3.295   6.056 -2.1880 -0.3766 -0.8499
  116OSM   H15B12077   2.788   3.346   5.920  1.1917  1.6262  0.9893
  116OSM   H15C12078   2.617   3.323   5.906  0.1939  2.2700 -1.2216
  116OSM    C1412079   2.779   3.545   6.101 -0.5275  0.0114  0.7338
  116OSM   H14A12080   2.871   3.553   6.045 -1.8954  2.3919 -1.2697
  116OSM   H14B12081   2.792   3.475   6.182 -1.0211 -2.9497 -1.6809
  116OSM   H14C12082   2.761   3.638   6.154 -0.9562  0.7226 -0.6278
  116OSM    C1312083   2.663   3.586   5.886 -0.1791  0.1590  0.1007
  116OSM   H13A12084   2.633   3.683   5.922 -2.3084 -0.6068  0.4199
  116OSM   H13B12085   2.588   3.548   5.818  0.5395  0.7243 -1.0072
  116OSM   H13C12086   2.758   3.601   5.836 -1.6698  0.8135 -2.6388
  116OSM    C1212087   2.536   3.509   6.086 -0.0684 -0.1284 -0.3652
  116OSM   H12A12088   2.460   3.464   6.024  0.4864 -2.2184  0.4382
  116OSM   H12B12089   2.515   3.614   6.101  0.0771  0.5208 -4.2386
  116OSM    C1112090   2.525   3.438   6.227 -0.2467  0.0297  0.4449
  116OSM   H11A12091   2.416   3.438   6.249 -0.2079  2.1399  0.7912
  116OSM   H11B12092   2.578   3.502   6.301 -0.1426  2.3693 -1.5936
  116OSM      P12093   2.481   3.175   6.214 -0.0133  0.0044 -0.2991
  116OSM    O1312094   2.400   3.205   6.092  0.1949 -0.0334 -0.3584
  116OSM    O1412095   2.560   3.048   6.207 -0.0629 -0.3753 -0.4815
  116OSM    O1112096   2.389   3.179   6.341 -0.1574 -0.0636 -0.5802
  116OSM    O1212097   2.577   3.302   6.223  0.2295  0.1209  0.3440
  116OSM    C1S12098   2.431   3.108   6.462 -0.2239  0.3407  0.1464
  116OSM    H1S12099   2.537   3.132   6.484 -0.3129  1.3692 -0.4747
  116OSM    H1T12100   2.428   2.998   6.445 -0.7549  0.4286 -0.3864
  116OSM     NF12101   2.437   3.085   6.707 -0.0462 -0.0022 -0.0764
  116OSM    HNF12102   2.387   3.018   6.761  0.0875 -1.4135 -1.6441
  116OSM    C2S12103   2.361   3.145   6.599 -0.6162 -0.0895  0.0799
  116OSM    H2S12104   2.369   3.256   6.603 -1.4013 -0.0364  0.2346
  116OSM    C3S12105   2.210   3.110   6.599  0.1248  0.5340 -0.5149
  116OSM    H3S12106   2.198   3.000   6.588 -1.1514  0.5445  0.5889
  116OSM     O312107   2.134   3.166   6.488 -0.0837  0.3779 -0.1629
  116OSM    HO312108   2.203   3.189   6.424  0.8680  0.3898  0.8498
  116OSM    C4S12109   2.149   3.150   6.733 -0.0423 -0.8247 -0.9164
  116OSM    H4S12110   2.149   3.069   6.807 -2.4384  0.6243  0.7671
  116OSM    C5S12111   2.093   3.275   6.756  0.4201  1.3168 -0.3202
  116OSM    H5S12112   2.081   3.341   6.668  2.5297  0.8459 -0.9907
  116OSM    C6S12113   2.042   3.326   6.888 -0.1270  0.1705  0.6983
  116OSM    H6S12114   1.933   3.346   6.878 -0.1391 -0.3128 -0.1100
  116OSM    H6T12115   2.093   3.421   6.913  1.1864 -0.0540 -1.1052
  116OSM    C7S12116   2.087   3.240   7.013  0.6826 -1.0869 -0.8967
  116OSM    H7S12117   2.198   3.233   7.015  0.6733 -1.9389 -2.8696
  116OSM    H7T12118   2.038   3.141   7.008 -0.4457 -0.7495  2.3412
  116OSM    C8S12119   2.022   3.302   7.136  0.6848  0.1976  0.7141
  116OSM    H8S12120   1.911   3.302   7.147  0.6695  1.3104  0.5931
  116OSM    H8T12121   2.037   3.412   7.132  0.9347  0.1688  0.9010
  116OSM    C9S12122   2.084   3.243   7.257  0.3203  0.7199 -0.5541
  116OSM    H9S12123   2.192   3.266   7.260  0.1913  1.3311 -0.3787
  116OSM    H9T12124   2.070   3.135   7.234 -2.2129  0.9981 -0.4756
  116OSM   C10S12125   2.027   3.280   7.390 -0.1788  0.0315 -0.4097
  116OSM   H10S12126   1.921   3.250   7.395  0.1444 -1.1644 -0.5580
  116OSM   H10T12127   2.047   3.385   7.419 -0.8052  0.2345 -0.7222
  116OSM   C11S12128   2.086   3.193   7.509 -0.2226  0.3898 -0.5518
  116OSM   H11S12129   2.196   3.199   7.512 -0.2308 -0.1972  1.5333
  116OSM   H11T12130   2.062   3.086   7.490  0.4770  0.3484 -1.2216
  116OSM   C12S12131   2.018   3.238   7.638  0.1938 -0.0381  0.2051
  116OSM   H12S12132   1.911   3.265   7.622  0.3807  0.9455  0.5763
  116OSM   H12T12133   2.067   3.334   7.663 -0.9364  1.2583 -2.3969
  116OSM   C13S12134   2.044   3.149   7.757 -0.2515 -0.3260 -0.3795
  116OSM   H13S12135   2.153   3.136   7.773 -0.5740  0.7068  3.2911
  116OSM   H13T12136   1.998   3.052   7.730 -1.9415 -0.4030  2.4724
  116OSM   C14S12137   1.965   3.198   7.888  0.5323 -0.7021 -0.1734
  116OSM   H14S12138   1.859   3.213   7.859  0.5156  0.5413  0.5028
  116OSM   H14T12139   2.013   3.298   7.899  1.1921 -0.9256 -0.9815
  116OSM   C15S12140   2.007   3.125   8.022  0.5969 -0.1934 -0.1898
  116OSM   H15S12141   2.114   3.133   8.051  0.2312 -0.6811  1.3219
  116OSM   H15T12142   1.974   3.021   8.005 -3.1907  0.9498 -0.2474
  116OSM   C16S12143   1.946   3.184   8.143  0.1367 -0.1327 -0.1652
  116OSM   H16S12144   1.840   3.217   8.130 -0.1274 -1.2467 -0.9237
  116OSM   H16T12145   1.994   3.277   8.180 -1.9803  0.3739  1.4317
  116OSM   C17S12146   1.949   3.091   8.266  0.1791 -0.0084  0.3059
  116OSM   H17S12147   2.047   3.103   8.317 -0.1691  0.9811  0.7373
  116OSM   H17T12148   1.937   2.986   8.231 -1.6406 -0.2405  1.5892
  116OSM   C18S12149   1.837   3.110   8.361  0.6975  0.6902 -0.4354
  116OSM   H18S12150   1.837   3.213   8.401 -2.6474  0.4229  0.4235
  116OSM   H18T12151   1.857   3.048   8.451 -2.8555  0.3025  0.1568
  116OSM   H18U12152   1.740   3.073   8.319  1.0698  1.4250 -1.9704
  116OSM    C1F12153   2.566   3.118   6.740  0.0499 -0.6649 -0.0244
  116OSM     OF12154   2.637   3.201   6.684  0.0442  0.3427 -0.3681
  116OSM    C2F12155   2.622   3.062   6.869  0.6346  0.1930 -0.2834
  116OSM    H2F12156   2.560   2.977   6.905 -0.4909  0.4919 -1.4996
  116OSM    H2G12157   2.604   3.142   6.943  1.3231  0.8469 -0.8123
  116OSM    C3F12158   2.768   3.030   6.872  0.4292  1.0726 -0.1195
  116OSM    H3F12159   2.831   3.121   6.884 -0.2156  1.5599 -0.4026
  116OSM    H3G12160   2.803   2.984   6.777 -3.0633 -1.3143 -0.3236
  116OSM    C4F12161   2.802   2.931   6.990 -0.2296  0.0205 -0.6942
  116OSM    H4F12162   2.913   2.927   6.982 -0.2536  1.9129 -2.4190
  116OSM    H4G12163   2.760   2.830   6.977 -0.0580  0.0287 -1.3201
  116OSM    C5F12164   2.769   2.993   7.131 -0.4015  0.3012  0.2300
  116OSM    H5F12165   2.661   2.994   7.159 -0.7223 -0.7411 -0.9268
  116OSM    H5G12166   2.816   3.093   7.123  1.7960 -0.7748 -0.8356
  116OSM    C6F12167   2.840   2.926   7.251  0.0464 -0.9415  0.5861
  116OSM    H6F12168   2.947   2.904   7.234 -0.5964 -2.0448 -2.2089
  116OSM    H6G12169   2.793   2.827   7.270 -2.2038  0.0811  0.5708
  116OSM    C7F12170   2.827   3.024   7.370 -0.1583  0.0838 -0.7309
  116OSM    H7F12171   2.721   3.045   7.394  0.0842  2.0481 -1.2725
  116OSM    H7G12172   2.881   3.121   7.362  1.5233 -0.7780 -0.1411
  116OSM    C8F12173   2.891   2.968   7.493 -0.0346  0.0196  0.3430
  116OSM    H8F12174   2.890   3.043   7.575 -0.1525 -1.0134  1.3085
  116OSM    H8G12175   3.001   2.951   7.493 -0.0651 -0.3896  2.7713
  116OSM    C9F12176   2.832   2.839   7.546 -0.1979 -0.3562  1.1124
  116OSM    H9F12177   2.856   2.752   7.483  2.1664  0.9594  0.1121
  116OSM   C10F12178   2.770   2.805   7.665  0.4403  0.1544  0.2735
  116OSM   H10F12179   2.733   2.703   7.681  0.4493  0.5023  2.6747
  116OSM   C11F12180   2.733   2.891   7.776  0.4403  0.7097 -0.1518
  116OSM   H11F12181   2.625   2.917   7.768  0.6220  1.1963 -1.0768
  116OSM   H11G12182   2.778   2.992   7.762  0.3136  0.8547  0.4713
  116OSM   C12F12183   2.763   2.819   7.911 -0.0062  0.2628 -0.3838
  116OSM   H12F12184   2.873   2.809   7.921  0.6244  3.5046 -3.0533
  116OSM   H12G12185   2.710   2.721   7.912 -2.8043  1.7279 -0.8422
  116OSM   C13F12186   2.712   2.900   8.032  0.9418  0.1717 -0.0304
  116OSM   H13F12187   2.602   2.913   8.024  0.9594 -0.3330 -1.2060
  116OSM   H13G12188   2.766   2.997   8.028 -0.2342  0.8420  0.0830
  116OSM   C14F12189   2.752   2.858   8.170 -0.3670 -0.1542  0.5296
  116OSM   H14F12190   2.862   2.864   8.184 -0.5303 -0.0640  1.7700
  116OSM   H14G12191   2.717   2.752   8.178 -1.2287 -0.0699 -1.6929
  116OSM   C15F12192   2.692   2.949   8.285  0.0026 -0.5496  0.6796
  116OSM   H15F12193   2.583   2.945   8.269  0.2963 -0.8475 -1.4356
  116OSM   H15G12194   2.723   3.055   8.272 -1.3338  0.0133  2.0536
  116OSM   C16F12195   2.740   2.896   8.421  0.1902  0.3986 -0.3320
  116OSM   H16F12196   2.850   2.885   8.429 -0.0384  0.1391  2.7183
  116OSM   H16G12197   2.698   2.794   8.434  0.7235 -0.0232 -1.7424
  116OSM   C17F12198   2.705   2.988   8.538  0.3459 -0.4535 -0.6270
  116OSM   H17F12199   2.620   2.953   8.599  0.5815  0.3989  0.2005
  116OSM   H17G12200   2.677   3.088   8.498  1.3462  0.6169  1.3090
  116OSM   C18F12201   2.816   3.023   8.641  0.4521  0.8711  0.6552
  116OSM   H18F12202   2.891   3.092   8.599  0.8673 -0.4362 -0.7842
  116OSM   H18G12203   2.866   2.927   8.669  0.4645  1.4344  2.6354
  116OSM   H18H12204   2.760   3.074   8.723 -1.1275  1.0578 -0.5254
  117OSM      N12205   1.491   5.286   6.000  0.0636 -0.2653  0.2177
  117OSM    C1512206   1.522   5.366   5.881 -0.8158  0.0866  0.3392
  117OSM   H15A12207   1.481   5.466   5.874  2.2278  1.5146  1.9559
  117OSM   H15B12208   1.489   5.317   5.791  0.0250  0.3148 -0.0991
  117OSM   H15C12209   1.628   5.382   5.873 -0.5844 -0.1864  2.5031
  117OSM    C1412210   1.582   5.173   6.001 -0.3859  0.0458  0.4187
  117OSM   H14A12211   1.680   5.218   6.000 -0.4103  0.1306  1.5903
  117OSM   H14B12212   1.566   5.112   5.913 -0.5050 -0.8606  1.0600
  117OSM   H14C12213   1.575   5.117   6.093  1.2498 -1.5783 -0.4047
  117OSM    C1312214   1.527   5.375   6.119  0.5876  0.3029 -0.0831
  117OSM   H13A12215   1.633   5.397   6.115  0.6009 -0.0958 -3.9730
  117OSM   H13B12216   1.503   5.313   6.204 -0.3230 -0.6984 -1.0600
  117OSM   H13C12217   1.459   5.457   6.138  1.3048  0.8397  0.2245
  117OSM    C1212218   1.347   5.249   6.004  0.1529 -0.1953  0.4379
  117OSM   H12A12219   1.332   5.192   5.914  0.8619 -0.5826  0.5628
  117OSM   H12B12220   1.290   5.341   5.999  2.6291  1.3376 -0.2799
  117OSM    C1112221   1.298   5.162   6.125  0.2229  0.4197  0.2119
  117OSM   H11A12222   1.365   5.073   6.130  0.6997  0.6146 -2.4008
  117OSM   H11B12223   1.200   5.115   6.102  0.5791 -0.2843  0.1137
  117OSM      P12224   1.151   5.327   6.266 -0.1905  0.3447 -0.2224
  117OSM    O1312225   1.193   5.462   6.304 -0.1367  0.2277  0.4640
  117OSM    O1412226   1.052   5.308   6.158 -0.1256  0.1694  0.0903
  117OSM    O1112227   1.089   5.267   6.398 -0.0178 -0.1017 -0.1719
  117OSM    O1212228   1.284   5.239   6.245  0.1059 -0.5312 -0.3154
  117OSM    C1S12229   1.142   5.191   6.507 -0.1754 -0.5757 -0.0084
  117OSM    H1S12230   1.193   5.250   6.586 -2.0270  1.9976 -0.6602
  117OSM    H1T12231   1.204   5.104   6.478  0.0559  0.0216 -1.3288
  117OSM     NF12232   1.088   5.040   6.685 -0.5160  0.1404 -0.0707
  117OSM    HNF12233   1.088   4.941   6.672 -1.2096 -0.1816  2.2122
  117OSM    C2S12234   1.028   5.112   6.577 -0.1851 -0.1410 -0.7406
  117OSM    H2S12235   0.954   5.188   6.609 -0.0395 -0.5091  0.4780
  117OSM    C3S12236   0.962   5.015   6.472  0.2547  0.6050 -0.7926
  117OSM    H3S12237   1.040   4.947   6.432 -0.3069  0.3298 -1.4388
  117OSM     O312238   0.919   5.080   6.354 -0.3144  0.4518 -0.4601
  117OSM    HO312239   0.969   5.161   6.364 -2.2543  1.5148  0.7884
  117OSM    C4S12240   0.848   4.938   6.547 -0.2030  0.0910  0.4187
  117OSM    H4S12241   0.888   4.851   6.601 -2.8739 -1.7034 -0.4032
  117OSM    C5S12242   0.727   4.971   6.571  0.0791  0.1216  0.2628
  117OSM    H5S12243   0.681   5.056   6.519 -1.1638 -0.5381  0.2575
  117OSM    C6S12244   0.627   4.890   6.661 -0.3345  0.1646  1.0851
  117OSM    H6S12245   0.661   4.784   6.668  0.0763  0.2016 -0.1474
  117OSM    H6T12246   0.524   4.886   6.619 -0.4933  1.7270  1.2878
  117OSM    C7S12247   0.623   4.960   6.796 -0.7984 -0.1302  0.2031
  117OSM    H7S12248   0.581   5.063   6.800  0.2985  0.3231  0.1510
  117OSM    H7T12249   0.724   4.964   6.841 -0.2583  0.2984 -1.0355
  117OSM    C8S12250   0.543   4.871   6.900  0.1468 -0.1796  0.1498
  117OSM    H8S12251   0.585   4.770   6.915 -0.5635 -0.2815  1.5496
  117OSM    H8T12252   0.438   4.852   6.870 -0.4217  0.9416  1.3640
  117OSM    C9S12253   0.548   4.943   7.035 -0.1471  0.2120  0.1416
  117OSM    H9S12254   0.489   5.037   7.033 -4.2561 -2.2743 -0.8637
  117OSM    H9T12255   0.656   4.964   7.052 -0.1452  0.5332 -0.2513
  117OSM   C10S12256   0.498   4.849   7.139  0.0557  0.3647 -0.1660
  117OSM   H10S12257   0.549   4.751   7.130 -2.4419 -1.0757  0.9669
  117OSM   H10T12258   0.389   4.835   7.128 -0.0795  0.5456  0.8667
  117OSM   C11S12259   0.529   4.888   7.281  0.1151  0.2813  0.4801
  117OSM   H11S12260   0.459   4.974   7.297  0.3818  0.4518  0.7415
  117OSM   H11T12261   0.635   4.920   7.292  0.4811 -0.3162 -1.1581
  117OSM   C12S12262   0.503   4.773   7.376  0.4699 -0.2509 -0.0441
  117OSM   H12S12263   0.544   4.682   7.326 -1.1935  0.1226 -2.1897
  117OSM   H12T12264   0.398   4.738   7.365  1.0609 -1.2440 -3.0377
  117OSM   C13S12265   0.562   4.793   7.515  0.0054 -0.7668  0.4255
  117OSM   H13S12266   0.517   4.880   7.567 -3.0830 -1.7874 -0.4458
  117OSM   H13T12267   0.668   4.824   7.505  0.3952 -1.8571  1.0545
  117OSM   C14S12268   0.559   4.668   7.608  0.2543 -0.5961 -0.0751
  117OSM   H14S12269   0.585   4.579   7.546  1.2758 -0.5824  0.3322
  117OSM   H14T12270   0.453   4.660   7.640  0.6440  0.4911  1.5499
  117OSM   C15S12271   0.631   4.683   7.747  0.3199 -0.3349 -0.1792
  117OSM   H15S12272   0.621   4.784   7.792  1.2627 -0.5903  0.6353
  117OSM   H15T12273   0.739   4.666   7.729  0.1545  0.2507 -1.7891
  117OSM   C16S12274   0.582   4.574   7.843 -0.6890 -0.0571 -0.7254
  117OSM   H16S12275   0.574   4.482   7.781 -2.1794  1.4479 -2.8511
  117OSM   H16T12276   0.481   4.596   7.882 -0.1221  3.0331 -0.8542
  117OSM   C17S12277   0.679   4.535   7.954  0.1621  0.4905  0.0087
  117OSM   H17S12278   0.701   4.630   8.008 -1.2974  0.3290  0.9194
  117OSM   H17T12279   0.766   4.490   7.902  1.2172  1.8909  0.5112
  117OSM   C18S12280   0.614   4.438   8.052 -0.1159 -0.1143 -0.2034
  117OSM   H18S12281   0.558   4.352   8.010  0.2554 -1.0048  1.1179
  117OSM   H18T12282   0.544   4.490   8.120  1.1986  1.5448 -0.0785
  117OSM   H18U12283   0.695   4.418   8.125 -0.7194  2.9885  1.3968
  117OSM    C1F12284   1.127   5.093   6.801 -0.4037 -0.2526  1.3234
  117OSM     OF12285   1.099   5.211   6.820 -0.4792  0.0314 -0.5566
  117OSM    C2F12286   1.193   5.008   6.904 -0.0823  0.2769  0.8578
  117OSM    H2F12287   1.288   4.965   6.864 -0.4481 -0.6670  0.9761
  117OSM    H2G12288   1.129   4.918   6.918  0.7666 -0.4536  0.1312
  117OSM    C3F12289   1.218   5.090   7.032  0.3300  0.8328 -0.1823
  117OSM    H3F12290   1.129   5.133   7.082  0.7095 -0.8940  2.0721
  117OSM    H3G12291   1.290   5.174   7.020 -0.0124  0.7374 -3.0748
  117OSM    C4F12292   1.309   5.010   7.134 -0.0748 -0.4881  0.8945
  117OSM    H4F12293   1.410   4.987   7.093 -0.8427  0.7573 -1.7560
  117OSM    H4G12294   1.259   4.915   7.163 -1.2036  0.5174  2.2954
  117OSM    C5F12295   1.316   5.099   7.258 -0.6238  0.5147  0.2125
  117OSM    H5F12296   1.223   5.134   7.308 -1.6359 -1.9724  0.1214
  117OSM    H5G12297   1.381   5.187   7.238 -0.9492  0.8456  0.5885
  117OSM    C6F12298   1.400   5.025   7.365 -0.3184  0.2829  0.2011
  117OSM    H6F12299   1.495   4.991   7.319  1.7159  1.2146  3.5553
  117OSM    H6G12300   1.346   4.929   7.382 -1.3664  1.0727  1.4052
  117OSM    C7F12301   1.436   5.103   7.485  0.4720  0.0209 -0.5885
  117OSM    H7F12302   1.343   5.153   7.521  0.2930  0.2460 -1.3389
  117OSM    H7G12303   1.507   5.179   7.445 -1.6916  1.0535 -2.6574
  117OSM    C8F12304   1.509   5.020   7.591  0.1613  0.0224  0.2128
  117OSM    H8F12305   1.451   4.939   7.638  0.2014  0.3063  0.7505
  117OSM    H8G12306   1.528   5.097   7.669  3.1635  1.5389 -1.9056
  117OSM    C9F12307   1.644   4.964   7.547  0.0718  0.2159  0.2977
  117OSM    H9F12308   1.696   5.037   7.484 -2.4154  0.5897 -1.4119
  117OSM   C10F12309   1.694   4.842   7.563 -0.9883  0.1193 -0.7983
  117OSM   H10F12310   1.793   4.817   7.521 -1.8377  0.1891 -2.8820
  117OSM   C11F12311   1.634   4.733   7.635 -0.1044  0.4865  0.4273
  117OSM   H11F12312   1.667   4.634   7.598 -0.1701  0.3139  0.8342
  117OSM   H11G12313   1.524   4.745   7.625  0.0321  1.3748 -0.1355
  117OSM   C12F12314   1.674   4.725   7.786  0.3391 -1.0694  0.1393
  117OSM   H12F12315   1.686   4.824   7.834 -2.8616 -0.0468 -1.0513
  117OSM   H12G12316   1.778   4.688   7.791  0.3462 -1.2302 -0.9752
  117OSM   C13F12317   1.571   4.630   7.855  0.1851 -0.3659 -0.1037
  117OSM   H13F12318   1.586   4.530   7.809 -0.4705 -0.6985  0.4028
  117OSM   H13G12319   1.470   4.668   7.829  0.5509  1.2636  0.7876
  117OSM   C14F12320   1.601   4.606   8.002 -0.0159  0.6747  0.6817
  117OSM   H14F12321   1.572   4.698   8.056 -1.2197  1.2123 -0.8460
  117OSM   H14G12322   1.710   4.590   8.011 -0.0316  1.5416  2.6041
  117OSM   C15F12323   1.523   4.489   8.052 -0.5346 -0.1010 -0.2810
  117OSM   H15F12324   1.567   4.401   7.999 -1.2032 -1.2404  1.0353
  117OSM   H15G12325   1.423   4.494   8.005 -0.2861  1.3808 -0.6766
  117OSM   C16F12326   1.526   4.473   8.200 -0.7215  0.3358  0.0809
  117OSM   H16F12327   1.498   4.567   8.252  2.5738  0.9967  0.7843
  117OSM   H16G12328   1.627   4.455   8.243 -0.6203  0.2782 -0.1805
  117OSM   C17F12329   1.431   4.368   8.244  0.5568 -0.3768  0.1992
  117OSM   H17F12330   1.327   4.375   8.206  0.1232 -2.2067  1.0123
  117OSM   H17G12331   1.470   4.273   8.202 -0.0482 -0.3562 -0.4123
  117OSM   C18F12332   1.406   4.357   8.400  0.2915 -0.2562  0.0894
  117OSM   H18F12333   1.484   4.414   8.456  1.1953 -0.7148 -0.6796
  117OSM   H18G12334   1.406   4.252   8.435 -2.7180  0.0048  0.9471
  117OSM   H18H12335   1.317   4.409   8.441  1.5636  1.7639  0.3984
  118OSM      N12336   3.141   0.521   6.023 -0.6708  0.0389  0.5322
  118OSM    C1512337   3.187   0.375   6.009 -0.3884  0.1577  0.8807
  118OSM   H15A12338   3.291   0.377   5.980 -0.7632  2.6703 -0.4396
  118OSM   H15B12339   3.143   0.333   5.920 -0.2610  1.0800  0.3715
  118OSM   H15C12340   3.177   0.316   6.099  1.1612  2.7449  2.8283
  118OSM    C1412341   3.224   0.595   6.130  0.4718 -0.2112  0.3493
  118OSM   H14A12342   3.331   0.587   6.117  0.8604  0.6844  2.7959
  118OSM   H14B12343   3.188   0.556   6.224 -1.0286  0.4056  0.0465
  118OSM   H14C12344   3.190   0.698   6.129  0.0657 -0.3559 -0.8461
  118OSM    C1312345   3.163   0.589   5.894 -0.0116 -0.2015 -0.1311
  118OSM   H13A12346   3.121   0.688   5.904 -2.3610 -1.1149 -0.8270
  118OSM   H13B12347   3.114   0.539   5.812  0.2776 -0.0178 -0.4193
  118OSM   H13C12348   3.270   0.599   5.876  0.1386  0.6841  1.2004
  118OSM    C1212349   2.995   0.530   6.053  0.4715 -0.2318 -0.3301
  118OSM   H12A12350   2.936   0.486   5.973  0.4306  1.9244 -1.5160
  118OSM   H12B12351   2.957   0.629   6.071 -2.0493 -1.3280  0.5616
  118OSM    C1112352   2.949   0.455   6.184 -0.3302 -0.2346  0.3782
  118OSM   H11A12353   2.972   0.511   6.277 -1.9627 -0.1534  0.7531
  118OSM   H11B12354   2.997   0.355   6.190 -0.3884 -0.2818  0.0526
  118OSM      P12355   2.706   0.547   6.226  0.4368  0.1677  0.3607
  118OSM    O1312356   2.723   0.673   6.145  0.7078  0.0796  0.2865
  118OSM    O1412357   2.572   0.488   6.220  0.1793  0.2491  0.0279
  118OSM    O1112358   2.740   0.565   6.370  0.2117  0.0317 -0.6637
  118OSM    O1212359   2.807   0.436   6.161 -0.4049 -0.2684 -0.4564
  118OSM    C1S12360   2.745   0.461   6.467 -0.4235  0.0437 -0.9218
  118OSM    H1S12361   2.852   0.433   6.465 -0.7727 -1.4122 -0.0177
  118OSM    H1T12362   2.672   0.384   6.435  1.6904 -2.0087 -0.9598
  118OSM     NF12363   2.716   0.371   6.686  0.0673  0.1896  0.4608
  118OSM    HNF12364   2.629   0.327   6.706  0.3624 -0.2612  0.7724
  118OSM    C2S12365   2.701   0.497   6.613  0.3085 -0.0499  0.0143
  118OSM    H2S12366   2.768   0.572   6.660 -0.7428  0.2010  1.1545
  118OSM    C3S12367   2.556   0.555   6.612 -0.6624 -0.0326  0.3801
  118OSM    H3S12368   2.485   0.475   6.580 -2.8163  1.7768  0.5142
  118OSM     O312369   2.528   0.657   6.520 -0.0817  0.1757  0.2468
  118OSM    HO312370   2.597   0.640   6.456  1.9681 -0.5750  2.5393
  118OSM    C4S12371   2.519   0.588   6.759 -0.3495  0.1563  0.1786
  118OSM    H4S12372   2.473   0.505   6.814 -1.5118  0.3799 -0.4552
  118OSM    C5S12373   2.517   0.711   6.809  0.0937 -0.5773 -0.8748
  118OSM    H5S12374   2.523   0.790   6.732 -0.5635 -0.2523 -0.5967
  118OSM    C6S12375   2.474   0.760   6.949 -0.0127  0.4882  0.0893
  118OSM    H6S12376   2.382   0.819   6.931 -0.1008  0.5671  0.7705
  118OSM    H6T12377   2.546   0.829   6.998  0.2017 -1.6263  2.8873
  118OSM    C7S12378   2.440   0.650   7.060  0.0688 -0.0917 -0.0022
  118OSM    H7S12379   2.534   0.596   7.084  0.0750 -0.3165 -0.5193
  118OSM    H7T12380   2.368   0.575   7.019  0.7486 -0.8680  0.2011
  118OSM    C8S12381   2.395   0.724   7.181  0.0114  1.1926  0.0760
  118OSM    H8S12382   2.305   0.786   7.165  0.5439  1.9717  0.0810
  118OSM    H8T12383   2.476   0.797   7.202 -0.5688  2.2045 -1.1659
  118OSM    C9S12384   2.376   0.638   7.312  0.5007 -0.7095  0.3258
  118OSM    H9S12385   2.408   0.533   7.296 -2.7972 -2.0659  2.0718
  118OSM    H9T12386   2.267   0.620   7.310  0.1478  1.3979 -0.3058
  118OSM   C10S12387   2.414   0.700   7.446 -0.2149 -0.4435 -0.1680
  118OSM   H10S12388   2.369   0.800   7.464  1.2191  0.0965  0.4748
  118OSM   H10T12389   2.524   0.710   7.442 -0.2919  0.0295 -1.0329
  118OSM   C11S12390   2.379   0.607   7.555  0.4559  0.9300 -0.0659
  118OSM   H11S12391   2.436   0.513   7.536  1.0633  1.4414 -0.7646
  118OSM   H11T12392   2.269   0.591   7.557  0.5664  0.2396  2.5144
  118OSM   C12S12393   2.424   0.645   7.693  0.2657 -0.2170  0.0989
  118OSM   H12S12394   2.365   0.729   7.735 -2.7306 -2.1914 -0.0399
  118OSM   H12T12395   2.528   0.682   7.681  1.3024 -3.3451 -0.8895
  118OSM   C13S12396   2.419   0.530   7.789  0.3308 -0.1216 -0.0744
  118OSM   H13S12397   2.499   0.456   7.767  1.4223  0.7875  0.7587
  118OSM   H13T12398   2.318   0.483   7.791 -0.4125  1.4393  2.4467
  118OSM   C14S12399   2.433   0.586   7.937 -0.2444 -0.3054  0.2231
  118OSM   H14S12400   2.374   0.680   7.943  3.8657  2.3175  0.8951
  118OSM   H14T12401   2.534   0.623   7.962 -0.0678  0.5094 -1.6064
  118OSM   C15S12402   2.390   0.497   8.047 -0.4324  0.4917 -0.0127
  118OSM   H15S12403   2.448   0.402   8.039  2.0639  2.0693 -1.5224
  118OSM   H15T12404   2.284   0.483   8.018  0.0461 -1.8043 -0.7506
  118OSM   C16S12405   2.408   0.555   8.190  0.1752  0.0523 -0.1632
  118OSM   H16S12406   2.375   0.661   8.189  1.0706  0.3353 -0.2326
  118OSM   H16T12407   2.512   0.538   8.226  0.8764  2.3142 -1.0395
  118OSM   C17S12408   2.322   0.488   8.301 -0.1658  0.0530 -0.1536
  118OSM   H17S12409   2.288   0.386   8.273  0.6772 -0.3703  0.3549
  118OSM   H17T12410   2.229   0.547   8.319  0.0543  0.3290  0.0793
  118OSM   C18S12411   2.412   0.463   8.424  0.5190  0.0914  0.2236
  118OSM   H18S12412   2.447   0.566   8.448 -0.7009  0.5855 -0.0726
  118OSM   H18T12413   2.491   0.396   8.382 -0.2773 -0.4353 -0.4408
  118OSM   H18U12414   2.353   0.414   8.505  2.2856 -1.0527  0.8426
  118OSM    C1F12415   2.835   0.330   6.727  0.0237  0.3402 -0.5435
  118OSM     OF12416   2.930   0.399   6.719  0.2648  0.0667  0.6862
  118OSM    C2F12417   2.843   0.199   6.798  0.3559  0.5162  0.3881
  118OSM    H2F12418   2.865   0.107   6.739  0.0411  0.8393 -0.2450
  118OSM    H2G12419   2.746   0.199   6.850 -0.5005 -0.4355 -1.1666
  118OSM    C3F12420   2.948   0.198   6.908 -0.0911 -0.1849  0.6354
  118OSM    H3F12421   2.922   0.291   6.963 -1.1690 -0.0940 -0.0150
  118OSM    H3G12422   3.053   0.206   6.874 -0.2410 -2.0072 -0.3306
  118OSM    C4F12423   2.942   0.070   7.003  0.2698 -0.4442 -0.4283
  118OSM    H4F12424   2.971  -0.017   6.941  0.7069  0.2427 -1.1889
  118OSM    H4G12425   2.840   0.071   7.047  0.1061 -0.4830 -0.8056
  118OSM    C5F12426   3.049   0.084   7.114  0.5836  0.0138 -0.4437
  118OSM    H5F12427   3.020   0.156   7.193  1.1194  2.5293 -2.4698
  118OSM    H5G12428   3.142   0.129   7.073  0.1912  1.7179  0.5185
  118OSM    C6F12429   3.091  -0.042   7.194  0.3119 -0.1379 -0.0309
  118OSM    H6F12430   3.181  -0.028   7.257  0.3953 -0.5595 -0.0598
  118OSM    H6G12431   3.127  -0.115   7.119  0.5651  2.1523 -2.2274
  118OSM    C7F12432   2.973  -0.100   7.278  1.0576  0.2319  0.7864
  118OSM    H7F12433   3.017  -0.192   7.321 -1.9894 -1.4959  0.3023
  118OSM    H7G12434   2.892  -0.137   7.211 -0.0217  0.6141  1.8792
  118OSM    C8F12435   2.915   0.001   7.377  0.3502 -0.0435 -0.1717
  118OSM    H8F12436   2.865   0.086   7.325  0.0712 -0.4040 -0.4980
  118OSM    H8G12437   3.001   0.043   7.434  0.4077  0.4953 -0.6413
  118OSM    C9F12438   2.816  -0.081   7.457  0.8915 -0.3823 -0.3684
  118OSM    H9F12439   2.724  -0.098   7.401  0.4892 -0.8319  0.4161
  118OSM   C10F12440   2.810  -0.131   7.579 -0.0672 -0.1895  0.5426
  118OSM   H10F12441   2.713  -0.171   7.612 -0.8793  1.1859 -0.1628
  118OSM   C11F12442   2.916  -0.136   7.680  0.0043 -1.0949 -0.2402
  118OSM   H11F12443   3.009  -0.112   7.624  0.1847  0.1000  0.5392
  118OSM   H11G12444   2.938  -0.238   7.718 -0.3436 -1.6751 -1.5478
  118OSM   C12F12445   2.883  -0.030   7.787 -0.2026  0.9379  0.2418
  118OSM   H12F12446   2.853   0.069   7.745 -2.3087 -1.1832 -3.5783
  118OSM   H12G12447   2.973  -0.008   7.847 -0.3634  1.2893  0.3556
  118OSM   C13F12448   2.772  -0.075   7.896 -0.1571 -0.0543  0.4375
  118OSM   H13F12449   2.820  -0.160   7.948 -0.3302  0.3774  1.3162
  118OSM   H13G12450   2.688  -0.114   7.835  1.1993 -0.8702 -0.9313
  118OSM   C14F12451   2.743   0.029   8.003 -0.4050  0.5066  0.2561
  118OSM   H14F12452   2.696   0.120   7.960  1.1940  1.6575  0.8885
  118OSM   H14G12453   2.834   0.068   8.053 -0.1517  1.1706 -0.7001
  118OSM   C15F12454   2.634  -0.027   8.102  0.0395 -0.1873  1.0673
  118OSM   H15F12455   2.669  -0.129   8.131  0.4941 -0.7526 -1.3772
  118OSM   H15G12456   2.542  -0.044   8.041  0.6895  1.8690 -0.5123
  118OSM   C16F12457   2.628   0.049   8.231  0.4163  0.1230 -0.6481
  118OSM   H16F12458   2.603   0.154   8.204  0.4960  0.1060 -0.7889
  118OSM   H16G12459   2.729   0.053   8.277 -0.4082  0.8365  1.1530
  118OSM   C17F12460   2.527  -0.003   8.341  0.2492  0.2846 -0.3414
  118OSM   H17F12461   2.550  -0.111   8.342 -0.8534  0.0568  0.9408
  118OSM   H17G12462   2.423   0.005   8.301  0.2074 -0.2065 -0.3362
  118OSM   C18F12463   2.535   0.068   8.474 -0.4185 -0.1762  0.0632
  118OSM   H18F12464   2.633   0.119   8.486 -0.9280  1.4259 -2.2490
  118OSM   H18G12465   2.524  -0.013   8.550 -0.9058 -1.2970 -1.1734
  118OSM   H18H12466   2.452   0.141   8.474 -0.0540  0.2702 -1.6039
  119OSM      N12467   4.685   5.929   6.329  0.1691  0.0343  0.4713
  119OSM    C1512468   4.593   5.836   6.262  0.3502 -0.1560  0.3991
  119OSM   H15A12469   4.490   5.842   6.292 -0.1743 -0.4103 -1.2994
  119OSM   H15B12470   4.617   5.732   6.280  0.8866  0.0883  1.1052
  119OSM   H15C12471   4.603   5.853   6.155 -2.5048  0.4834  0.2070
  119OSM    C1412472   4.674   5.896   6.475 -0.2645  0.4414 -0.2712
  119OSM   H14A12473   4.583   5.936   6.516 -2.3729 -2.8321 -1.5372
  119OSM   H14B12474   4.759   5.929   6.532 -1.3402  0.2866  1.4589
  119OSM   H14C12475   4.662   5.789   6.487  0.8950  0.5752  2.5098
  119OSM    C1312476   4.822   5.918   6.272  0.1883  0.7108  0.0800
  119OSM   H13A12477   4.887   5.988   6.323  1.8040  0.4957 -1.6403
  119OSM   H13B12478   4.823   5.939   6.166  0.3102 -0.5979 -0.1765
  119OSM   H13C12479   4.866   5.820   6.275 -1.3520  0.0148 -0.1420
  119OSM    C1212480   4.636   6.075   6.310  0.1139 -0.4603  0.2669
  119OSM   H12A12481   4.702   6.139   6.367 -1.7775  0.7572  1.1436
  119OSM   H12B12482   4.539   6.078   6.358 -0.8497 -1.1438 -1.5617
  119OSM    C1112483   4.618   6.142   6.168  0.1407  0.1281  0.2340
  119OSM   H11A12484   4.715   6.128   6.116 -0.6015  0.2630 -1.2158
  119OSM   H11B12485   4.597   6.251   6.166  2.6508  0.6281 -0.9186
  119OSM      P12486   4.406   6.131   6.011 -0.0564  0.1728  0.0204
  119OSM    O1312487   4.444   6.251   5.940 -0.4862  0.1710  0.6350
  119OSM    O1412488   4.344   6.021   5.938  0.1258 -0.3380  0.5957
  119OSM    O1112489   4.300   6.176   6.124  0.6562 -0.2257  0.0321
  119OSM    O1212490   4.528   6.068   6.086 -0.2457  0.2035 -0.3164
  119OSM    C1S12491   4.271   6.095   6.230 -0.3058 -0.2019 -0.6997
  119OSM    H1S12492   4.353   6.024   6.256 -1.5820 -1.0443  1.1994
  119OSM    H1T12493   4.184   6.029   6.206  0.2727 -0.9010 -0.8827
  119OSM     NF12494   4.197   6.077   6.456 -0.2482  0.3333 -0.6265
  119OSM    HNF12495   4.106   6.035   6.452  0.4402 -1.0312 -1.9469
  119OSM    C2S12496   4.221   6.171   6.354  0.4470 -0.2321  0.3622
  119OSM    H2S12497   4.298   6.248   6.380  1.4220 -1.5065  1.3245
  119OSM    C3S12498   4.090   6.251   6.313 -0.0961  0.2980 -0.0304
  119OSM    H3S12499   4.011   6.175   6.295 -1.8469  1.5141  2.2861
  119OSM     O312500   4.092   6.319   6.185  0.0390 -0.6663  0.0042
  119OSM    HO312501   4.167   6.282   6.137  0.6564  0.8836 -0.2877
  119OSM    C4S12502   4.050   6.334   6.436  0.2714  0.4719 -0.0211
  119OSM    H4S12503   4.008   6.278   6.520 -1.0996 -0.7279 -1.4825
  119OSM    C5S12504   4.067   6.463   6.454  0.4987  0.1849 -0.0632
  119OSM    H5S12505   4.102   6.524   6.370  0.1907 -0.6437 -0.8047
  119OSM    C6S12506   4.025   6.544   6.578 -0.4684  0.0450 -0.0622
  119OSM    H6S12507   3.963   6.630   6.544 -1.2782 -1.2728 -1.9632
  119OSM    H6T12508   4.122   6.586   6.613  0.0654  0.5362 -2.0266
  119OSM    C7S12509   3.970   6.463   6.695 -0.1559  0.1906 -0.4416
  119OSM    H7S12510   4.045   6.383   6.703 -1.3718 -0.9310 -0.1120
  119OSM    H7T12511   3.868   6.423   6.674 -1.0886  1.9063  0.5847
  119OSM    C8S12512   3.968   6.536   6.837 -0.0928  0.2450  0.4542
  119OSM    H8S12513   3.889   6.613   6.830  1.4030  1.7971  0.3190
  119OSM    H8T12514   4.060   6.598   6.843 -0.3358  0.9505 -2.3032
  119OSM    C9S12515   3.952   6.445   6.963  0.4572 -0.8039  0.5689
  119OSM    H9S12516   4.038   6.376   6.976  1.6441  0.0576 -2.2763
  119OSM    H9T12517   3.856   6.391   6.945  0.0751  0.3203 -0.8681
  119OSM   C10S12518   3.944   6.533   7.097  0.2030  1.2302  0.0997
  119OSM   H10S12519   3.895   6.627   7.062 -0.0334  1.1358  0.1748
  119OSM   H10T12520   4.042   6.558   7.142  0.1634  1.6202 -0.0301
  119OSM   C11S12521   3.850   6.468   7.205  0.1270  0.7220 -0.8064
  119OSM   H11S12522   3.892   6.383   7.263 -0.4047  1.2907  0.4477
  119OSM   H11T12523   3.767   6.425   7.146  0.7458  1.1655 -2.0078
  119OSM   C12S12524   3.782   6.562   7.304 -0.7885  0.4353  1.0703
  119OSM   H12S12525   3.681   6.517   7.318  0.3534 -1.9428  1.9046
  119OSM   H12T12526   3.769   6.664   7.263  0.2446  0.0233 -0.3006
  119OSM   C13S12527   3.854   6.577   7.440 -0.6102  0.3263  1.1838
  119OSM   H13S12528   3.962   6.603   7.430 -0.5410  0.0601  1.2161
  119OSM   H13T12529   3.824   6.491   7.504 -3.4017  0.5492  0.2149
  119OSM   C14S12530   3.787   6.695   7.511  1.0445  0.2979 -0.1088
  119OSM   H14S12531   3.685   6.661   7.539  1.9020 -0.3420  2.4344
  119OSM   H14T12532   3.777   6.781   7.442 -2.0653  0.6430  0.6806
  119OSM   C15S12533   3.861   6.738   7.636 -0.5397  0.5899  0.2894
  119OSM   H15S12534   3.818   6.826   7.688  0.5710 -0.4166  2.9841
  119OSM   H15T12535   3.969   6.757   7.616 -0.4212  1.2050  1.4769
  119OSM   C16S12536   3.848   6.616   7.734 -0.3473 -0.7777 -0.5477
  119OSM   H16S12537   3.902   6.527   7.694  0.9941  0.1357 -0.7916
  119OSM   H16T12538   3.740   6.593   7.747 -0.9127  1.1197 -1.7372
  119OSM   C17S12539   3.922   6.647   7.863  0.3035  0.0744  0.1649
  119OSM   H17S12540   4.030   6.667   7.846  0.7898 -4.2610 -2.8095
  119OSM   H17T12541   3.924   6.550   7.918 -0.7687 -0.0610 -0.0154
  119OSM   C18S12542   3.848   6.745   7.949 -0.1167 -0.3621 -0.6390
  119OSM   H18S12543   3.915   6.829   7.977 -0.7731  0.3968 -1.3356
  119OSM   H18T12544   3.803   6.695   8.038 -1.7704 -0.6924 -1.6464
  119OSM   H18U12545   3.769   6.787   7.883 -1.8441  1.3856  2.4381
  119OSM    C1F12546   4.294   6.031   6.535  0.4424  0.2858  0.0703
  119OSM     OF12547   4.401   6.085   6.543  0.1959 -0.0009 -0.1287
  119OSM    C2F12548   4.266   5.901   6.603 -0.4254  0.2536  0.5271
  119OSM    H2F12549   4.283   5.831   6.519 -0.7459  1.2289 -0.3641
  119OSM    H2G12550   4.159   5.883   6.630  0.2530 -2.2696  1.6988
  119OSM    C3F12551   4.359   5.863   6.720  0.3832 -0.4403  0.1245
  119OSM    H3F12552   4.338   5.932   6.805 -0.7645  1.8859 -1.9895
  119OSM    H3G12553   4.468   5.879   6.704  0.9943 -2.4515  1.9557
  119OSM    C4F12554   4.349   5.722   6.781 -0.3125  0.1046  0.2497
  119OSM    H4F12555   4.341   5.653   6.694 -2.1357  0.6459 -0.0353
  119OSM    H4G12556   4.246   5.717   6.822 -0.6915 -1.1634 -0.8216
  119OSM    C5F12557   4.457   5.675   6.874 -0.4140  0.0610  0.3942
  119OSM    H5F12558   4.555   5.671   6.821 -1.1965 -1.4715 -0.9729
  119OSM    H5G12559   4.433   5.573   6.911 -1.9749 -1.6668 -4.8871
  119OSM    C6F12560   4.474   5.765   7.000  0.2896  0.5885 -0.6523
  119OSM    H6F12561   4.470   5.873   6.978 -1.3816  0.7633  0.4225
  119OSM    H6G12562   4.569   5.738   7.052 -1.5408 -1.5632  1.7570
  119OSM    C7F12563   4.370   5.726   7.104  0.1590 -0.0244  0.6275
  119OSM    H7F12564   4.368   5.616   7.120 -4.2193 -0.1294  0.0373
  119OSM    H7G12565   4.275   5.750   7.052  2.2501  1.3663 -2.7141
  119OSM    C8F12566   4.380   5.801   7.232 -0.5136  0.3290 -0.4091
  119OSM    H8F12567   4.287   5.791   7.292 -1.4373  2.1081 -1.5005
  119OSM    H8G12568   4.390   5.905   7.193 -0.3218  1.1217  1.7180
  119OSM    C9F12569   4.497   5.764   7.323  1.0489 -0.0484  0.2960
  119OSM    H9F12570   4.598   5.772   7.279  1.4788 -1.6350  0.9562
  119OSM   C10F12571   4.500   5.731   7.451 -0.4929  0.0279  0.1589
  119OSM   H10F12572   4.593   5.697   7.500  0.1657  0.7517 -0.5638
  119OSM   C11F12573   4.376   5.736   7.535 -0.5639  0.1636  0.1599
  119OSM   H11F12574   4.327   5.638   7.554 -2.1337  0.5706 -1.5544
  119OSM   H11G12575   4.288   5.797   7.504 -1.7744 -1.3169  0.6313
  119OSM   C12F12576   4.410   5.810   7.667 -0.4558  0.4297 -0.4828
  119OSM   H12F12577   4.448   5.911   7.641 -1.2792  0.3410 -2.0928
  119OSM   H12G12578   4.492   5.766   7.727 -2.5521 -1.2947  1.2134
  119OSM   C13F12579   4.292   5.807   7.762 -0.3771 -0.3950  0.0397
  119OSM   H13F12580   4.244   5.707   7.750 -1.5301  0.3683 -2.0957
  119OSM   H13G12581   4.229   5.891   7.725  0.9720  0.5234 -0.1975
  119OSM   C14F12582   4.305   5.831   7.907  0.1445  0.6246 -0.2934
  119OSM   H14F12583   4.210   5.883   7.930 -0.9870 -1.3445 -0.4319
  119OSM   H14G12584   4.388   5.905   7.917 -0.0967  0.7985  0.4799
  119OSM   C15F12585   4.313   5.709   8.000 -0.2548 -0.1202  0.5966
  119OSM   H15F12586   4.412   5.661   7.985  0.3787  1.6792 -1.2892
  119OSM   H15G12587   4.239   5.628   7.985  2.3871 -2.4278 -0.1809
  119OSM   C16F12588   4.319   5.747   8.149 -0.0347 -0.3178  0.7324
  119OSM   H16F12589   4.395   5.828   8.150  1.1725 -1.4322  0.9978
  119OSM   H16G12590   4.365   5.662   8.204  1.6950 -2.1662 -3.2952
  119OSM   C17F12591   4.178   5.787   8.199 -0.0764 -0.0607  0.5935
  119OSM   H17F12592   4.108   5.713   8.155  0.3439  0.3579 -0.8214
  119OSM   H17G12593   4.158   5.889   8.158 -0.9261  0.1113  1.4102
  119OSM   C18F12594   4.168   5.785   8.349  0.4585  0.3886  0.2411
  119OSM   H18F12595   4.066   5.820   8.375  0.5008 -0.0305  0.9919
  119OSM   H18G12596   4.231   5.867   8.391  2.3730 -1.0718  0.3158
  119OSM   H18H12597   4.190   5.683   8.387  0.9814  0.3287 -0.2183
  120OSM      N12598   2.092   3.859   6.310 -0.1329  0.4760  0.1208
  120OSM    C1512599   2.003   3.974   6.355 -0.2302 -0.1271 -0.2279
  120OSM   H15A12600   2.058   4.049   6.409  1.9834 -1.5160 -0.4989
  120OSM   H15B12601   1.921   3.940   6.416 -3.1235 -1.0729 -4.4234
  120OSM   H15C12602   1.958   4.020   6.268  1.9185  0.2505 -1.1799
  120OSM    C1412603   2.005   3.746   6.262  0.8023  0.4451 -0.1624
  120OSM   H14A12604   1.922   3.766   6.196  2.1666  3.2354 -1.1378
  120OSM   H14B12605   1.966   3.693   6.347  1.1169  1.7048  0.7838
  120OSM   H14C12606   2.067   3.668   6.220  0.6294 -0.0154  0.4316
  120OSM    C1312607   2.172   3.903   6.195 -0.5625  0.0837 -0.2336
  120OSM   H13A12608   2.242   3.822   6.183 -0.2867  0.1934  0.6138
  120OSM   H13B12609   2.229   3.989   6.228  0.4025 -0.7403  0.2749
  120OSM   H13C12610   2.114   3.928   6.107 -0.1809  2.8788  0.2587
  120OSM    C1212611   2.196   3.815   6.417 -0.0931  0.1690  0.3613
  120OSM   H12A12612   2.245   3.730   6.372 -0.5694 -1.3054  2.5715
  120OSM   H12B12613   2.133   3.783   6.498  2.4191  1.1435  2.7533
  120OSM    C1112614   2.297   3.920   6.473 -0.3545 -0.3993  0.2327
  120OSM   H11A12615   2.343   3.856   6.551 -0.3577 -2.9236 -1.7474
  120OSM   H11B12616   2.239   4.008   6.507  0.7299 -0.7052  2.9267
  120OSM      P12617   2.502   3.841   6.317  0.1380  0.0394  0.2663
  120OSM    O1312618   2.438   3.764   6.209  0.0309  0.5786  0.0542
  120OSM    O1412619   2.628   3.908   6.279  0.1205 -1.0026 -0.2513
  120OSM    O1112620   2.521   3.747   6.436 -0.0203  0.5185  0.0181
  120OSM    O1212621   2.396   3.947   6.371 -0.3409  0.5097 -0.1091
  120OSM    C1S12622   2.607   3.761   6.546  0.2978  0.2179 -0.0233
  120OSM    H1S12623   2.608   3.869   6.573  0.9551  0.3314 -0.4698
  120OSM    H1T12624   2.707   3.716   6.525  1.5754  2.5845  0.7306
  120OSM     NF12625   2.651   3.715   6.785 -0.4377 -1.0609 -0.4742
  120OSM    HNF12626   2.707   3.635   6.809 -1.5080 -1.5343  0.4727
  120OSM    C2S12627   2.550   3.701   6.683 -0.2172  0.6123  0.0247
  120OSM    H2S12628   2.464   3.766   6.712 -0.6582 -0.5843  1.4797
  120OSM    C3S12629   2.501   3.556   6.662  0.4362  0.0434 -0.2853
  120OSM    H3S12630   2.584   3.495   6.621  0.4431 -1.0068  1.2481
  120OSM     O312631   2.398   3.543   6.571  0.1492 -0.3176  0.0452
  120OSM    HO312632   2.411   3.614   6.508  0.4775 -1.3979 -1.1305
  120OSM    C4S12633   2.470   3.495   6.803 -0.2400 -0.5966  0.0193
  120OSM    H4S12634   2.536   3.411   6.830 -1.5614 -1.6249  0.0881
  120OSM    C5S12635   2.374   3.535   6.894 -0.2139 -0.2564  0.2864
  120OSM    H5S12636   2.311   3.624   6.875  1.9845  1.2431 -0.2230
  120OSM    C6S12637   2.365   3.475   7.035 -0.2956 -0.0976  0.1933
  120OSM    H6S12638   2.269   3.421   7.051 -2.8122  4.2158  0.3763
  120OSM    H6T12639   2.367   3.560   7.105 -1.3595 -0.0595  0.1867
  120OSM    C7S12640   2.475   3.380   7.069 -0.4495  0.1358  0.3584
  120OSM    H7S12641   2.575   3.427   7.058  0.3808 -2.0255 -1.7354
  120OSM    H7T12642   2.470   3.298   6.994 -0.3592 -0.2768  0.7981
  120OSM    C8S12643   2.470   3.316   7.208  0.3867  0.8912  0.3126
  120OSM    H8S12644   2.570   3.272   7.227  0.9495  1.7696 -0.5754
  120OSM    H8T12645   2.398   3.231   7.209  0.2700  0.9524 -1.9485
  120OSM    C9S12646   2.447   3.414   7.324  0.1661 -0.3592  0.7175
  120OSM    H9S12647   2.350   3.468   7.312  2.1826  3.5559  1.0224
  120OSM    H9T12648   2.525   3.494   7.329 -0.4726  0.3861 -1.0129
  120OSM   C10S12649   2.459   3.343   7.457 -0.3855  0.1633 -0.3990
  120OSM   H10S12650   2.557   3.291   7.464 -0.3893  0.1942 -0.1211
  120OSM   H10T12651   2.377   3.270   7.444 -0.6489  0.1524  1.1815
  120OSM   C11S12652   2.436   3.438   7.573 -0.4629 -0.1271 -0.6537
  120OSM   H11S12653   2.347   3.501   7.554  0.7121  1.8620  0.2526
  120OSM   H11T12654   2.522   3.506   7.589 -0.1839  0.3632 -3.9307
  120OSM   C12S12655   2.423   3.360   7.705 -0.4062 -0.0310  0.0474
  120OSM   H12S12656   2.526   3.342   7.743 -0.6239  0.4522  0.8812
  120OSM   H12T12657   2.359   3.271   7.689  0.1465 -0.5022  0.4068
  120OSM   C13S12658   2.346   3.444   7.805 -0.7321 -0.1810  0.1741
  120OSM   H13S12659   2.243   3.460   7.766 -0.7087 -0.8343 -0.1743
  120OSM   H13T12660   2.400   3.541   7.807 -0.1972 -0.4062 -1.7278
  120OSM   C14S12661   2.335   3.374   7.943  0.1209  0.5516  0.7129
  120OSM   H14S12662   2.300   3.272   7.919  1.5060  0.3249 -0.4446
  120OSM   H14T12663   2.258   3.426   8.003  0.2978 -0.1398  1.5520
  120OSM   C15S12664   2.474   3.382   8.014  0.4062 -1.1701 -0.2476
  120OSM   H15S12665   2.498   3.487   8.043  0.5281 -1.7155  1.6816
  120OSM   H15T12666   2.551   3.339   7.947  0.3540  1.1874 -1.9027
  120OSM   C16S12667   2.469   3.296   8.140 -0.5021 -0.3053 -0.4680
  120OSM   H16S12668   2.569   3.312   8.185 -0.9000  1.7468 -0.2753
  120OSM   H16T12669   2.467   3.188   8.112 -0.9119 -0.1424 -1.0797
  120OSM   C17S12670   2.349   3.326   8.232 -0.2127 -0.4065 -0.1315
  120OSM   H17S12671   2.271   3.253   8.201  2.6107 -3.3167 -0.7621
  120OSM   H17T12672   2.311   3.429   8.217 -0.0784 -0.2911  0.3067
  120OSM   C18S12673   2.376   3.307   8.378 -0.2556  0.0498 -0.1594
  120OSM   H18S12674   2.430   3.396   8.417 -3.1183  1.8704 -0.2293
  120OSM   H18T12675   2.432   3.214   8.401  1.4591  0.7024 -1.5711
  120OSM   H18U12676   2.282   3.300   8.437 -0.2057  3.0474  0.3692
  120OSM    C1F12677   2.682   3.834   6.838 -0.4075 -0.1128  0.4306
  120OSM     OF12678   2.629   3.937   6.802 -0.0953  0.0782  0.8532
  120OSM    C2F12679   2.783   3.835   6.950 -0.2584 -0.1512 -0.3446
  120OSM    H2F12680   2.866   3.909   6.948 -1.2887  1.0387  0.1582
  120OSM    H2G12681   2.815   3.730   6.960  0.1777  0.1266  1.4633
  120OSM    C3F12682   2.695   3.874   7.073  0.3987 -0.0184 -0.0593
  120OSM    H3F12683   2.602   3.812   7.077 -0.2698  1.0325  0.8576
  120OSM    H3G12684   2.661   3.979   7.064  1.6191  0.1984 -2.8076
  120OSM    C4F12685   2.765   3.850   7.209  0.5872  0.6499  0.0527
  120OSM    H4F12686   2.856   3.914   7.221  1.6754 -0.6075 -1.3687
  120OSM    H4G12687   2.799   3.745   7.220 -2.8098 -0.6949 -1.6899
  120OSM    C5F12688   2.677   3.874   7.332  0.0257  0.0293  0.4040
  120OSM    H5F12689   2.594   3.802   7.319  1.2224 -1.1602 -0.8285
  120OSM    H5G12690   2.624   3.969   7.310  1.8872  1.2256  0.9855
  120OSM    C6F12691   2.751   3.850   7.463 -1.1778 -0.5017  0.2134
  120OSM    H6F12692   2.844   3.910   7.460 -2.2258  1.2483  1.9098
  120OSM    H6G12693   2.790   3.747   7.475 -3.6361 -1.8312 -2.5381
  120OSM    C7F12694   2.661   3.897   7.579 -0.2625 -0.5218 -0.2512
  120OSM    H7F12695   2.569   3.835   7.585 -1.0304  0.7956  1.9731
  120OSM    H7G12696   2.634   4.002   7.558  1.9397  0.2098  0.4347
  120OSM    C8F12697   2.736   3.892   7.715  0.0627 -0.2563  0.4455
  120OSM    H8F12698   2.822   3.959   7.694 -1.0542  0.5289 -1.9140
  120OSM    H8G12699   2.774   3.789   7.734  1.2232 -0.1527 -1.1899
  120OSM    C9F12700   2.657   3.940   7.827 -0.4406  0.6034  0.0444
  120OSM    H9F12701   2.582   4.018   7.806 -2.7177 -1.1658  1.4268
  120OSM   C10F12702   2.665   3.891   7.951  0.6624 -0.0442  0.5671
  120OSM   H10F12703   2.584   3.915   8.021 -1.2628 -2.2150 -0.8840
  120OSM   C11F12704   2.760   3.789   8.013  0.6250  0.4421 -0.3679
  120OSM   H11F12705   2.855   3.836   8.047  0.2573  0.2212  0.9828
  120OSM   H11G12706   2.798   3.720   7.934 -0.4733 -0.9195  0.2820
  120OSM   C12F12707   2.693   3.706   8.124 -0.0920 -0.0259 -0.2371
  120OSM   H12F12708   2.752   3.613   8.137 -0.1814  0.1239  1.4682
  120OSM   H12G12709   2.586   3.679   8.109 -0.6602  1.6604  0.5951
  120OSM   C13F12710   2.697   3.792   8.258  0.2543  0.0039 -0.3841
  120OSM   H13F12711   2.653   3.892   8.238  1.3375  0.7258  0.8510
  120OSM   H13G12712   2.804   3.814   8.277  0.9965 -2.9406 -0.8334
  120OSM   C14F12713   2.634   3.735   8.375 -0.3608  0.0101  0.1538
  120OSM   H14F12714   2.530   3.705   8.349  0.2303 -0.0399 -2.2930
  120OSM   H14G12715   2.628   3.806   8.459 -0.9016  0.8038 -0.5506
  120OSM   C15F12716   2.705   3.608   8.420 -0.3501 -0.1948 -0.0434
  120OSM   H15F12717   2.812   3.622   8.391  0.1135  1.2194  2.1821
  120OSM   H15G12718   2.656   3.530   8.358  0.3993 -1.2940  0.7251
  120OSM   C16F12719   2.696   3.586   8.572 -0.1118  0.4535 -0.0632
  120OSM   H16F12720   2.597   3.584   8.623  1.3243  1.7348  2.9451
  120OSM   H16G12721   2.740   3.672   8.627 -1.4405 -0.3314  2.3061
  120OSM   C17F12722   2.764   3.451   8.617  0.5688  0.3970 -0.0930
  120OSM   H17F12723   2.871   3.473   8.633  0.9522 -0.3291 -1.6131
  120OSM   H17G12724   2.752   3.381   8.533 -5.3650  1.8837 -0.7242
  120OSM   C18F12725   2.714   3.388   8.742  0.0196  0.9018  0.3520
  120OSM   H18F12726   2.725   3.464   8.823  0.1036  0.1848  1.0275
  120OSM   H18G12727   2.775   3.303   8.779 -1.0605 -0.3232 -0.6648
  120OSM   H18H12728   2.616   3.338   8.727  0.6608  0.0047 -0.9619
  121OSM      N12729   3.697   6.121   6.076  0.2524  0.0746 -0.3143
  121OSM    C1512730   3.841   6.068   6.055  0.2904  0.3411 -0.4809
  121OSM   H15A12731   3.839   5.962   6.077 -0.6803  0.1388 -1.4689
  121OSM   H15B12732   3.917   6.113   6.117  0.3040 -1.9762  1.2675
  121OSM   H15C12733   3.880   6.082   5.955  0.2287 -0.9990 -0.7030
  121OSM    C1412734   3.697   6.273   6.060 -0.7158 -0.1962  0.7406
  121OSM   H14A12735   3.727   6.301   5.960  2.3502  0.5535  1.8244
  121OSM   H14B12736   3.759   6.332   6.126 -0.3032 -1.0957  1.1685
  121OSM   H14C12737   3.596   6.310   6.074 -1.5375 -1.8084 -0.7923
  121OSM    C1312738   3.600   6.063   5.983 -0.5967  0.2523  0.8231
  121OSM   H13A12739   3.644   6.079   5.886  0.9889 -0.7891  1.3412
  121OSM   H13B12740   3.502   6.105   6.000 -0.8503 -0.3170  0.7676
  121OSM   H13C12741   3.599   5.956   5.999  1.4965  0.0136 -0.4561
  121OSM    C1212742   3.645   6.098   6.220 -0.1403  0.1507 -0.4480
  121OSM   H12A12743   3.549   6.148   6.229  0.3332  0.9930  0.0404
  121OSM   H12B12744   3.702   6.156   6.291  2.9066 -2.6909 -0.4955
  121OSM    C1112745   3.645   5.957   6.260  0.0732 -0.1976 -1.1135
  121OSM   H11A12746   3.602   5.950   6.362  1.2343 -0.3273 -0.6341
  121OSM   H11B12747   3.749   5.919   6.272  0.2218 -0.0112 -1.7841
  121OSM      P12748   3.457   5.771   6.211 -0.3836  0.1966  0.3482
  121OSM    O1312749   3.327   5.838   6.197 -0.6910 -0.4713  0.0744
  121OSM    O1412750   3.476   5.642   6.141  0.1766  0.2816  0.8286
  121OSM    O1112751   3.474   5.748   6.361 -0.2585  0.3887 -0.0566
  121OSM    O1212752   3.580   5.863   6.173 -0.1497  0.1722  0.5421
  121OSM    C1S12753   3.588   5.673   6.405  0.2133 -0.2524  0.0795
  121OSM    H1S12754   3.682   5.731   6.396  1.0433 -1.3853  1.4288
  121OSM    H1T12755   3.601   5.583   6.341  4.0879 -0.2958  0.7938
  121OSM     NF12756   3.689   5.548   6.579  0.1885  0.2077 -0.1357
  121OSM    HNF12757   3.692   5.449   6.576  0.9542  0.1989  0.6161
  121OSM    C2S12758   3.573   5.625   6.551 -0.0804  0.1392  0.1048
  121OSM    H2S12759   3.567   5.711   6.620  0.5160 -0.9436  1.5413
  121OSM    C3S12760   3.431   5.552   6.577 -0.0808 -0.1830 -0.5044
  121OSM    H3S12761   3.426   5.461   6.513 -0.2757 -0.4231 -0.1475
  121OSM     O312762   3.316   5.633   6.546 -0.2033  0.4231 -0.4872
  121OSM    HO312763   3.354   5.702   6.492  0.6470 -1.0265 -1.7913
  121OSM    C4S12764   3.439   5.512   6.725  0.3521  0.2745 -0.2111
  121OSM    H4S12765   3.458   5.405   6.737 -2.3756  0.0849  3.3406
  121OSM    C5S12766   3.417   5.598   6.825  0.0873 -0.2673 -0.8167
  121OSM    H5S12767   3.380   5.701   6.809  2.0984  0.7613  0.8278
  121OSM    C6S12768   3.433   5.561   6.964  0.7502 -0.6682  0.5747
  121OSM    H6S12769   3.459   5.453   6.973  0.7902 -0.4245  4.1174
  121OSM    H6T12770   3.338   5.567   7.022  1.1958  2.3505  1.0780
  121OSM    C7S12771   3.527   5.651   7.036 -0.5287 -0.7866 -0.0012
  121OSM    H7S12772   3.628   5.633   6.994 -0.6047  0.6741 -0.8463
  121OSM    H7T12773   3.528   5.619   7.143 -2.3664 -0.8427  0.0226
  121OSM    C8S12774   3.515   5.811   7.018  0.1617  0.2676  0.9474
  121OSM    H8S12775   3.410   5.844   7.034  0.3480  0.8299  1.0438
  121OSM    H8T12776   3.544   5.830   6.913  0.2495  0.9028  1.0790
  121OSM    C9S12777   3.611   5.902   7.098 -0.3648 -0.5073 -0.9339
  121OSM    H9S12778   3.716   5.894   7.063  0.5718 -0.4274  1.6854
  121OSM    H9T12779   3.612   5.861   7.202 -2.2315 -0.9608 -1.0770
  121OSM   C10S12780   3.562   6.052   7.100  0.1101  0.0632  0.4461
  121OSM   H10S12781   3.452   6.064   7.106  0.2121  1.3419 -0.0579
  121OSM   H10T12782   3.590   6.105   7.006 -0.4624 -0.0205  0.2247
  121OSM   C11S12783   3.630   6.140   7.202  0.2218  0.0275 -0.0687
  121OSM   H11S12784   3.611   6.244   7.168 -1.1657  0.0104  0.6350
  121OSM   H11T12785   3.740   6.129   7.194  0.2083 -0.2630  0.1348
  121OSM   C12S12786   3.579   6.114   7.349 -0.6967  0.3768  0.3637
  121OSM   H12S12787   3.615   6.017   7.389  0.0691  1.0083  1.2379
  121OSM   H12T12788   3.469   6.123   7.356 -0.9540 -0.2616 -2.5335
  121OSM   C13S12789   3.630   6.214   7.450  0.1990  0.2300 -0.2504
  121OSM   H13S12790   3.586   6.316   7.436  0.3888  0.5637  1.4675
  121OSM   H13T12791   3.740   6.221   7.440  0.2005  0.1102 -0.3231
  121OSM   C14S12792   3.588   6.185   7.593  0.1886 -0.7311  0.6036
  121OSM   H14S12793   3.627   6.083   7.611  2.3377 -0.1800 -0.8315
  121OSM   H14T12794   3.477   6.197   7.588  0.3976  1.8929  1.4693
  121OSM   C15S12795   3.660   6.274   7.698  0.3915 -0.3241  0.7260
  121OSM   H15S12796   3.616   6.376   7.687  1.7599  0.1574 -0.5451
  121OSM   H15T12797   3.770   6.281   7.689  0.2856 -0.2470 -0.5852
  121OSM   C16S12798   3.613   6.234   7.842 -0.2298  0.2690 -0.3181
  121OSM   H16S12799   3.690   6.165   7.882 -1.2468 -0.4904  0.3271
  121OSM   H16T12800   3.520   6.174   7.835  0.0308 -0.1456 -0.2297
  121OSM   C17S12801   3.601   6.352   7.945  0.9263  0.2253 -0.2056
  121OSM   H17S12802   3.515   6.414   7.910  0.7244  1.3714  2.2256
  121OSM   H17T12803   3.694   6.412   7.932  0.6263  0.5765 -0.7721
  121OSM   C18S12804   3.589   6.305   8.083 -0.4644  0.5528 -0.8739
  121OSM   H18S12805   3.677   6.239   8.099 -0.6765  0.7694  1.4236
  121OSM   H18T12806   3.498   6.242   8.092  0.6169 -0.8467  0.6519
  121OSM   H18U12807   3.597   6.390   8.154  1.2444 -0.3445  0.0438
  121OSM    C1F12808   3.806   5.605   6.591 -1.0974 -0.0258 -0.4358
  121OSM     OF12809   3.832   5.723   6.572 -0.0792 -0.6983  0.4533
  121OSM    C2F12810   3.923   5.506   6.628  0.7603 -0.2041  0.2129
  121OSM    H2F12811   3.992   5.500   6.541  1.1722 -1.3111  0.6058
  121OSM    H2G12812   3.884   5.404   6.647  0.2913 -0.1453 -0.4223
  121OSM    C3F12813   4.001   5.551   6.759 -0.2144  0.5074 -0.6033
  121OSM    H3F12814   4.050   5.647   6.730  0.5019  1.0144  2.1104
  121OSM    H3G12815   4.076   5.469   6.766 -1.7287 -1.2173 -3.5754
  121OSM    C4F12816   3.912   5.570   6.883 -0.3947  0.1716 -0.1574
  121OSM    H4F12817   3.845   5.484   6.903 -2.0062  1.6687  1.0310
  121OSM    H4G12818   3.848   5.659   6.866 -0.3015  0.4945  1.1211
  121OSM    C5F12819   3.994   5.606   7.013 -0.5370  0.1266 -0.6055
  121OSM    H5F12820   4.028   5.712   7.018  0.4282 -0.2814  1.6602
  121OSM    H5G12821   4.085   5.543   7.023  1.1848  2.6710  0.3207
  121OSM    C6F12822   3.916   5.598   7.143 -0.5094  0.0184 -0.4716
  121OSM    H6F12823   3.877   5.497   7.167  2.9187 -1.5804 -1.4138
  121OSM    H6G12824   3.830   5.665   7.119  0.2990  1.8816  1.6715
  121OSM    C7F12825   3.991   5.662   7.260  0.4683 -0.0714  0.3776
  121OSM    H7F12826   4.017   5.768   7.241 -1.4877  0.3875  0.0827
  121OSM    H7G12827   4.088   5.615   7.288  0.7584 -0.4421 -1.2180
  121OSM    C8F12828   3.909   5.660   7.386  0.4810  0.1362 -0.3011
  121OSM    H8F12829   3.877   5.557   7.411  1.9052 -0.3486 -0.4517
  121OSM    H8G12830   3.821   5.718   7.351 -0.2532 -0.4087  0.6195
  121OSM    C9F12831   3.972   5.722   7.507 -0.1715  0.4462  0.0556
  121OSM    H9F12832   4.081   5.718   7.505 -0.2241 -0.9365 -0.6273
  121OSM   C10F12833   3.908   5.779   7.614  0.0857  0.3292  0.0756
  121OSM   H10F12834   3.972   5.833   7.686  0.5845 -1.0635  0.6981
  121OSM   C11F12835   3.757   5.789   7.632  0.0828 -0.2572  0.1524
  121OSM   H11F12836   3.705   5.698   7.596 -2.0616  1.2266 -0.6147
  121OSM   H11G12837   3.708   5.866   7.568 -0.1594  0.7985  1.5567
  121OSM   C12F12838   3.723   5.807   7.789 -0.3630 -0.4650  0.7341
  121OSM   H12F12839   3.762   5.907   7.817 -1.9591  0.7446 -1.2528
  121OSM   H12G12840   3.794   5.736   7.836 -0.9932 -1.6602 -0.0712
  121OSM   C13F12841   3.580   5.792   7.824  1.0078  0.7284  0.3350
  121OSM   H13F12842   3.533   5.698   7.787 -1.6176  2.2163 -0.2775
  121OSM   H13G12843   3.520   5.875   7.780  1.3511  2.0581  2.3398
  121OSM   C14F12844   3.565   5.799   7.977  0.1822  0.8419 -0.6219
  121OSM   H14F12845   3.455   5.814   7.988  0.0952 -0.2951  0.1725
  121OSM   H14G12846   3.620   5.888   8.016  2.3852 -0.4126 -0.7995
  121OSM   C15F12847   3.610   5.673   8.046  0.3530  0.0499 -0.0171
  121OSM   H15F12848   3.625   5.716   8.147 -0.4326 -0.0165  0.1342
  121OSM   H15G12849   3.713   5.644   8.017  0.2033 -1.2819  0.7389
  121OSM   C16F12850   3.523   5.554   8.050 -0.2244  0.0678  0.3493
  121OSM   H16F12851   3.504   5.510   7.950 -0.3228 -0.2547  0.5057
  121OSM   H16G12852   3.417   5.574   8.078 -0.0843 -0.1486  1.0623
  121OSM   C17F12853   3.549   5.454   8.163  0.2532 -0.1549 -0.1930
  121OSM   H17F12854   3.635   5.390   8.134  1.2158  0.1988  1.8444
  121OSM   H17G12855   3.481   5.366   8.174 -0.3516  0.3841  0.4002
  121OSM   C18F12856   3.578   5.508   8.299  0.0222 -0.6669  0.1593
  121OSM   H18F12857   3.591   5.435   8.382 -1.0846 -0.5526  0.4392
  121OSM   H18G12858   3.493   5.573   8.329 -1.1604 -1.4913 -1.3951
  121OSM   H18H12859   3.677   5.559   8.289 -1.4627  1.8460 -2.2755
  122OSM      N12860   2.584   1.111   5.655 -0.6590  0.3023  0.0970
  122OSM    C1512861   2.564   1.254   5.689 -0.9292 -0.0938 -0.3773
  122OSM   H15A12862   2.473   1.277   5.743 -0.1168  0.1885  0.8803
  122OSM   H15B12863   2.566   1.318   5.602 -2.4539  0.1386 -0.2578
  122OSM   H15C12864   2.641   1.282   5.759 -1.3066 -1.9715  0.8326
  122OSM    C1412865   2.476   1.083   5.545 -0.9798  0.0274  0.5137
  122OSM   H14A12866   2.375   1.104   5.577 -1.2151  0.6636 -0.6347
  122OSM   H14B12867   2.471   0.980   5.512 -0.5772 -0.0613  0.7301
  122OSM   H14C12868   2.502   1.144   5.460 -0.3495  0.6062  1.1110
  122OSM    C1312869   2.722   1.082   5.604 -0.4550  0.6840 -0.0987
  122OSM   H13A12870   2.754   1.138   5.517 -2.9628 -0.4410 -1.8116
  122OSM   H13B12871   2.722   0.980   5.566 -1.4241  0.5971  0.1070
  122OSM   H13C12872   2.794   1.076   5.684  1.8507  0.8120 -2.1289
  122OSM    C1212873   2.549   1.040   5.787 -0.6317 -0.6575 -0.7345
  122OSM   H12A12874   2.582   0.938   5.776  1.1081 -0.1504 -0.2753
  122OSM   H12B12875   2.441   1.039   5.798 -0.9283 -0.1265 -3.3282
  122OSM    C1112876   2.624   1.087   5.913  0.2948 -0.7893  0.0843
  122OSM   H11A12877   2.599   1.013   5.992 -2.2791  1.0407  1.0256
  122OSM   H11B12878   2.587   1.185   5.948  0.3035 -0.5915 -0.4515
  122OSM      P12879   2.861   1.154   5.982 -0.3171  0.2351 -0.2243
  122OSM    O1312880   2.986   1.075   5.997  0.4475 -0.4578  0.0852
  122OSM    O1412881   2.874   1.297   5.938  0.3023 -0.0570  0.3244
  122OSM    O1112882   2.790   1.150   6.121 -0.0584 -0.0880 -0.1251
  122OSM    O1212883   2.764   1.070   5.892  0.0392  0.3916 -0.1523
  122OSM    C1S12884   2.793   1.035   6.208 -0.4289  0.6546 -0.7893
  122OSM    H1S12885   2.899   1.021   6.238 -0.8595  0.2246  0.6043
  122OSM    H1T12886   2.758   0.945   6.154  1.0227 -0.6721  0.4126
  122OSM     NF12887   2.748   0.924   6.430 -0.7661  0.5095 -0.0150
  122OSM    HNF12888   2.696   0.838   6.425  1.5592 -0.9720  0.5277
  122OSM    C2S12889   2.704   1.038   6.344 -0.0788 -0.4025  0.3863
  122OSM    H2S12890   2.729   1.132   6.396 -4.0450 -0.3999  2.4495
  122OSM    C3S12891   2.557   1.040   6.312  0.1282 -0.1083  0.4693
  122OSM    H3S12892   2.543   0.952   6.246  0.4174 -0.4516  0.8686
  122OSM     O312893   2.528   1.157   6.232 -0.3850 -0.1817  0.1248
  122OSM    HO312894   2.614   1.193   6.209  0.3525 -0.9131  1.6818
  122OSM    C4S12895   2.470   1.035   6.435  0.0275  0.4273 -0.7133
  122OSM    H4S12896   2.461   1.117   6.508 -0.9520 -0.9508  0.7630
  122OSM    C5S12897   2.389   0.928   6.460  0.4344  1.0853 -0.3971
  122OSM    H5S12898   2.398   0.835   6.401 -2.6702 -0.2741  1.1464
  122OSM    C6S12899   2.306   0.921   6.586 -0.4308 -0.1376 -0.2757
  122OSM    H6S12900   2.312   0.814   6.616  0.6394  0.3331  1.2978
  122OSM    H6T12901   2.198   0.939   6.567 -0.3871  1.5262  0.9542
  122OSM    C7S12902   2.326   1.013   6.710  0.6464  0.1587  0.3226
  122OSM    H7S12903   2.321   1.119   6.677  2.7622  1.1739  2.9823
  122OSM    H7T12904   2.427   0.995   6.755  0.8454 -0.1450 -0.2349
  122OSM    C8S12905   2.214   0.985   6.813  0.5727 -0.2431 -0.2508
  122OSM    H8S12906   2.211   0.878   6.844 -0.7292 -0.0418  0.3736
  122OSM    H8T12907   2.119   1.014   6.763  0.8709 -2.0343 -1.9318
  122OSM    C9S12908   2.231   1.063   6.946 -0.0011  0.4794  0.2499
  122OSM    H9S12909   2.205   1.171   6.942  0.1130  0.6187  2.3878
  122OSM    H9T12910   2.334   1.057   6.988 -0.3788  1.8171  1.3929
  122OSM   C10S12911   2.139   0.994   7.062 -0.5241  0.4836 -0.3441
  122OSM   H10S12912   2.136   0.885   7.039 -1.5929  0.5334 -0.4930
  122OSM   H10T12913   2.031   1.012   7.041 -0.2280  1.9988 -0.6122
  122OSM   C11S12914   2.180   1.030   7.201 -0.3375  0.2469  0.5053
  122OSM   H11S12915   2.181   1.136   7.235  0.7267  0.3395  0.1997
  122OSM   H11T12916   2.286   0.997   7.207 -0.1945  0.1151 -1.9625
  122OSM   C12S12917   2.101   0.960   7.316 -0.8656  0.1667 -0.4078
  122OSM   H12S12918   2.121   0.853   7.296  3.3471  0.3824  2.0406
  122OSM   H12T12919   1.991   0.967   7.299 -1.2502  0.0179  1.9152
  122OSM   C13S12920   2.144   0.980   7.457  1.0369 -0.4965  0.1705
  122OSM   H13S12921   2.106   1.078   7.495 -0.1451  0.6366 -3.7142
  122OSM   H13T12922   2.254   0.987   7.468  0.7069  0.2653  3.8536
  122OSM   C14S12923   2.088   0.866   7.541 -0.6870 -0.5488 -0.2999
  122OSM   H14S12924   2.128   0.773   7.494  0.6280  0.4481 -1.2057
  122OSM   H14T12925   1.980   0.875   7.519 -0.3411  1.2819 -1.3733
  122OSM   C15S12926   2.137   0.865   7.685 -0.1668  0.3809 -0.3570
  122OSM   H15S12927   2.236   0.914   7.702 -0.9371  1.6143  0.7150
  122OSM   H15T12928   2.136   0.764   7.733  2.5736  0.4197 -0.1095
  122OSM   C16S12929   2.040   0.947   7.776  0.0274  0.4974 -0.2531
  122OSM   H16S12930   1.942   0.898   7.796  0.3644 -0.1827 -0.2375
  122OSM   H16T12931   2.011   1.042   7.727  1.5699 -0.1099 -2.3993
  122OSM   C17S12932   2.111   0.983   7.908 -0.1851 -0.7206  0.2205
  122OSM   H17S12933   2.210   1.031   7.890 -1.4892  1.8351 -0.3849
  122OSM   H17T12934   2.117   0.893   7.973  1.4829 -1.0668 -0.3722
  122OSM   C18S12935   2.039   1.081   7.994 -0.3345 -0.3488  0.5501
  122OSM   H18S12936   2.020   1.170   7.931  1.5332 -1.3558 -1.4752
  122OSM   H18T12937   2.106   1.113   8.077  2.2394 -2.7065 -0.5619
  122OSM   H18U12938   1.937   1.054   8.029 -1.4629  1.6697 -1.0510
  122OSM    C1F12939   2.858   0.924   6.499  0.1508 -0.7103 -0.0196
  122OSM     OF12940   2.932   1.018   6.487  0.1910 -1.1111 -0.5492
  122OSM    C2F12941   2.876   0.809   6.588  0.4765 -0.2772  0.4293
  122OSM    H2F12942   2.871   0.711   6.535 -0.0435 -0.2088  0.3425
  122OSM    H2G12943   2.783   0.803   6.648  0.1359  0.2972 -0.0343
  122OSM    C3F12944   2.991   0.825   6.686  0.3908 -0.2401  0.1693
  122OSM    H3F12945   2.984   0.930   6.722  1.3239 -0.5488  1.2620
  122OSM    H3G12946   3.088   0.804   6.636 -0.0429 -0.4448 -0.5840
  122OSM    C4F12947   2.977   0.730   6.802  0.6031 -0.0154 -0.0980
  122OSM    H4F12948   3.081   0.718   6.838  0.1183 -0.1328  1.2889
  122OSM    H4G12949   2.948   0.632   6.758  0.4515  0.5379 -1.2669
  122OSM    C5F12950   2.883   0.771   6.919 -0.2202 -0.3254 -1.2463
  122OSM    H5F12951   2.788   0.816   6.881 -0.1767  2.9384  2.2178
  122OSM    H5G12952   2.932   0.858   6.967  2.2580 -0.4997 -3.3517
  122OSM    C6F12953   2.855   0.657   7.022  0.1836 -0.2743  0.0117
  122OSM    H6F12954   2.954   0.611   7.037  0.3331 -0.5447 -1.7218
  122OSM    H6G12955   2.788   0.576   6.985  1.8852 -1.0867 -1.3565
  122OSM    C7F12956   2.793   0.716   7.153  0.8343 -0.1029  0.8297
  122OSM    H7F12957   2.694   0.763   7.132  2.0710  2.4222  0.4445
  122OSM    H7G12958   2.860   0.796   7.192  0.2217  0.0318  1.6261
  122OSM    C8F12959   2.772   0.609   7.260 -1.1927  0.0845 -0.0475
  122OSM    H8F12960   2.701   0.538   7.212  1.3014 -1.7563 -1.0803
  122OSM    H8G12961   2.719   0.652   7.348  0.1061 -1.2568  1.4155
  122OSM    C9F12962   2.903   0.548   7.313  0.4496  0.4669 -0.8226
  122OSM    H9F12963   2.985   0.546   7.239  0.6186 -0.4202 -0.6231
  122OSM   C10F12964   2.916   0.478   7.424  0.2488 -0.3573  0.3875
  122OSM   H10F12965   3.016   0.438   7.444  0.6755  1.1190  1.3123
  122OSM   C11F12966   2.816   0.468   7.531  0.1508 -0.1909 -0.2087
  122OSM   H11F12967   2.787   0.366   7.565 -0.3322  0.0205  0.0221
  122OSM   H11G12968   2.721   0.511   7.493  0.9488  0.4575 -1.4819
  122OSM   C12F12969   2.857   0.546   7.654  0.3924 -0.3862 -0.3709
  122OSM   H12F12970   2.759   0.549   7.706  1.0632  1.6319  0.8276
  122OSM   H12G12971   2.868   0.650   7.616  2.3307 -0.3081  0.3482
  122OSM   C13F12972   2.967   0.491   7.738 -0.6832  0.1015 -0.2552
  122OSM   H13F12973   2.968   0.550   7.832 -0.1966  3.0253 -2.0108
  122OSM   H13G12974   3.063   0.508   7.683  0.7991 -3.8516  0.9601
  122OSM   C14F12975   2.955   0.341   7.771 -0.4195 -0.1545 -0.0950
  122OSM   H14F12976   2.969   0.277   7.682  1.6075 -0.2976  0.3073
  122OSM   H14G12977   2.860   0.321   7.827  0.4016 -1.4375  0.8682
  122OSM   C15F12978   3.068   0.292   7.861  0.0104  0.4287 -0.0126
  122OSM   H15F12979   3.171   0.329   7.842 -0.1084  0.6136 -0.3094
  122OSM   H15G12980   3.074   0.181   7.855  1.9564  0.5564 -0.9208
  122OSM   C16F12981   3.024   0.301   8.005  0.0030  0.2932 -0.5214
  122OSM   H16F12982   2.916   0.285   8.024  0.4775 -0.6061  1.4510
  122OSM   H16G12983   3.056   0.402   8.039  1.6771 -0.5709  0.5537
  122OSM   C17F12984   3.102   0.215   8.098  0.8396  0.3305  0.7233
  122OSM   H17F12985   3.212   0.227   8.093  1.1461 -2.4256  0.2346
  122OSM   H17G12986   3.082   0.109   8.072  2.6319  0.2548 -0.4060
  122OSM   C18F12987   3.056   0.247   8.240 -0.3819 -0.6971  0.0592
  122OSM   H18F12988   3.123   0.200   8.315  0.4025 -2.2025 -1.5427
  122OSM   H18G12989   2.948   0.227   8.254 -0.6782  0.2792 -0.7782
  122OSM   H18H12990   3.064   0.357   8.253 -0.4452 -0.7376  0.4255
  123OSM      N12991   0.933   3.726   6.389  0.3954 -0.3201 -0.1576
  123OSM    C1512992   0.818   3.728   6.303 -0.1909  0.2507  0.3117
  123OSM   H15A12993   0.733   3.710   6.368  1.2822  1.0332  2.5214
  123OSM   H15B12994   0.808   3.650   6.229  0.1152 -0.9378  1.5132
  123OSM   H15C12995   0.793   3.823   6.257 -2.3473 -1.3290 -1.8855
  123OSM    C1412996   1.041   3.718   6.291 -0.2238  0.5391  0.6496
  123OSM   H14A12997   1.035   3.790   6.210  4.4125 -1.6227 -1.8365
  123OSM   H14B12998   1.045   3.622   6.243  0.2527  1.3637 -0.9809
  123OSM   H14C12999   1.136   3.731   6.341  0.2317 -4.7024  1.4538
  123OSM    C1313000   0.929   3.856   6.469  0.6233 -0.4399 -0.3497
  123OSM   H13A13001   0.926   3.942   6.404 -0.5212  1.2700  1.9063
  123OSM   H13B13002   1.016   3.868   6.532 -0.2665 -0.2613  0.8646
  123OSM   H13C13003   0.845   3.858   6.536  0.8704 -1.2377 -0.0176
  123OSM    C1213004   0.941   3.607   6.487  0.3005  0.0661  0.3500
  123OSM   H12A13005   0.951   3.505   6.452  1.9870 -0.4324  2.1771
  123OSM   H12B13006   0.859   3.608   6.558 -0.8851  2.0310 -0.9900
  123OSM    C1113007   1.071   3.604   6.584  0.8401  0.3989 -0.3388
  123OSM   H11A13008   1.043   3.533   6.664  1.2852  0.4699 -0.1189
  123OSM   H11B13009   1.088   3.703   6.631 -0.3700  0.6504 -0.4200
  123OSM      P13010   1.251   3.429   6.483 -0.0190 -0.0346  0.0535
  123OSM    O1313011   1.191   3.364   6.359 -0.1824 -0.1507  0.4818
  123OSM    O1413012   1.400   3.444   6.488  0.0205 -0.3207 -0.8089
  123OSM    O1113013   1.204   3.356   6.615 -0.5439  0.7409  0.1617
  123OSM    O1213014   1.191   3.574   6.509  0.4410 -0.0172 -0.6650
  123OSM    C1S13015   1.284   3.316   6.725 -0.4826  0.2830 -0.7831
  123OSM    H1S13016   1.378   3.376   6.726  0.0718 -0.5525  2.4741
  123OSM    H1T13017   1.301   3.206   6.726 -1.3758  0.1453 -0.0745
  123OSM     NF13018   1.296   3.338   6.972  0.2446  0.0692  0.2381
  123OSM    HNF13019   1.265   3.266   7.033  2.1291 -0.1805  0.9278
  123OSM    C2S13020   1.212   3.359   6.856  0.6284 -0.0179 -0.1457
  123OSM    H2S13021   1.188   3.467   6.847  0.7024  0.0917  0.9217
  123OSM    C3S13022   1.077   3.287   6.869  0.4266  0.0329 -0.3933
  123OSM    H3S13023   1.108   3.185   6.898 -1.4934 -0.3697  0.3519
  123OSM     O313024   1.002   3.270   6.744  0.4807 -0.2920 -0.4233
  123OSM    HO313025   1.071   3.293   6.681  2.2726 -1.4381  1.0823
  123OSM    C4S13026   0.994   3.340   6.980  0.1685 -0.2279 -0.3524
  123OSM    H4S13027   1.021   3.316   7.083 -0.4744 -0.2784 -0.1988
  123OSM    C5S13028   0.906   3.437   6.963 -0.0259  0.1611  0.1728
  123OSM    H5S13029   0.891   3.477   6.862 -1.5904 -0.7976  0.0178
  123OSM    C6S13030   0.829   3.501   7.077 -0.4383  0.6459 -0.8122
  123OSM    H6S13031   0.724   3.500   7.041 -0.7058  0.6194 -0.0274
  123OSM    H6T13032   0.867   3.603   7.098 -1.8143  0.5692  2.2282
  123OSM    C7S13033   0.846   3.436   7.220  0.0376  0.2155 -0.3183
  123OSM    H7S13034   0.947   3.454   7.263  0.2631  0.0764 -0.7838
  123OSM    H7T13035   0.836   3.326   7.227 -2.3538  0.3429 -1.1758
  123OSM    C8S13036   0.745   3.496   7.322 -0.8726 -0.4650  0.8220
  123OSM    H8S13037   0.644   3.461   7.294 -1.6364  0.8231  1.8667
  123OSM    H8T13038   0.744   3.607   7.319  0.5796 -0.4455  0.5360
  123OSM    C9S13039   0.774   3.451   7.462  0.8473  0.0923 -0.1007
  123OSM    H9S13040   0.865   3.503   7.498  1.3138  0.5888 -1.9278
  123OSM    H9T13041   0.793   3.341   7.461  2.1848  0.3205 -0.1770
  123OSM   C10S13042   0.656   3.486   7.560 -0.4413  0.2330  0.0123
  123OSM   H10S13043   0.559   3.446   7.522 -0.0708 -0.8905  0.2276
  123OSM   H10T13044   0.649   3.597   7.561  0.5341  0.2973  0.4167
  123OSM   C11S13045   0.684   3.419   7.690  0.1840  0.4483  0.7322
  123OSM   H11S13046   0.791   3.432   7.717  0.4378  1.8642 -0.9263
  123OSM   H11T13047   0.658   3.311   7.682 -0.1704  0.6822 -1.4465
  123OSM   C12S13048   0.598   3.478   7.799 -0.1730 -0.0131  0.1610
  123OSM   H12S13049   0.494   3.453   7.770 -0.1171 -0.4062  0.2935
  123OSM   H12T13050   0.627   3.585   7.804  2.0231 -0.5514 -0.2391
  123OSM   C13S13051   0.627   3.415   7.936  0.4303 -0.2680 -0.7778
  123OSM   H13S13052   0.722   3.459   7.974  0.0399 -0.5988  0.5901
  123OSM   H13T13053   0.638   3.305   7.926  2.1818 -0.2326  0.5371
  123OSM   C14S13054   0.519   3.444   8.038 -0.2438  0.8055  0.3994
  123OSM   H14S13055   0.423   3.406   7.997  1.5695 -2.0303 -1.3352
  123OSM   H14T13056   0.509   3.554   8.054  0.4400  0.5871  2.4781
  123OSM   C15S13057   0.557   3.386   8.175 -0.7112 -0.3372  0.2027
  123OSM   H15S13058   0.640   3.447   8.217 -1.0386 -0.9839  1.8352
  123OSM   H15T13059   0.589   3.280   8.163 -1.4860 -0.9164  2.9090
  123OSM   C16S13060   0.447   3.385   8.282 -0.2750 -0.0042  0.1912
  123OSM   H16S13061   0.369   3.313   8.251 -0.6925  0.8832 -0.8430
  123OSM   H16T13062   0.406   3.488   8.289 -0.1570  0.3870 -3.9648
  123OSM   C17S13063   0.504   3.350   8.426  0.1552 -0.0905 -0.0061
  123OSM   H17S13064   0.605   3.394   8.433  0.6728 -0.6410 -3.2024
  123OSM   H17T13065   0.518   3.240   8.426  3.2365  0.2802  0.4411
  123OSM   C18S13066   0.417   3.377   8.546 -0.4190 -0.3253 -0.0069
  123OSM   H18S13067   0.426   3.485   8.571 -0.2824 -0.7361  1.7959
  123OSM   H18T13068   0.457   3.331   8.639  0.2589  0.4486  0.0930
  123OSM   H18U13069   0.311   3.346   8.535 -0.6192  1.3138 -3.2964
  123OSM    C1F13070   1.398   3.409   7.008 -0.2022 -0.2935  0.0818
  123OSM     OF13071   1.433   3.498   6.934 -0.1767  0.1443  0.5048
  123OSM    C2F13072   1.452   3.378   7.136  1.2493  0.5854  0.0978
  123OSM    H2F13073   1.433   3.270   7.153 -0.4592  0.7083 -0.8872
  123OSM    H2G13074   1.395   3.427   7.218 -1.4591 -2.5630  0.1978
  123OSM    C3F13075   1.607   3.404   7.152  0.2906  0.3819 -0.2794
  123OSM    H3F13076   1.636   3.511   7.139 -3.7434  1.3510 -1.8768
  123OSM    H3G13077   1.662   3.348   7.073 -0.2183 -1.1762  0.4518
  123OSM    C4F13078   1.648   3.349   7.289 -0.5018 -0.2604 -0.0171
  123OSM    H4F13079   1.758   3.333   7.288 -0.2304  1.5100 -1.5598
  123OSM    H4G13080   1.605   3.248   7.307  1.8311 -1.2207  0.3734
  123OSM    C5F13081   1.624   3.442   7.407  0.0048 -0.1310  0.5104
  123OSM    H5F13082   1.532   3.504   7.406 -0.2224 -0.4702 -0.1202
  123OSM    H5G13083   1.703   3.520   7.412 -0.5261  0.4439 -0.0065
  123OSM    C6F13084   1.612   3.371   7.545 -0.5074 -0.3245 -0.0750
  123OSM    H6F13085   1.708   3.338   7.589 -0.5195  0.8784  0.9162
  123OSM    H6G13086   1.557   3.276   7.532  0.4720 -1.0793  1.2340
  123OSM    C7F13087   1.533   3.463   7.646  0.3804 -0.2017  1.1838
  123OSM    H7F13088   1.424   3.454   7.627  0.4386  0.1524  0.6696
  123OSM    H7G13089   1.571   3.567   7.635  3.5043 -1.2213  1.7445
  123OSM    C8F13090   1.556   3.421   7.795 -0.4338  0.0868 -0.7064
  123OSM    H8F13091   1.662   3.436   7.825 -1.7465  1.4094  3.5756
  123OSM    H8G13092   1.547   3.310   7.799  0.8859 -0.0756 -1.8054
  123OSM    C9F13093   1.475   3.493   7.903 -0.5922  0.2833 -0.2761
  123OSM    H9F13094   1.373   3.518   7.872 -1.2661 -2.0274 -0.0128
  123OSM   C10F13095   1.516   3.491   8.037 -0.1834  0.0736  0.1199
  123OSM   H10F13096   1.446   3.531   8.112 -0.3642 -0.1399  0.0653
  123OSM   C11F13097   1.637   3.429   8.109  0.9583 -0.5860 -0.3040
  123OSM   H11F13098   1.682   3.352   8.042 -0.5254 -0.6168 -1.2889
  123OSM   H11G13099   1.600   3.377   8.199  0.0274 -0.7671 -0.7861
  123OSM   C12F13100   1.754   3.530   8.148 -0.3381  1.0100  0.1838
  123OSM   H12F13101   1.808   3.564   8.057 -1.1523  0.4916 -0.4903
  123OSM   H12G13102   1.835   3.481   8.207 -0.6454 -0.1971 -0.3852
  123OSM   C13F13103   1.705   3.641   8.243 -0.4994  0.0453 -0.2355
  123OSM   H13F13104   1.631   3.702   8.187  0.1819  0.3794 -0.7866
  123OSM   H13G13105   1.788   3.707   8.275  0.1543 -1.2109  0.6899
  123OSM   C14F13106   1.648   3.590   8.367  1.0979 -0.3036 -0.0524
  123OSM   H14F13107   1.560   3.527   8.345  0.2339  1.5200 -1.9388
  123OSM   H14G13108   1.611   3.671   8.434  2.0748 -0.6174  0.8939
  123OSM   C15F13109   1.739   3.507   8.455 -0.5646  0.3665 -0.4253
  123OSM   H15F13110   1.836   3.558   8.475 -0.0394  0.5604 -3.2182
  123OSM   H15G13111   1.775   3.421   8.394 -0.5065 -1.1506  1.7152
  123OSM   C16F13112   1.672   3.462   8.586 -0.2263 -0.4506  0.1649
  123OSM   H16F13113   1.579   3.403   8.580 -0.3425 -0.1952 -0.5514
  123OSM   H16G13114   1.659   3.551   8.652  3.3974  0.6513 -0.4695
  123OSM   C17F13115   1.768   3.375   8.663 -0.0300  0.4094 -0.3229
  123OSM   H17F13116   1.871   3.416   8.659  0.4820 -0.8583 -0.2964
  123OSM   H17G13117   1.771   3.281   8.604 -2.9108  0.0343  0.0624
  123OSM   C18F13118   1.728   3.345   8.810 -0.6623 -0.0377  0.2691
  123OSM   H18F13119   1.719   3.445   8.859 -0.6045 -0.1837  0.5761
  123OSM   H18G13120   1.816   3.288   8.845  0.3078 -0.2403 -2.4061
  123OSM   H18H13121   1.635   3.285   8.819  0.1618 -0.9455  3.4624
  124OSM      N13122   0.677   6.623   6.216 -0.1624  0.1181  0.0205
  124OSM    C1513123   0.542   6.663   6.244  0.6037  0.6911  0.0029
  124OSM   H15A13124   0.511   6.679   6.346 -0.9482  4.1172 -0.9436
  124OSM   H15B13125   0.475   6.585   6.209  0.7468  0.9334 -0.8148
  124OSM   H15C13126   0.519   6.752   6.188 -1.0483  0.3913  0.1951
  124OSM    C1413127   0.768   6.727   6.289  0.1753  0.3564 -0.0923
  124OSM   H14A13128   0.755   6.734   6.396 -2.0783 -2.8301 -0.0966
  124OSM   H14B13129   0.742   6.824   6.247  0.9352  0.1370 -1.0928
  124OSM   H14C13130   0.872   6.710   6.265  0.6999  1.8306  1.0155
  124OSM    C1313131   0.698   6.490   6.280  0.2714 -0.1655 -0.0399
  124OSM   H13A13132   0.628   6.414   6.251  1.1655 -0.7874 -0.5871
  124OSM   H13B13133   0.688   6.512   6.386 -0.2831 -1.1212  0.1106
  124OSM   H13C13134   0.803   6.468   6.266  0.0650 -1.2937  0.1680
  124OSM    C1213135   0.708   6.624   6.069 -0.3355 -0.0925  0.8669
  124OSM   H12A13136   0.633   6.685   6.021 -0.6873 -0.8966  0.3770
  124OSM   H12B13137   0.683   6.527   6.029 -0.3768  0.4765 -0.5170
  124OSM    C1113138   0.858   6.654   6.037 -0.6593 -0.1022  0.0986
  124OSM   H11A13139   0.882   6.762   6.045  0.7505 -0.1378 -2.7808
  124OSM   H11B13140   0.870   6.649   5.926 -0.6620  0.5431  0.0679
  124OSM      P13141   0.982   6.429   6.082 -0.0406  0.1797  0.4728
  124OSM    O1313142   0.863   6.370   6.019 -0.1249 -0.2987 -0.3457
  124OSM    O1413143   1.114   6.413   6.014 -0.1292  0.5622  0.6608
  124OSM    O1113144   0.984   6.379   6.235  0.5687  0.0790 -0.5402
  124OSM    O1213145   0.957   6.580   6.116  0.0281  0.1379  0.2159
  124OSM    C1S13146   1.073   6.446   6.325 -0.0159 -0.9995 -0.4496
  124OSM    H1S13147   1.041   6.552   6.336  1.1558 -0.6828 -0.0123
  124OSM    H1T13148   1.180   6.449   6.295  0.6658  0.2053  1.9816
  124OSM     NF13149   1.168   6.472   6.548  0.2272  0.0948 -0.0367
  124OSM    HNF13150   1.264   6.455   6.529  0.0971  1.4376 -2.0537
  124OSM    C2S13151   1.076   6.393   6.470 -0.5099  1.1828  0.6062
  124OSM    H2S13152   0.975   6.412   6.512 -1.1424 -0.9397  0.1197
  124OSM    C3S13153   1.122   6.245   6.462  0.9939 -0.3944  0.0145
  124OSM    H3S13154   1.213   6.229   6.401  1.3142  1.2363  0.0391
  124OSM     O313155   1.018   6.159   6.403  0.1523  0.3379  0.2518
  124OSM    HO313156   0.994   6.208   6.324  0.5534 -0.5898 -0.4524
  124OSM    C4S13157   1.143   6.188   6.598 -0.5859 -0.0983 -0.6618
  124OSM    H4S13158   1.046   6.184   6.650 -1.4768  1.3685 -2.1585
  124OSM    C5S13159   1.258   6.141   6.654  0.0619 -0.5001  0.0418
  124OSM    H5S13160   1.353   6.133   6.599  0.0331 -2.2662  0.2267
  124OSM    C6S13161   1.275   6.089   6.791  0.9504  0.8869  0.0696
  124OSM    H6S13162   1.330   5.992   6.792  1.3923  1.1360  1.4879
  124OSM    H6T13163   1.180   6.066   6.843  2.6199  0.9154  3.2564
  124OSM    C7S13164   1.357   6.182   6.876 -0.0784 -0.5629  0.9446
  124OSM    H7S13165   1.308   6.281   6.876  1.3491  0.1585 -0.7747
  124OSM    H7T13166   1.461   6.194   6.841 -1.0141  0.1404 -1.7036
  124OSM    C8S13167   1.353   6.139   7.025 -0.8606  0.1915  0.2423
  124OSM    H8S13168   1.249   6.137   7.064 -0.5607  0.5942  1.0619
  124OSM    H8T13169   1.400   6.223   7.082 -1.4992  1.7620 -1.4893
  124OSM    C9S13170   1.436   6.009   7.065  0.2493 -0.0760  0.2561
  124OSM    H9S13171   1.544   6.024   7.044 -0.0334  1.4161 -0.2151
  124OSM    H9T13172   1.408   5.918   7.008  1.1321 -0.9442  1.2150
  124OSM   C10S13173   1.424   5.983   7.217  0.1849 -0.5909 -0.5106
  124OSM   H10S13174   1.320   5.957   7.245  0.4587  1.5472  2.8530
  124OSM   H10T13175   1.433   6.086   7.260  1.0905 -0.9906  0.2850
  124OSM   C11S13176   1.538   5.900   7.273  0.1864  1.1404  0.2992
  124OSM   H11S13177   1.626   5.957   7.234 -0.3216 -0.3015 -3.1783
  124OSM   H11T13178   1.538   5.805   7.216  1.8783  2.1934 -1.5420
  124OSM   C12S13179   1.544   5.880   7.427 -0.0355  0.5000  0.1476
  124OSM   H12S13180   1.650   5.848   7.437 -0.3601 -0.4815  0.5865
  124OSM   H12T13181   1.472   5.798   7.449  2.1639 -1.0105  1.9995
  124OSM   C13S13182   1.519   6.009   7.504 -0.1751  0.4131  0.0074
  124OSM   H13S13183   1.419   6.053   7.483 -0.9102 -0.7044  1.1538
  124OSM   H13T13184   1.600   6.080   7.475  1.4917 -0.1662  3.0593
  124OSM   C14S13185   1.547   6.001   7.658 -0.1960 -0.5775 -0.2270
  124OSM   H14S13186   1.649   5.961   7.675  0.3110  0.8605  0.2319
  124OSM   H14T13187   1.481   5.920   7.694 -1.1637 -0.8399 -2.5193
  124OSM   C15S13188   1.533   6.130   7.726 -0.5670  0.2345  0.2606
  124OSM   H15S13189   1.432   6.176   7.721 -0.1192  1.2257  0.2299
  124OSM   H15T13190   1.598   6.204   7.674 -1.3533  0.4025 -0.5072
  124OSM   C16S13191   1.568   6.119   7.872 -0.2996 -0.1118  0.2768
  124OSM   H16S13192   1.673   6.091   7.896  0.9167  3.6714 -0.2839
  124OSM   H16T13193   1.492   6.052   7.918 -2.1634  1.0683 -1.0358
  124OSM   C17S13194   1.568   6.258   7.933 -0.0606  0.4692 -0.2827
  124OSM   H17S13195   1.630   6.326   7.872  0.2084  0.6749  0.2219
  124OSM   H17T13196   1.615   6.253   8.033 -1.7601 -2.2534  0.4424
  124OSM   C18S13197   1.424   6.312   7.975  0.9512 -0.1502  0.2899
  124OSM   H18S13198   1.425   6.420   8.001 -0.2506 -0.1679  0.4560
  124OSM   H18T13199   1.386   6.243   8.054  1.2422 -0.2069  0.3772
  124OSM   H18U13200   1.362   6.294   7.885  2.0571  1.0144 -0.7109
  124OSM    C1F13201   1.131   6.583   6.605 -0.3868  0.0597  0.5330
  124OSM     OF13202   1.012   6.625   6.600  0.6616  0.8518 -0.3109
  124OSM    C2F13203   1.248   6.670   6.650  0.3175 -0.0664 -0.4115
  124OSM    H2F13204   1.223   6.777   6.662  0.3003 -0.1996  0.8784
  124OSM    H2G13205   1.337   6.661   6.583  2.3608  1.0793  2.0446
  124OSM    C3F13206   1.287   6.616   6.787 -0.3549  0.4870  0.1935
  124OSM    H3F13207   1.313   6.509   6.775 -0.2234  0.4339  0.9162
  124OSM    H3G13208   1.203   6.628   6.859  0.6201  1.1156  1.2705
  124OSM    C4F13209   1.405   6.701   6.848  0.4999  0.7195 -0.0680
  124OSM    H4F13210   1.360   6.802   6.850 -1.1974  0.0353 -1.7222
  124OSM    H4G13211   1.493   6.693   6.781 -0.3991  0.6824 -1.2668
  124OSM    C5F13212   1.441   6.651   6.995  0.0798  0.3439  0.8706
  124OSM    H5F13213   1.552   6.655   7.005  0.2465 -2.7481  0.7661
  124OSM    H5G13214   1.414   6.543   7.001 -0.4111  0.3540 -0.9492
  124OSM    C6F13215   1.362   6.719   7.105 -0.0995 -0.0485  0.3071
  124OSM    H6F13216   1.251   6.707   7.102 -0.0522 -0.5628  0.7356
  124OSM    H6G13217   1.394   6.825   7.098 -2.0334  0.6871  1.9905
  124OSM    C7F13218   1.422   6.666   7.243 -0.4187 -0.1404  0.4391
  124OSM    H7F13219   1.409   6.744   7.320 -1.4481 -0.0399  0.1648
  124OSM    H7G13220   1.528   6.637   7.223 -0.1294  2.0016 -1.2802
  124OSM    C8F13221   1.344   6.540   7.296 -0.3799  0.4795  0.3371
  124OSM    H8F13222   1.350   6.467   7.212  1.5402 -0.1200  0.9864
  124OSM    H8G13223   1.241   6.578   7.318  0.1396  1.7778  0.5812
  124OSM    C9F13224   1.395   6.462   7.416 -0.9119 -0.2203  0.0698
  124OSM    H9F13225   1.448   6.366   7.407 -0.2016  0.1842 -0.1141
  124OSM   C10F13226   1.395   6.507   7.543 -0.0324 -0.2303 -0.3939
  124OSM   H10F13227   1.441   6.446   7.622 -0.3585 -0.3834 -0.3193
  124OSM   C11F13228   1.326   6.627   7.600  0.6722  0.2584 -0.1866
  124OSM   H11F13229   1.247   6.657   7.528  0.6610 -0.5115 -0.5067
  124OSM   H11G13230   1.412   6.697   7.605  2.1660 -1.3938 -1.9256
  124OSM   C12F13231   1.251   6.596   7.732 -0.0347  0.3254  0.4909
  124OSM   H12F13232   1.318   6.545   7.804  1.5340  0.5340 -0.8035
  124OSM   H12G13233   1.166   6.527   7.710 -0.4759  0.2856  2.2985
  124OSM   C13F13234   1.178   6.721   7.803  0.3843  0.4130  0.0032
  124OSM   H13F13235   1.096   6.772   7.747 -0.4595 -2.3581 -1.4268
  124OSM   H13G13236   1.265   6.789   7.809  1.1499 -0.3307 -1.9342
  124OSM   C14F13237   1.116   6.681   7.938  0.4430 -0.0619  0.0933
  124OSM   H14F13238   1.198   6.627   7.988 -1.2286 -1.5267  1.2977
  124OSM   H14G13239   1.029   6.613   7.924  0.0512  0.4505  0.0002
  124OSM   C15F13240   1.083   6.799   8.031 -0.1622 -1.0626  0.0717
  124OSM   H15F13241   1.180   6.853   8.037 -0.7466 -0.2173  2.1740
  124OSM   H15G13242   1.060   6.757   8.131 -1.3054  0.8236  0.6321
  124OSM   C16F13243   0.973   6.890   7.976 -0.7666  0.2924 -0.7187
  124OSM   H16F13244   0.876   6.838   7.961 -1.4174  1.6130 -1.1738
  124OSM   H16G13245   1.006   6.926   7.876  0.2459  0.3347 -0.3719
  124OSM   C17F13246   0.953   7.014   8.068  0.3407  0.5392  0.0394
  124OSM   H17F13247   1.038   7.086   8.066  2.8728 -2.2232  3.1526
  124OSM   H17G13248   0.958   6.968   8.169  0.3123 -0.4196 -0.3924
  124OSM   C18F13249   0.812   7.072   8.050 -0.2885  0.4414 -0.1943
  124OSM   H18F13250   0.801   7.118   7.949  0.9273  0.1869 -0.4536
  124OSM   H18G13251   0.792   7.162   8.113  1.5309  0.1936  0.7614
  124OSM   H18H13252   0.732   7.001   8.079 -1.7385  1.0173 -2.6388
  125OSM      N13253   4.362   4.112   6.169 -0.3583 -0.2329  0.2690
  125OSM    C1513254   4.327   4.002   6.253  0.4500  0.0798 -0.4964
  125OSM   H15A13255   4.422   3.967   6.290  0.1568 -0.2880 -0.0779
  125OSM   H15B13256   4.273   3.919   6.210  0.4307 -1.2662  1.9890
  125OSM   H15C13257   4.262   4.043   6.330 -0.4195 -2.1858  0.0112
  125OSM    C1413258   4.472   4.070   6.080 -0.0555 -0.1533 -0.1529
  125OSM   H14A13259   4.519   4.154   6.031  0.6077 -0.3109  0.2117
  125OSM   H14B13260   4.421   4.014   6.003  0.1537 -0.2310 -0.2366
  125OSM   H14C13261   4.547   4.014   6.134 -0.9075 -0.1909  0.9976
  125OSM    C1313262   4.246   4.152   6.098 -0.0647  0.2094 -0.3362
  125OSM   H13A13263   4.204   4.073   6.038 -2.7451  1.2680  0.0757
  125OSM   H13B13264   4.277   4.234   6.035 -0.3383 -0.0955 -0.8682
  125OSM   H13C13265   4.164   4.182   6.162 -1.0397 -0.4592 -1.2538
  125OSM    C1213266   4.413   4.227   6.258 -0.6240  1.3714 -0.0269
  125OSM   H12A13267   4.499   4.193   6.314  1.4362  0.0904 -3.7959
  125OSM   H12B13268   4.339   4.247   6.334 -0.0166 -0.7179  1.1809
  125OSM    C1113269   4.471   4.351   6.187 -0.5737  0.9126 -0.2892
  125OSM   H11A13270   4.474   4.438   6.256  2.3061 -0.3818  1.2643
  125OSM   H11B13271   4.392   4.376   6.112 -0.9096  0.9433  0.0714
  125OSM      P13272   4.736   4.341   6.193  0.0498  0.0458  0.2099
  125OSM    O1313273   4.774   4.205   6.238  0.3067 -0.2598  0.5351
  125OSM    O1413274   4.839   4.402   6.099 -0.2291 -0.4253 -0.3382
  125OSM    O1113275   4.710   4.442   6.319  0.4445  0.0550  0.4647
  125OSM    O1213276   4.600   4.342   6.114  0.2121  0.0417 -0.4426
  125OSM    C1S13277   4.682   4.384   6.450  0.1734  0.2278 -0.0773
  125OSM    H1S13278   4.746   4.294   6.462  1.7636  1.5676  1.8699
  125OSM    H1T13279   4.578   4.345   6.452  0.9222 -1.8306  0.3968
  125OSM     NF13280   4.659   4.409   6.685 -0.5300 -0.3755  0.1108
  125OSM    HNF13281   4.574   4.434   6.732 -0.1530  2.3311 -0.5765
  125OSM    C2S13282   4.695   4.482   6.565 -0.4366  0.5995  0.0490
  125OSM    H2S13283   4.802   4.513   6.567 -0.2178 -0.1543  0.4805
  125OSM    C3S13284   4.612   4.611   6.542 -0.3777  0.2862  0.0408
  125OSM    H3S13285   4.502   4.596   6.532 -0.2666 -0.8721  0.5136
  125OSM     O313286   4.629   4.680   6.411  0.3540 -0.1807 -0.5412
  125OSM    HO313287   4.688   4.632   6.351 -0.7280 -0.6855 -1.2147
  125OSM    C4S13288   4.644   4.723   6.632  0.3505  0.3770  0.5153
  125OSM    H4S13289   4.752   4.745   6.641  0.4622  0.0486  0.0008
  125OSM    C5S13290   4.567   4.781   6.720  0.4731  0.1187  0.1680
  125OSM    H5S13291   4.458   4.764   6.716  0.1498  1.9887  0.5837
  125OSM    C6S13292   4.614   4.883   6.817 -0.1606  0.1179  0.1966
  125OSM    H6S13293   4.581   4.984   6.786  0.1934 -0.1742 -1.1903
  125OSM    H6T13294   4.725   4.883   6.813 -0.0913  0.3480  1.7745
  125OSM    C7S13295   4.572   4.853   6.965 -0.0537  0.1211 -0.4728
  125OSM    H7S13296   4.596   4.751   7.003 -0.6947 -0.1939 -0.9096
  125OSM    H7T13297   4.461   4.861   6.971  0.0529  2.1149 -0.9695
  125OSM    C8S13298   4.637   4.974   7.039  0.9220  0.2823  0.5389
  125OSM    H8S13299   4.596   5.065   6.990 -0.6685 -1.2783 -1.0588
  125OSM    H8T13300   4.747   4.980   7.021  0.4403  1.0708 -2.2852
  125OSM    C9S13301   4.604   4.972   7.186  0.6934  0.2618  0.1373
  125OSM    H9S13302   4.494   4.960   7.198  0.7886 -3.6834 -2.1029
  125OSM    H9T13303   4.639   5.071   7.222  0.8305 -0.2527  1.4620
  125OSM   C10S13304   4.683   4.865   7.261 -0.3405  0.0247  0.1757
  125OSM   H10S13305   4.783   4.888   7.217 -2.5472  1.3992 -4.4328
  125OSM   H10T13306   4.659   4.761   7.231 -1.9152  0.1815  0.8820
  125OSM   C11S13307   4.701   4.886   7.414 -0.4373 -0.3307 -0.2380
  125OSM   H11S13308   4.719   4.994   7.434 -0.0472 -0.3869 -0.2765
  125OSM   H11T13309   4.789   4.829   7.452  0.2513  0.8602 -0.0083
  125OSM   C12S13310   4.584   4.834   7.503  0.1066 -0.0162  0.3134
  125OSM   H12S13311   4.537   4.748   7.451  0.2050 -0.4271  0.8922
  125OSM   H12T13312   4.508   4.915   7.508  1.5110  1.2712  1.4482
  125OSM   C13S13313   4.629   4.793   7.648  0.3534 -0.5295 -0.2773
  125OSM   H13S13314   4.668   4.886   7.694 -2.4599  1.2320 -1.3140
  125OSM   H13T13315   4.701   4.709   7.634  1.3281  0.1209  0.7672
  125OSM   C14S13316   4.512   4.750   7.732  0.9071 -0.6702  0.4668
  125OSM   H14S13317   4.461   4.656   7.700 -1.2019  0.7365 -0.4238
  125OSM   H14T13318   4.451   4.843   7.732  1.8715  0.0408 -3.2036
  125OSM   C15S13319   4.567   4.734   7.874  1.0112  0.1568  0.0184
  125OSM   H15S13320   4.618   4.829   7.901 -0.5791  0.2481  2.9632
  125OSM   H15T13321   4.650   4.661   7.884 -1.2075 -2.1472  2.6701
  125OSM   C16S13322   4.469   4.711   7.992  0.7279 -0.0216 -0.0263
  125OSM   H16S13323   4.405   4.801   8.001  0.4321 -0.1099 -1.2209
  125OSM   H16T13324   4.534   4.708   8.082  2.6123  1.9941 -1.2973
  125OSM   C17S13325   4.386   4.586   7.963  0.1004  0.5826 -0.4498
  125OSM   H17S13326   4.466   4.513   7.937 -1.3329 -0.6527 -1.4661
  125OSM   H17T13327   4.322   4.603   7.874  1.8627 -0.8897 -2.0218
  125OSM   C18S13328   4.296   4.544   8.084 -0.0486  0.2075 -0.4643
  125OSM   H18S13329   4.228   4.625   8.119 -1.4438 -1.1325  0.0040
  125OSM   H18T13330   4.354   4.493   8.164 -1.1176  0.6240  0.5811
  125OSM   H18U13331   4.230   4.468   8.036  1.5807 -2.8877  1.9995
  125OSM    C1F13332   4.733   4.302   6.723  0.2007  0.3563 -0.2099
  125OSM     OF13333   4.841   4.272   6.677  0.1044 -0.1693  0.8328
  125OSM    C2F13334   4.676   4.228   6.835  0.4860  0.1456  0.3614
  125OSM    H2F13335   4.588   4.172   6.797 -0.6053  1.2749  1.1667
  125OSM    H2G13336   4.640   4.299   6.913 -0.1737 -0.3767  0.5394
  125OSM    C3F13337   4.780   4.126   6.890  0.2052 -0.7159  0.2771
  125OSM    H3F13338   4.871   4.186   6.907  0.1822 -0.0050 -1.9046
  125OSM    H3G13339   4.789   4.049   6.811 -1.7325  0.0437 -0.7166
  125OSM    C4F13340   4.733   4.048   7.015  0.1957 -0.0730  0.1976
  125OSM    H4F13341   4.670   3.964   6.978  0.0487  0.2021 -0.1879
  125OSM    H4G13342   4.668   4.098   7.089 -0.6224 -2.0072  0.8295
  125OSM    C5F13343   4.845   3.984   7.099 -1.1371  0.7421 -0.2926
  125OSM    H5F13344   4.917   3.936   7.030  0.7103  1.4077  1.1161
  125OSM    H5G13345   4.804   3.906   7.167  0.2857  0.9695  0.8465
  125OSM    C6F13346   4.917   4.093   7.176  0.4224 -0.2135  0.7120
  125OSM    H6F13347   4.844   4.149   7.239 -0.2520 -1.2215  0.8237
  125OSM    H6G13348   4.968   4.162   7.106 -2.5814 -0.9047 -2.2913
  125OSM    C7F13349   5.012   4.047   7.286 -0.9083 -0.7739 -0.3366
  125OSM    H7F13350   5.062   4.131   7.341  0.2671 -0.5640 -1.7146
  125OSM    H7G13351   5.102   4.001   7.240  1.4250  1.9348  1.3362
  125OSM    C8F13352   4.958   3.955   7.393 -0.0515 -0.1968  0.7102
  125OSM    H8F13353   4.981   3.850   7.363 -1.1279 -0.3604  0.4365
  125OSM    H8G13354   4.848   3.959   7.385  0.1171  3.1676 -1.1922
  125OSM    C9F13355   4.997   3.981   7.531 -1.0190  0.4046  0.1050
  125OSM    H9F13356   5.100   4.006   7.558 -1.0530  0.4624  0.1814
  125OSM   C10F13357   4.916   3.986   7.640 -0.4628 -0.4499 -0.2620
  125OSM   H10F13358   4.945   4.015   7.743  0.2123 -2.0828  0.0130
  125OSM   C11F13359   4.769   3.965   7.640  0.7497 -0.5796  0.1744
  125OSM   H11F13360   4.725   3.914   7.552  0.3263 -0.4392  0.3042
  125OSM   H11G13361   4.713   4.061   7.631  1.2366 -0.4636 -1.7372
  125OSM   C12F13362   4.726   3.895   7.774 -0.2522  0.3727 -0.1444
  125OSM   H12F13363   4.615   3.891   7.780 -0.2312  1.7608  1.6884
  125OSM   H12G13364   4.763   3.951   7.863  1.0946  1.6142 -1.4434
  125OSM   C13F13365   4.764   3.750   7.787  0.4499  0.4012 -0.2602
  125OSM   H13F13366   4.874   3.748   7.773  0.4885 -1.0562  0.0950
  125OSM   H13G13367   4.721   3.692   7.703  0.3733  0.0254  0.0364
  125OSM   C14F13368   4.714   3.688   7.924 -0.9966  0.2320 -0.9278
  125OSM   H14F13369   4.736   3.580   7.912  3.1527  1.1390 -2.5353
  125OSM   H14G13370   4.605   3.706   7.925 -0.7840  1.5999 -1.1789
  125OSM   C15F13371   4.770   3.755   8.054  0.2725 -0.7500  0.9925
  125OSM   H15F13372   4.738   3.687   8.136  1.4783 -4.2977 -1.3704
  125OSM   H15G13373   4.724   3.854   8.076 -3.0186 -2.1379  0.7303
  125OSM   C16F13374   4.924   3.767   8.053 -0.2781 -0.0362  0.4150
  125OSM   H16F13375   4.951   3.824   7.962 -1.6756 -0.7837 -0.4763
  125OSM   H16G13376   4.970   3.667   8.040  0.5825  0.8365 -4.0381
  125OSM   C17F13377   4.981   3.853   8.168  0.1675 -0.8543 -0.0056
  125OSM   H17F13378   4.908   3.932   8.197  1.8970  0.5914  0.4851
  125OSM   H17G13379   5.073   3.902   8.129  0.3315 -0.5048  0.8118
  125OSM   C18F13380   5.022   3.784   8.298 -1.2591  0.4033 -0.3564
  125OSM   H18F13381   4.962   3.693   8.319  1.2742 -0.4239  3.7700
  125OSM   H18G13382   5.000   3.858   8.378  1.0864  0.1934  0.4958
  125OSM   H18H13383   5.128   3.753   8.299 -1.6823 -1.1138 -0.8463
  126OSM      N13384   2.168   2.739   6.150  0.7803  0.0961 -0.0345
  126OSM    C1513385   2.123   2.752   6.010 -0.4451 -0.2808  0.7913
  126OSM   H15A13386   2.141   2.855   5.984  2.6023 -0.6831  1.1635
  126OSM   H15B13387   2.018   2.727   6.010 -0.8094  1.1973  0.4716
  126OSM   H15C13388   2.174   2.687   5.939 -2.5808 -0.6675 -0.4260
  126OSM    C1413389   2.195   2.593   6.180  0.3712  0.2211 -0.6159
  126OSM   H14A13390   2.104   2.535   6.178  0.0119  0.6457  1.5275
  126OSM   H14B13391   2.231   2.592   6.282  2.4626 -1.8305 -1.3475
  126OSM   H14C13392   2.271   2.543   6.122  1.2474  0.4325  0.3387
  126OSM    C1313393   2.291   2.812   6.165  0.0597 -0.2228 -0.8522
  126OSM   H13A13394   2.362   2.764   6.098  0.8273 -0.7343  0.3086
  126OSM   H13B13395   2.332   2.793   6.263  1.6815 -1.8812 -1.8080
  126OSM   H13C13396   2.288   2.918   6.145 -0.6824 -0.2359 -0.8025
  126OSM    C1213397   2.058   2.785   6.235  0.2711 -0.6040 -0.4132
  126OSM   H12A13398   1.974   2.717   6.227 -0.5383  0.3962 -0.5442
  126OSM   H12B13399   2.017   2.881   6.207 -0.2360 -1.0604 -1.2691
  126OSM    C1113400   2.086   2.795   6.389  0.1326 -0.5960  0.0874
  126OSM   H11A13401   1.997   2.850   6.426  1.5278  1.3371  0.6129
  126OSM   H11B13402   2.170   2.867   6.397 -0.8100  0.3660  1.6307
  126OSM      P13403   2.262   2.655   6.538  0.1484  0.1891  0.1208
  126OSM    O1313404   2.280   2.512   6.571 -0.2596 -0.0071  0.1510
  126OSM    O1413405   2.367   2.718   6.452  0.4520  0.7593 -0.4201
  126OSM    O1113406   2.235   2.746   6.659  0.2540 -0.3630 -0.1837
  126OSM    O1213407   2.123   2.671   6.461 -0.4142 -0.3123 -0.5242
  126OSM    C1S13408   2.130   2.720   6.750  0.1242  0.5151 -1.5466
  126OSM    H1S13409   2.057   2.639   6.726 -3.6552  3.4645 -0.5826
  126OSM    H1T13410   2.071   2.812   6.773  2.0787  0.7777  2.7347
  126OSM     NF13411   2.071   2.651   6.985  0.2477  0.0597  0.1672
  126OSM    HNF13412   2.046   2.715   7.057  0.9135  0.7427 -0.1993
  126OSM    C2S13413   2.181   2.693   6.897 -0.7695 -0.3982 -0.2222
  126OSM    H2S13414   2.260   2.615   6.886  1.0117  1.2431  0.5305
  126OSM    C3S13415   2.247   2.818   6.956 -0.8656 -0.7446  0.2790
  126OSM    H3S13416   2.178   2.905   6.964  1.9670  1.4380  1.6090
  126OSM     O313417   2.343   2.868   6.863  0.4494  0.1377 -0.9116
  126OSM    HO313418   2.327   2.814   6.785  0.5366  0.0679 -0.8811
  126OSM    C4S13419   2.315   2.800   7.086 -0.8823 -0.4289 -0.5154
  126OSM    H4S13420   2.383   2.715   7.096  0.3644  0.8404  2.2252
  126OSM    C5S13421   2.320   2.894   7.187  0.4561  0.2867 -0.3689
  126OSM    H5S13422   2.267   2.989   7.169 -2.3536 -0.8024  1.7193
  126OSM    C6S13423   2.398   2.886   7.323  0.2396 -0.1018 -0.2505
  126OSM    H6S13424   2.464   2.975   7.332 -0.1735  0.2824 -1.0214
  126OSM    H6T13425   2.467   2.798   7.322 -0.0738 -0.3462 -0.2850
  126OSM    C7S13426   2.299   2.880   7.443  0.0422  0.0947  0.2327
  126OSM    H7S13427   2.223   2.803   7.416  0.9097 -0.2242 -1.3743
  126OSM    H7T13428   2.252   2.980   7.452  1.4297  0.8817 -1.0258
  126OSM    C8S13429   2.368   2.859   7.574  0.4543 -1.1206 -0.8564
  126OSM    H8S13430   2.433   2.947   7.594  0.5047 -1.3139 -0.1706
  126OSM    H8T13431   2.437   2.773   7.563  1.4414 -0.6451  1.4496
  126OSM    C9S13432   2.263   2.834   7.682  0.4514 -0.0856 -0.0118
  126OSM    H9S13433   2.228   2.729   7.667 -1.6670  0.6995 -0.7473
  126OSM    H9T13434   2.178   2.904   7.673  0.5168 -0.2955 -2.6145
  126OSM   C10S13435   2.318   2.853   7.825  0.6280  0.5416 -0.4646
  126OSM   H10S13436   2.382   2.943   7.835  0.2523  1.0361 -2.3804
  126OSM   H10T13437   2.393   2.775   7.847 -0.7674 -1.4250 -2.4676
  126OSM   C11S13438   2.218   2.835   7.937 -0.2218  0.3944 -0.5487
  126OSM   H11S13439   2.157   2.743   7.927 -1.5727  1.2436 -0.3374
  126OSM   H11T13440   2.145   2.917   7.921  0.9251  1.1815 -1.8064
  126OSM   C12S13441   2.279   2.853   8.072 -0.0968 -0.1729  0.2658
  126OSM   H12S13442   2.293   2.963   8.073 -1.1276  0.0157 -2.1851
  126OSM   H12T13443   2.379   2.804   8.074 -0.4011 -1.0176 -2.8435
  126OSM   C13S13444   2.190   2.790   8.184 -0.9027 -0.2342  0.3799
  126OSM   H13S13445   2.174   2.681   8.169  0.7851 -0.3452 -0.6973
  126OSM   H13T13446   2.098   2.851   8.174 -0.6712  0.4361  2.1065
  126OSM   C14S13447   2.236   2.811   8.322  0.3671 -0.5022  0.2370
  126OSM   H14S13448   2.154   2.825   8.395  0.2690  1.1029 -0.1559
  126OSM   H14T13449   2.282   2.912   8.328 -1.4214  0.3023  0.6953
  126OSM   C15S13450   2.336   2.705   8.365 -0.5650  0.3829  1.0925
  126OSM   H15S13451   2.440   2.744   8.366 -1.0717  1.7916  0.3806
  126OSM   H15T13452   2.332   2.626   8.287 -1.3191  0.7581  0.7440
  126OSM   C16S13453   2.305   2.636   8.496 -0.7373 -0.0886  0.2554
  126OSM   H16S13454   2.362   2.541   8.511  0.0182  0.0962 -1.3557
  126OSM   H16T13455   2.197   2.609   8.494 -0.7489 -0.0142 -0.1409
  126OSM   C17S13456   2.336   2.738   8.610  0.6714 -0.3440 -0.3255
  126OSM   H17S13457   2.281   2.831   8.589  1.5075 -0.2216 -2.0307
  126OSM   H17T13458   2.444   2.765   8.605  1.1122 -1.8333  0.6561
  126OSM   C18S13459   2.296   2.695   8.755 -0.2487 -0.3935 -0.2291
  126OSM   H18S13460   2.357   2.755   8.825 -0.4035 -0.2364 -0.2284
  126OSM   H18T13461   2.319   2.590   8.786  1.3049  0.6630  2.3227
  126OSM   H18U13462   2.189   2.716   8.779  0.0567 -0.3564  1.1273
  126OSM    C1F13463   2.012   2.532   6.974 -0.3798 -0.0702  0.2853
  126OSM     OF13464   2.047   2.445   6.891 -0.0535  0.1423  0.2778
  126OSM    C2F13465   1.896   2.509   7.062 -0.0269  0.5413 -0.0450
  126OSM    H2F13466   1.804   2.548   7.015  0.6625  1.4694 -0.6347
  126OSM    H2G13467   1.893   2.548   7.166 -1.4024  0.0704  0.1006
  126OSM    C3F13468   1.859   2.357   7.088  0.0440 -0.3210  0.3658
  126OSM    H3F13469   1.939   2.302   7.142  1.2682 -0.2188 -1.2745
  126OSM    H3G13470   1.850   2.294   6.997  0.1161 -0.8580  0.7284
  126OSM    C4F13471   1.736   2.347   7.182  0.6738  0.3458  0.2587
  126OSM    H4F13472   1.685   2.256   7.143 -2.1481  1.6754  0.6738
  126OSM    H4G13473   1.664   2.431   7.168 -0.5486 -0.9192 -1.2279
  126OSM    C5F13474   1.766   2.335   7.332 -0.0640 -0.1514  0.3365
  126OSM    H5F13475   1.838   2.416   7.359 -1.1253  1.0177 -0.2742
  126OSM    H5G13476   1.823   2.243   7.357 -2.7158 -1.3963  2.0250
  126OSM    C6F13477   1.649   2.353   7.425 -0.3992  0.4251 -0.2412
  126OSM    H6F13478   1.600   2.255   7.445  2.0256 -0.6220  0.8266
  126OSM    H6G13479   1.577   2.420   7.374  0.3163  3.5562  2.6258
  126OSM    C7F13480   1.694   2.410   7.554  0.3013 -0.5827 -0.7966
  126OSM    H7F13481   1.737   2.512   7.541  0.8760 -0.7193 -0.0325
  126OSM    H7G13482   1.780   2.346   7.583  0.0693 -1.8771 -2.8875
  126OSM    C8F13483   1.591   2.414   7.669  0.5630  0.5959 -0.7003
  126OSM    H8F13484   1.499   2.460   7.626 -1.7900 -1.5585  1.7981
  126OSM    H8G13485   1.627   2.478   7.752  2.0820 -0.6390 -0.3920
  126OSM    C9F13486   1.545   2.279   7.710 -0.0480 -0.1739 -0.4553
  126OSM    H9F13487   1.564   2.198   7.638  2.9593 -2.0760  2.3498
  126OSM   C10F13488   1.482   2.258   7.823 -0.4473  0.1996  0.1950
  126OSM   H10F13489   1.440   2.158   7.842  1.3417 -1.0473 -2.2625
  126OSM   C11F13490   1.445   2.364   7.924 -0.0098  0.0158  0.3919
  126OSM   H11F13491   1.336   2.361   7.947 -0.2788  0.2958 -0.7866
  126OSM   H11G13492   1.453   2.465   7.878 -0.4575 -0.0608  0.1437
  126OSM   C12F13493   1.526   2.369   8.060  0.5328  0.1731  0.2695
  126OSM   H12F13494   1.625   2.417   8.044  0.1055  0.9179 -0.1704
  126OSM   H12G13495   1.548   2.268   8.101 -2.1014 -0.2985  0.6403
  126OSM   C13F13496   1.443   2.427   8.167  0.4710  0.0538  0.2333
  126OSM   H13F13497   1.340   2.388   8.177  0.7041 -0.6763 -0.1972
  126OSM   H13G13498   1.429   2.532   8.133  2.0586  0.5469  1.0674
  126OSM   C14F13499   1.519   2.409   8.304 -0.0819 -0.2802 -0.6271
  126OSM   H14F13500   1.626   2.438   8.295 -0.0769  0.8362  2.3874
  126OSM   H14G13501   1.513   2.302   8.333 -1.1956  0.0064  0.2353
  126OSM   C15F13502   1.464   2.495   8.416  0.0569 -0.1158 -0.8125
  126OSM   H15F13503   1.355   2.480   8.426  0.0567  0.7696  0.6752
  126OSM   H15G13504   1.489   2.599   8.386  2.2951 -1.1835 -2.8588
  126OSM   C16F13505   1.526   2.460   8.554  0.3588 -0.0351  0.0375
  126OSM   H16F13506   1.631   2.495   8.544  1.1191 -2.3094 -0.2911
  126OSM   H16G13507   1.529   2.349   8.555  0.2040 -0.0428 -0.2497
  126OSM   C17F13508   1.447   2.513   8.673 -0.6872  0.7576 -0.6156
  126OSM   H17F13509   1.509   2.487   8.761 -0.0558 -0.1119 -1.3067
  126OSM   H17G13510   1.348   2.463   8.677 -0.9801  1.5083  2.4448
  126OSM   C18F13511   1.424   2.662   8.651  0.5432 -0.4296  0.4266
  126OSM   H18F13512   1.516   2.710   8.611 -1.1912  2.2860 -0.4843
  126OSM   H18G13513   1.405   2.720   8.744  0.6370  1.1842 -0.5403
  126OSM   H18H13514   1.341   2.680   8.580  0.8958  0.8362  0.3231
  127OSM      N13515   6.796   3.666   6.109  0.5363  0.3769 -0.0849
  127OSM    C1513516   6.827   3.572   6.223 -0.0483 -1.1488  0.3989
  127OSM   H15A13517   6.763   3.583   6.309 -0.2288 -1.2044  0.2725
  127OSM   H15B13518   6.931   3.583   6.249  0.6227  0.6038 -2.7513
  127OSM   H15C13519   6.809   3.471   6.189  0.2779  0.0312 -3.4943
  127OSM    C1413520   6.888   3.621   5.996  0.1056  0.7672  1.0407
  127OSM   H14A13521   6.991   3.652   6.009  0.1920  0.4796  1.0491
  127OSM   H14B13522   6.850   3.667   5.906  1.4460  1.7084  0.9390
  127OSM   H14C13523   6.889   3.514   5.988 -2.3854  0.7544  0.5682
  127OSM    C1313524   6.656   3.647   6.058 -0.2854 -0.3892 -1.1221
  127OSM   H13A13525   6.580   3.665   6.134  2.1634 -0.9369  1.5375
  127OSM   H13B13526   6.657   3.542   6.035 -0.8098 -0.7210  0.3169
  127OSM   H13C13527   6.642   3.706   5.968 -1.1168 -0.4875 -1.0663
  127OSM    C1213528   6.819   3.808   6.142 -0.5297 -0.2797 -0.8666
  127OSM   H12A13529   6.747   3.853   6.210  2.3724 -1.9109  3.5360
  127OSM   H12B13530   6.818   3.858   6.046 -3.7082 -0.6754 -1.0783
  127OSM    C1113531   6.957   3.831   6.216 -0.1470  0.0950  0.5389
  127OSM   H11A13532   6.939   3.786   6.316 -0.7645 -0.2919  0.2547
  127OSM   H11B13533   6.960   3.941   6.231 -2.4424  0.3187 -0.3839
  127OSM      P13534   7.193   3.719   6.238  0.5143 -0.6749 -0.5631
  127OSM    O1313535   7.148   3.583   6.283 -0.3210 -0.5587 -0.5859
  127OSM    O1413536   7.318   3.728   6.151 -0.3355  0.0849 -0.2143
  127OSM    O1113537   7.206   3.822   6.359 -0.3523  0.6703  0.3509
  127OSM    O1213538   7.079   3.785   6.153  0.3193  0.0882 -0.5609
  127OSM    C1S13539   7.274   3.798   6.479 -0.8782  0.2252  0.0769
  127OSM    H1S13540   7.385   3.803   6.469 -1.0061  3.3616 -0.5476
  127OSM    H1T13541   7.253   3.701   6.528 -0.7645  1.7463  3.2789
  127OSM     NF13542   7.343   3.895   6.687  0.1384  0.0542 -0.5899
  127OSM    HNF13543   7.319   3.849   6.772 -0.4738 -1.0675 -1.3664
  127OSM    C2S13544   7.244   3.908   6.585 -0.2145  0.3966 -0.0446
  127OSM    H2S13545   7.271   4.004   6.535  1.2667  1.4078  2.5727
  127OSM    C3S13546   7.101   3.917   6.625  0.6470  0.6618 -0.0757
  127OSM    H3S13547   7.062   3.826   6.676 -0.5143  0.9200 -0.4877
  127OSM     O313548   7.014   3.925   6.509  0.5134  0.3664  0.9669
  127OSM    HO313549   7.066   3.904   6.431 -1.9297 -0.9966 -0.3670
  127OSM    C4S13550   7.080   4.031   6.720 -0.1748 -0.5731  0.1702
  127OSM    H4S13551   7.063   4.126   6.668 -0.7886 -0.0840  1.2355
  127OSM    C5S13552   7.073   4.025   6.851  0.2371  0.4479  0.8560
  127OSM    H5S13553   7.083   3.927   6.899 -0.7513 -0.1716 -0.1718
  127OSM    C6S13554   7.051   4.136   6.950 -0.1754  0.3701 -0.5379
  127OSM    H6S13555   6.975   4.108   7.025 -0.3913  1.7935 -0.2205
  127OSM    H6T13556   7.017   4.227   6.897  0.3748  0.2245 -1.1510
  127OSM    C7S13557   7.179   4.152   7.027 -0.2804  0.3433  0.2323
  127OSM    H7S13558   7.264   4.200   6.975 -0.1911  0.3424  0.3793
  127OSM    H7T13559   7.223   4.061   7.071 -0.9117  0.1458  0.4666
  127OSM    C8S13560   7.162   4.228   7.158 -0.1312  0.0536 -0.0246
  127OSM    H8S13561   7.073   4.198   7.216 -1.0235 -1.1834 -1.9806
  127OSM    H8T13562   7.144   4.333   7.125 -1.1294 -0.8081 -2.2980
  127OSM    C9S13563   7.285   4.233   7.246 -0.5258  0.1375 -0.7620
  127OSM    H9S13564   7.381   4.239   7.189  1.4649 -0.0318  2.4529
  127OSM    H9T13565   7.283   4.146   7.314 -1.8745  2.4524  2.2562
  127OSM   C10S13566   7.299   4.363   7.337 -0.3317 -0.0079  0.5749
  127OSM   H10S13567   7.328   4.450   7.273  0.6325  0.7685  2.0409
  127OSM   H10T13568   7.391   4.359   7.398  0.0919 -1.2324 -0.1363
  127OSM   C11S13569   7.167   4.395   7.411  0.3742 -0.2764  0.2702
  127OSM   H11S13570   7.087   4.404   7.334  0.1978  2.7650  0.7358
  127OSM   H11T13571   7.182   4.496   7.455 -1.2810 -0.3963  1.1843
  127OSM   C12S13572   7.128   4.283   7.505 -0.0435  0.1116  0.0498
  127OSM   H12S13573   7.219   4.221   7.515 -0.1242  0.1067  0.7719
  127OSM   H12T13574   7.063   4.214   7.447 -1.7580  2.0822 -0.4717
  127OSM   C13S13575   7.071   4.317   7.636  0.4279 -0.1928 -0.0049
  127OSM   H13S13576   6.984   4.382   7.611 -0.8475 -1.6879  0.4390
  127OSM   H13T13577   7.147   4.378   7.689 -1.2564  1.0063  1.0723
  127OSM   C14S13578   7.009   4.198   7.722 -0.3618  0.3330  0.7047
  127OSM   H14S13579   7.088   4.120   7.727  0.2121  0.8953  0.3559
  127OSM   H14T13580   6.920   4.154   7.671 -0.7403 -1.3948  2.8236
  127OSM   C15S13581   6.954   4.256   7.849 -0.3067 -0.2529 -1.0830
  127OSM   H15S13582   6.885   4.178   7.888 -1.0690  0.6486 -0.5980
  127OSM   H15T13583   6.888   4.346   7.846 -1.0022 -0.6918  0.3494
  127OSM   C16S13584   7.067   4.286   7.949 -1.1523  0.3160 -0.7621
  127OSM   H16S13585   7.121   4.378   7.916  1.1238 -0.6184  0.2691
  127OSM   H16T13586   7.142   4.205   7.953 -1.6976 -0.0896  1.5217
  127OSM   C17S13587   7.018   4.306   8.096  0.3996 -0.9349 -0.3592
  127OSM   H17S13588   7.080   4.250   8.170 -0.2227 -2.8005 -1.2096
  127OSM   H17T13589   6.910   4.281   8.108  0.3259  0.4056  2.1915
  127OSM   C18S13590   7.033   4.446   8.155  1.2159  0.4904  0.1028
  127OSM   H18S13591   6.986   4.440   8.256 -2.0737 -1.5693 -1.4758
  127OSM   H18T13592   6.988   4.521   8.087  0.3138  0.7584  0.9914
  127OSM   H18U13593   7.137   4.483   8.170  0.9171  1.3697  0.0740
  127OSM    C1F13594   7.478   3.911   6.668  0.1696 -1.1435  0.0748
  127OSM     OF13595   7.527   3.989   6.587  0.2107 -0.1720  0.1002
  127OSM    C2F13596   7.572   3.829   6.754 -0.1145  0.2811  0.0710
  127OSM    H2F13597   7.670   3.881   6.759  0.2814 -0.3386 -1.0972
  127OSM    H2G13598   7.584   3.735   6.697 -2.7326  0.0323 -0.1335
  127OSM    C3F13599   7.514   3.803   6.899 -0.2983 -0.3261  0.2460
  127OSM    H3F13600   7.591   3.758   6.965 -0.3756  1.4153  1.5511
  127OSM    H3G13601   7.425   3.737   6.899 -0.6398  0.0879  2.8688
  127OSM    C4F13602   7.479   3.933   6.968  0.1101  0.4898  0.0399
  127OSM    H4F13603   7.385   3.973   6.923 -0.7463 -0.3299  1.0567
  127OSM    H4G13604   7.546   4.009   6.924  1.3136 -0.4205  0.2762
  127OSM    C5F13605   7.463   3.920   7.114 -0.3924  0.3702  0.1526
  127OSM    H5F13606   7.435   4.017   7.162 -2.3543 -0.2781  0.3773
  127OSM    H5G13607   7.558   3.903   7.169  0.1684  1.6156 -0.3937
  127OSM    C6F13608   7.367   3.813   7.149 -0.1091 -0.1386 -0.1386
  127OSM    H6F13609   7.400   3.707   7.149 -0.4442 -0.2491  0.8806
  127OSM    H6G13610   7.291   3.818   7.069  0.7130  2.8610 -0.8029
  127OSM    C7F13611   7.290   3.848   7.277  0.5365 -0.0032 -0.0557
  127OSM    H7F13612   7.260   3.955   7.284  0.8503  0.1121 -0.4353
  127OSM    H7G13613   7.344   3.837   7.373  0.1708 -0.7148  0.0708
  127OSM    C8F13614   7.154   3.768   7.278  0.2801 -0.3562 -0.3794
  127OSM    H8F13615   7.093   3.803   7.191  0.3054  0.0209 -0.2468
  127OSM    H8G13616   7.098   3.798   7.370  1.8859 -0.1719  0.5468
  127OSM    C9F13617   7.157   3.620   7.290  0.1250  0.3993 -0.6953
  127OSM    H9F13618   7.148   3.562   7.197  1.4673  1.1177 -1.2927
  127OSM   C10F13619   7.142   3.552   7.406 -1.1095  0.4301  0.1647
  127OSM   H10F13620   7.154   3.442   7.405  0.9253  0.6194  1.1642
  127OSM   C11F13621   7.131   3.608   7.552 -0.6390  0.0681  0.2798
  127OSM   H11F13622   7.165   3.714   7.551  0.4430 -0.2664  0.3575
  127OSM   H11G13623   7.211   3.567   7.617  0.3235  2.5890  0.7439
  127OSM   C12F13624   6.996   3.595   7.616 -0.3106  0.1420 -0.3334
  127OSM   H12F13625   6.990   3.487   7.642  1.9086 -0.1978 -1.1377
  127OSM   H12G13626   6.915   3.624   7.546 -1.6008  2.0146  1.8462
  127OSM   C13F13627   6.970   3.687   7.738 -0.0148  0.0365  0.1507
  127OSM   H13F13628   7.006   3.791   7.726 -1.1652  0.8831  3.6066
  127OSM   H13G13629   7.041   3.647   7.814  0.4225 -1.6479 -1.1038
  127OSM   C14F13630   6.826   3.671   7.784  0.4942 -0.3943  0.7695
  127OSM   H14F13631   6.798   3.566   7.805  0.0888 -0.3031  0.6959
  127OSM   H14G13632   6.756   3.697   7.701  2.1613  2.3090  0.1460
  127OSM   C15F13633   6.801   3.752   7.921 -0.7340 -0.5936 -0.5917
  127OSM   H15F13634   6.852   3.695   8.002 -1.1788 -0.1366  0.0106
  127OSM   H15G13635   6.693   3.739   7.943 -1.3468  2.3814 -1.7110
  127OSM   C16F13636   6.857   3.898   7.925  0.3107  0.4138  0.0273
  127OSM   H16F13637   6.799   3.950   7.846 -0.5943 -0.0731  0.3775
  127OSM   H16G13638   6.967   3.900   7.905  0.5941 -0.6225  1.3770
  127OSM   C17F13639   6.833   3.951   8.060  0.3761 -0.2221 -0.3915
  127OSM   H17F13640   6.729   3.926   8.090 -0.4698  0.1907 -2.9307
  127OSM   H17G13641   6.842   4.062   8.056 -1.0808 -0.0785 -0.2280
  127OSM   C18F13642   6.926   3.896   8.170 -0.7879 -0.4118 -0.4174
  127OSM   H18F13643   6.908   3.945   8.268 -0.2310 -0.7176 -0.1607
  127OSM   H18G13644   7.030   3.925   8.141 -1.3513  1.5711 -0.5168
  127OSM   H18H13645   6.920   3.785   8.171  0.7229 -0.4954  0.7253
  128OSM      N13646   6.220   0.945   5.935 -0.3022  0.8687 -0.5306
  128OSM    C1513647   6.119   1.022   5.854 -0.1361 -0.7957  0.6668
  128OSM   H15A13648   6.016   1.016   5.886 -0.0495 -0.5280  1.0006
  128OSM   H15B13649   6.139   0.994   5.752  3.6069  0.3687  1.0033
  128OSM   H15C13650   6.147   1.126   5.848  0.4863 -1.0044 -0.1990
  128OSM    C1413651   6.211   0.804   5.918  0.0990  0.1321  0.2100
  128OSM   H14A13652   6.230   0.775   5.816 -2.5033 -0.5658 -0.1253
  128OSM   H14B13653   6.117   0.757   5.946 -0.7714  2.3048  0.9957
  128OSM   H14C13654   6.283   0.759   5.985  1.1710  2.1191  0.4208
  128OSM    C1313655   6.352   0.987   5.881  0.7447 -0.5855 -0.3292
  128OSM   H13A13656   6.427   0.941   5.943  0.7548 -0.1504 -0.0183
  128OSM   H13B13657   6.363   1.094   5.894  1.3746 -0.3665 -2.4330
  128OSM   H13C13658   6.354   0.962   5.776  1.1585  1.4058 -0.8137
  128OSM    C1213659   6.208   0.988   6.083 -0.3768 -0.4648 -0.2902
  128OSM   H12A13660   6.109   0.964   6.121 -0.0396  1.2165  1.6996
  128OSM   H12B13661   6.212   1.095   6.093  1.4314 -0.7998  3.3713
  128OSM    C1113662   6.312   0.937   6.188 -0.0439  0.3115 -0.1904
  128OSM   H11A13663   6.306   0.827   6.170 -0.0148  0.3278 -0.2994
  128OSM   H11B13664   6.275   0.951   6.291  0.3184  0.8001 -0.1239
  128OSM      P13665   6.493   1.134   6.209 -0.2683 -0.2901 -0.3881
  128OSM    O1313666   6.633   1.148   6.156 -0.6050 -0.2335  0.4653
  128OSM    O1413667   6.387   1.234   6.186 -0.3381  0.2420 -0.4690
  128OSM    O1113668   6.496   1.110   6.364 -0.3541  0.0349 -0.0422
  128OSM    O1213669   6.444   0.984   6.165 -0.7348  0.1825 -0.1466
  128OSM    C1S13670   6.526   0.988   6.427  0.0051  0.1794 -0.2614
  128OSM    H1S13671   6.632   0.965   6.403  0.3182  0.0233  1.2006
  128OSM    H1T13672   6.469   0.902   6.386  1.3228 -1.0373  0.4030
  128OSM     NF13673   6.564   0.873   6.645 -0.0283 -0.1792  0.0620
  128OSM    HNF13674   6.492   0.812   6.678 -2.5315  2.2158 -0.7781
  128OSM    C2S13675   6.508   0.996   6.579 -0.5297  0.0347  0.1036
  128OSM    H2S13676   6.569   1.079   6.621  0.1683 -1.4318  2.1030
  128OSM    C3S13677   6.357   1.040   6.605  0.0525  0.5462 -0.0072
  128OSM    H3S13678   6.291   0.978   6.541  0.4357 -1.5260  1.5457
  128OSM     O313679   6.324   1.176   6.573  0.2298 -0.1424 -0.7334
  128OSM    HO313680   6.375   1.185   6.491  0.2845  0.8069 -0.5972
  128OSM    C4S13681   6.328   1.023   6.751  0.2554  0.1645  0.1702
  128OSM    H4S13682   6.289   0.923   6.778 -0.1754  0.3236  0.1360
  128OSM    C5S13683   6.340   1.108   6.858  0.0397  0.5232 -0.3545
  128OSM    H5S13684   6.389   1.203   6.833 -0.7518  0.6574 -1.4355
  128OSM    C6S13685   6.300   1.089   7.002  0.5527  0.2708  0.5756
  128OSM    H6S13686   6.297   0.983   7.033 -0.1060  0.4587  1.1944
  128OSM    H6T13687   6.193   1.119   7.001 -0.1542 -2.1863 -1.1577
  128OSM    C7S13688   6.374   1.165   7.117  0.0374  0.0840 -0.6279
  128OSM    H7S13689   6.356   1.274   7.104  1.9491  0.3441 -1.2312
  128OSM    H7T13690   6.484   1.154   7.119  0.1287  0.6341 -2.1832
  128OSM    C8S13691   6.325   1.128   7.254  0.0702 -0.0245  0.6619
  128OSM    H8S13692   6.288   1.023   7.265 -1.2259  0.5666  2.1331
  128OSM    H8T13693   6.238   1.189   7.284  0.3740  0.2847  0.9085
  128OSM    C9S13694   6.429   1.148   7.363  0.2762 -0.8238  0.2705
  128OSM    H9S13695   6.470   1.251   7.370 -1.4789 -0.1151  0.1160
  128OSM    H9T13696   6.504   1.070   7.338  1.4911  0.5746 -0.5078
  128OSM   C10S13697   6.380   1.119   7.508 -0.2036  0.4196 -0.4252
  128OSM   H10S13698   6.340   1.016   7.506 -0.1716  0.4053 -0.3498
  128OSM   H10T13699   6.287   1.171   7.538  1.1604  2.4748  0.4081
  128OSM   C11S13700   6.490   1.117   7.626  0.2434 -0.3834 -0.0798
  128OSM   H11S13701   6.505   1.226   7.645 -0.6303  0.1713 -2.4444
  128OSM   H11T13702   6.584   1.068   7.595 -0.0877  0.1115 -1.9217
  128OSM   C12S13703   6.437   1.050   7.759 -0.2454 -1.6478  0.2862
  128OSM   H12S13704   6.522   1.036   7.829  1.9087  1.4794 -1.5244
  128OSM   H12T13705   6.393   0.951   7.736 -1.8246 -0.7574 -0.6396
  128OSM   C13S13706   6.308   1.121   7.809 -0.0568 -0.0126  0.3807
  128OSM   H13S13707   6.221   1.107   7.742 -1.4608 -2.9747  2.6909
  128OSM   H13T13708   6.336   1.229   7.816  0.7332 -0.1380 -0.7158
  128OSM   C14S13709   6.278   1.066   7.947  0.2463 -0.0356  0.2340
  128OSM   H14S13710   6.371   1.075   8.007 -0.7865 -2.3301  2.2820
  128OSM   H14T13711   6.272   0.955   7.934  0.8491  0.2173 -2.4869
  128OSM   C15S13712   6.153   1.139   8.002 -0.0692  0.7858 -0.2450
  128OSM   H15S13713   6.079   1.127   7.920 -0.2109  0.6332 -0.0939
  128OSM   H15T13714   6.179   1.247   7.990 -2.1247  1.1725 -1.5534
  128OSM   C16S13715   6.106   1.107   8.143 -0.0748  0.1597  0.2933
  128OSM   H16S13716   6.083   1.000   8.161 -0.3754 -0.2946 -2.4805
  128OSM   H16T13717   6.018   1.164   8.179 -1.8480 -2.1358 -0.2210
  128OSM   C17S13718   6.223   1.131   8.248 -0.8976 -0.3996 -0.0413
  128OSM   H17S13719   6.255   1.236   8.233  0.0497 -0.7120 -0.2616
  128OSM   H17T13720   6.296   1.052   8.218 -3.0025 -2.0526 -0.9776
  128OSM   C18S13721   6.172   1.092   8.389 -0.8498 -0.3601 -0.1322
  128OSM   H18S13722   6.246   1.112   8.470 -1.3647  1.1678 -0.0197
  128OSM   H18T13723   6.142   0.986   8.401  0.1794 -0.5518  0.8282
  128OSM   H18U13724   6.093   1.164   8.418 -1.5179 -1.5715  1.0928
  128OSM    C1F13725   6.688   0.847   6.649  0.2228 -0.7504  0.1807
  128OSM     OF13726   6.769   0.930   6.620  0.3636 -0.4596  0.2960
  128OSM    C2F13727   6.731   0.709   6.685 -0.0536  0.3636  0.4698
  128OSM    H2F13728   6.757   0.643   6.599  3.3413 -0.2598  1.8814
  128OSM    H2G13729   6.637   0.667   6.727  1.7406 -0.3635  3.9608
  128OSM    C3F13730   6.848   0.702   6.791  0.3951  0.2662 -0.5001
  128OSM    H3F13731   6.817   0.747   6.888  1.1906  0.4008 -0.3069
  128OSM    H3G13732   6.939   0.752   6.751  2.1715 -1.9700  0.6421
  128OSM    C4F13733   6.886   0.558   6.834  0.2902 -0.1026 -0.5349
  128OSM    H4F13734   6.919   0.507   6.741  0.3996 -0.4922 -0.2830
  128OSM    H4G13735   6.787   0.512   6.857  0.0826  0.3222 -0.5789
  128OSM    C5F13736   6.978   0.535   6.951 -0.6416  0.9011  0.2826
  128OSM    H5F13737   7.002   0.627   7.008 -1.5390  0.7116  0.9647
  128OSM    H5G13738   7.070   0.495   6.903 -0.6232  0.5107  0.6422
  128OSM    C6F13739   6.938   0.430   7.057  0.2055  0.2502  0.4125
  128OSM    H6F13740   6.903   0.341   6.999 -3.7121  1.8959  0.0928
  128OSM    H6G13741   6.850   0.476   7.106 -1.6537 -0.4354 -2.1367
  128OSM    C7F13742   7.054   0.388   7.146 -0.4800 -0.5476 -0.1757
  128OSM    H7F13743   7.088   0.481   7.196 -0.4090 -1.5631  1.7301
  128OSM    H7G13744   7.131   0.348   7.077 -0.8457 -1.0867 -0.2804
  128OSM    C8F13745   7.034   0.283   7.262  0.7160 -0.1606 -0.0774
  128OSM    H8F13746   6.954   0.319   7.331  1.2288  2.3484 -0.7394
  128OSM    H8G13747   7.130   0.279   7.319  0.5052 -2.9398  0.1446
  128OSM    C9F13748   6.994   0.146   7.216 -0.2798 -1.0009  0.5118
  128OSM    H9F13749   6.925   0.141   7.131  0.8664 -1.5426 -0.4028
  128OSM   C10F13750   7.032   0.036   7.283 -0.1501  0.0889 -0.0961
  128OSM   H10F13751   6.998  -0.064   7.250  0.7413  0.7323 -3.1908
  128OSM   C11F13752   7.110   0.024   7.410 -0.4272  0.4061  0.1987
  128OSM   H11F13753   7.133   0.121   7.460 -0.9704  0.3361  0.5863
  128OSM   H11G13754   7.207  -0.028   7.395  0.8069  0.9345  5.4406
  128OSM   C12F13755   7.019  -0.040   7.513 -0.6564  0.4482 -0.2081
  128OSM   H12F13756   6.960  -0.124   7.471 -0.3337 -0.3778  0.9481
  128OSM   H12G13757   6.946   0.032   7.556  0.5360  0.7540  1.3999
  128OSM   C13F13758   7.082  -0.087   7.646 -0.3681  0.4668  0.2254
  128OSM   H13F13759   7.122  -0.001   7.704 -0.6884 -0.3894  1.7415
  128OSM   H13G13760   7.170  -0.153   7.639 -0.3742  0.4372  0.4203
  128OSM   C14F13761   6.966  -0.158   7.719  0.1348  0.9251 -0.7810
  128OSM   H14F13762   6.929  -0.239   7.653  0.4384  0.4351 -0.3529
  128OSM   H14G13763   6.876  -0.093   7.726 -1.9044 -1.8826 -0.1129
  128OSM   C15F13764   7.012  -0.220   7.850 -0.6067 -0.6994 -0.0290
  128OSM   H15F13765   7.065  -0.144   7.911  1.3359 -0.7097 -1.6540
  128OSM   H15G13766   7.099  -0.285   7.827  1.7909  3.1432 -2.2626
  128OSM   C16F13767   6.901  -0.292   7.929  0.2652 -0.3585 -0.2122
  128OSM   H16F13768   6.867  -0.382   7.873  0.8149 -0.4983 -0.3174
  128OSM   H16G13769   6.812  -0.225   7.939  0.5228 -0.0680  0.1169
  128OSM   C17F13770   6.946  -0.335   8.072  0.3018  0.6791  0.4518
  128OSM   H17F13771   7.001  -0.247   8.113  2.6751 -0.4171 -0.2462
  128OSM   H17G13772   7.020  -0.415   8.049  1.8504  2.0905  0.3966
  128OSM   C18F13773   6.822  -0.378   8.154 -0.1625  0.4213  0.2332
  128OSM   H18F13774   6.770  -0.469   8.114 -0.3371 -0.6394  2.7998
  128OSM   H18G13775   6.763  -0.285   8.171  0.4881  0.4583  2.3155
  128OSM   H18H13776   6.852  -0.411   8.256 -1.7540 -0.4276  0.4483
  129OSM      N13777   4.003   2.247   6.407 -0.1481 -0.2499  0.2277
  129OSM    C1513778   4.032   2.224   6.257 -0.0473 -0.1172 -0.4001
  129OSM   H15A13779   3.943   2.214   6.196 -0.9656  2.0384  0.5369
  129OSM   H15B13780   4.103   2.145   6.239 -2.2087 -2.0278 -0.7085
  129OSM   H15C13781   4.091   2.306   6.219  0.6688  0.4599  1.8700
  129OSM    C1413782   3.935   2.379   6.419 -0.0508 -0.5873 -0.2427
  129OSM   H14A13783   3.882   2.399   6.511 -0.9817 -2.3023 -0.3911
  129OSM   H14B13784   3.861   2.386   6.341  0.1501 -0.3923 -0.4158
  129OSM   H14C13785   4.013   2.452   6.401  0.3442 -0.5288  1.5558
  129OSM    C1313786   3.920   2.142   6.471 -0.2789 -0.0661 -0.1376
  129OSM   H13A13787   3.836   2.118   6.408 -1.2608  0.9019  0.8076
  129OSM   H13B13788   3.890   2.176   6.569 -0.7552  5.0261 -1.9402
  129OSM   H13C13789   3.989   2.060   6.486  2.4112  2.2848  0.9277
  129OSM    C1213790   4.141   2.261   6.476  0.4543 -0.3643  0.8452
  129OSM   H12A13791   4.128   2.283   6.580  1.9484 -0.9306  1.1592
  129OSM   H12B13792   4.191   2.352   6.447 -0.7760  0.7363  2.1161
  129OSM    C1113793   4.238   2.146   6.466 -0.0681 -0.3323 -0.2035
  129OSM   H11A13794   4.178   2.056   6.493 -2.7920  1.1308 -1.2170
  129OSM   H11B13795   4.311   2.159   6.548 -2.4655  1.6577  1.6919
  129OSM      P13796   4.415   2.233   6.306  0.1705  0.4313 -0.3106
  129OSM    O1313797   4.500   2.181   6.199 -0.2432 -0.1089 -0.6784
  129OSM    O1413798   4.364   2.368   6.290 -0.2479 -0.5159 -0.1338
  129OSM    O1113799   4.505   2.240   6.440  0.4182  0.2196 -0.4678
  129OSM    O1213800   4.299   2.133   6.336 -0.7943  0.3091  0.8094
  129OSM    C1S13801   4.620   2.157   6.445  0.0262 -0.1734 -0.0995
  129OSM    H1S13802   4.700   2.197   6.378  0.0932 -1.3189 -0.7095
  129OSM    H1T13803   4.591   2.053   6.420 -0.1652  0.5029 -2.8764
  129OSM     NF13804   4.795   2.057   6.595 -0.5151 -0.3277 -0.3188
  129OSM    HNF13805   4.772   1.981   6.655  0.7657 -0.9644 -0.6189
  129OSM    C2S13806   4.686   2.153   6.590  0.2923  0.3330  0.6430
  129OSM    H2S13807   4.730   2.254   6.608  0.5169  0.3453  0.0676
  129OSM    C3S13808   4.567   2.132   6.687 -0.0548 -0.1053  0.4667
  129OSM    H3S13809   4.494   2.075   6.625  0.0096 -0.1660  0.4467
  129OSM     O313810   4.493   2.250   6.712 -0.2629  0.5146 -0.2684
  129OSM    HO313811   4.486   2.289   6.625  2.8377  2.2982  0.2149
  129OSM    C4S13812   4.613   2.091   6.821 -0.6745 -1.0648 -0.5707
  129OSM    H4S13813   4.641   2.180   6.879 -1.8804 -1.5632  0.8262
  129OSM    C5S13814   4.641   1.969   6.866 -0.0076  0.2352 -0.6615
  129OSM    H5S13815   4.618   1.882   6.803  1.2028  0.4212 -1.3818
  129OSM    C6S13816   4.690   1.933   7.005  0.4345 -0.4370 -0.2144
  129OSM    H6S13817   4.795   1.897   6.996  0.0630 -1.8024  0.7236
  129OSM    H6T13818   4.639   1.842   7.044  0.2548 -0.7102 -1.0706
  129OSM    C7S13819   4.670   2.044   7.119  0.0611  0.0507 -0.6363
  129OSM    H7S13820   4.562   2.065   7.136  0.2699  1.0659 -0.5356
  129OSM    H7T13821   4.717   2.142   7.097  0.0384 -0.3490 -2.6284
  129OSM    C8S13822   4.722   1.996   7.258  0.5000 -0.6765  0.5759
  129OSM    H8S13823   4.825   1.959   7.243  0.8530  0.6769 -0.4318
  129OSM    H8T13824   4.664   1.911   7.300 -2.0359  1.3904  1.4508
  129OSM    C9S13825   4.715   2.104   7.367 -0.9519  0.7565 -0.2102
  129OSM    H9S13826   4.617   2.156   7.362 -0.1198  2.1732 -2.6079
  129OSM    H9T13827   4.790   2.186   7.370 -1.1549  0.9134  1.0629
  129OSM   C10S13828   4.711   2.036   7.514 -0.3994  0.0882  0.6324
  129OSM   H10S13829   4.808   1.981   7.519 -0.8887 -0.8207  0.2391
  129OSM   H10T13830   4.630   1.961   7.524 -2.3091  1.8280 -1.1678
  129OSM   C11S13831   4.709   2.140   7.617  0.1702 -0.0278  0.4300
  129OSM   H11S13832   4.609   2.187   7.607  0.1245 -0.4889 -1.3601
  129OSM   H11T13833   4.786   2.219   7.604  1.0518 -1.1901 -1.6300
  129OSM   C12S13834   4.719   2.077   7.755 -0.1966 -0.5625  0.3335
  129OSM   H12S13835   4.820   2.086   7.799  0.4126 -4.2087 -0.1206
  129OSM   H12T13836   4.697   1.969   7.744 -3.2040  0.2204 -1.9530
  129OSM   C13S13837   4.607   2.121   7.860 -0.6251  0.2608 -0.0980
  129OSM   H13S13838   4.508   2.078   7.834 -0.6387 -2.0816  3.4395
  129OSM   H13T13839   4.619   2.230   7.842  1.3609  0.0701  0.0242
  129OSM   C14S13840   4.650   2.072   8.005 -0.3000  0.0712  0.2263
  129OSM   H14S13841   4.748   2.117   8.033 -1.0436  0.0670  2.9327
  129OSM   H14T13842   4.649   1.961   8.005 -0.1100  0.0686  0.2445
  129OSM   C15S13843   4.554   2.121   8.118  0.0196 -0.5611  0.4423
  129OSM   H15S13844   4.450   2.094   8.092 -0.4811 -2.2863  3.9863
  129OSM   H15T13845   4.559   2.232   8.122  2.9272 -0.4458 -3.0624
  129OSM   C16S13846   4.568   2.053   8.252 -0.2756  0.2165 -0.3871
  129OSM   H16S13847   4.669   2.069   8.296  0.4313 -0.5311 -1.7058
  129OSM   H16T13848   4.539   1.946   8.248  0.9022 -0.1210 -0.1684
  129OSM   C17S13849   4.459   2.099   8.357  0.4539  0.7875 -0.5614
  129OSM   H17S13850   4.361   2.079   8.309 -0.7644  1.7035  1.4912
  129OSM   H17T13851   4.464   2.208   8.376 -3.0058  0.5430  2.3200
  129OSM   C18S13852   4.472   2.020   8.488  0.8494 -0.4806 -0.3889
  129OSM   H18S13853   4.440   1.916   8.465 -1.4733 -0.2518  1.5209
  129OSM   H18T13854   4.409   2.072   8.563  0.8113 -3.2698  1.5914
  129OSM   H18U13855   4.574   2.025   8.532 -0.0979 -0.1378  1.8415
  129OSM    C1F13856   4.914   2.064   6.529  0.3634 -0.1054 -0.2477
  129OSM     OF13857   4.942   2.159   6.448 -0.2567 -0.1144  0.0636
  129OSM    C2F13858   5.014   1.957   6.554 -0.2548 -0.0038  0.0745
  129OSM    H2F13859   5.072   1.941   6.460 -2.4782 -0.9215 -1.1814
  129OSM    H2G13860   4.964   1.861   6.579 -2.6733  0.8214 -1.4389
  129OSM    C3F13861   5.120   2.006   6.665 -0.0370 -0.2389  0.5191
  129OSM    H3F13862   5.066   2.055   6.749 -2.0190 -0.9512 -0.3046
  129OSM    H3G13863   5.169   2.083   6.600  0.8507 -1.1074  0.1470
  129OSM    C4F13864   5.209   1.894   6.722  1.1891  0.4305  0.1008
  129OSM    H4F13865   5.255   1.942   6.812 -0.9107  1.0155  0.9010
  129OSM    H4G13866   5.285   1.863   6.647  0.8577 -0.5971  0.1816
  129OSM    C5F13867   5.119   1.781   6.770  0.3878  0.0931 -0.8312
  129OSM    H5F13868   5.076   1.724   6.685  0.9063 -0.9129 -0.4277
  129OSM    H5G13869   5.031   1.813   6.830 -0.7276 -2.8466 -0.8485
  129OSM    C6F13870   5.212   1.678   6.834 -0.1256  0.1811  0.0601
  129OSM    H6F13871   5.200   1.676   6.944 -0.1320 -1.3727  0.0488
  129OSM    H6G13872   5.314   1.714   6.809  0.5758  1.5494  4.4491
  129OSM    C7F13873   5.200   1.530   6.779 -0.9954 -0.0462  0.0113
  129OSM    H7F13874   5.202   1.533   6.668 -3.0366  0.5099 -0.0179
  129OSM    H7G13875   5.108   1.478   6.812  0.1046 -1.4451  0.9478
  129OSM    C8F13876   5.318   1.439   6.826  0.5286  0.2181 -0.7490
  129OSM    H8F13877   5.407   1.493   6.787 -0.2280  1.2694 -1.0345
  129OSM    H8G13878   5.317   1.343   6.771  2.5745  0.2156 -0.8230
  129OSM    C9F13879   5.325   1.413   6.976 -0.3166 -0.3822  0.2423
  129OSM    H9F13880   5.305   1.501   7.040  2.4140  0.1462  0.4203
  129OSM   C10F13881   5.354   1.303   7.049  0.4299 -0.1433  0.2151
  129OSM   H10F13882   5.371   1.314   7.157  1.8759  1.4313 -0.1442
  129OSM   C11F13883   5.382   1.166   6.975  0.1573  0.1657 -0.4936
  129OSM   H11F13884   5.471   1.127   7.028 -0.6818 -1.4353 -0.2282
  129OSM   H11G13885   5.407   1.179   6.868  0.5000  3.0085 -0.1031
  129OSM   C12F13886   5.258   1.070   6.990  0.8797 -0.2260  0.1711
  129OSM   H12F13887   5.290   0.976   6.941  3.4682  0.8490 -0.3367
  129OSM   H12G13888   5.182   1.114   6.922 -0.4383 -1.2949  0.9496
  129OSM   C13F13889   5.210   1.037   7.135 -1.1967  0.2992  0.6906
  129OSM   H13F13890   5.198   1.129   7.196  0.7581  0.8907  0.2064
  129OSM   H13G13891   5.297   0.994   7.188 -1.9011 -3.1783 -0.8332
  129OSM   C14F13892   5.097   0.931   7.152 -0.0200 -0.2974 -0.3576
  129OSM   H14F13893   5.010   0.965   7.092  0.5335 -0.0414 -1.0217
  129OSM   H14G13894   5.067   0.920   7.259  5.9100  2.5222  1.8330
  129OSM   C15F13895   5.131   0.793   7.102  0.5008  0.2917 -0.6758
  129OSM   H15F13896   5.209   0.755   7.171 -1.0325 -1.2923  0.2384
  129OSM   H15G13897   5.168   0.815   7.000  2.4031  2.3806  0.4287
  129OSM   C16F13898   5.009   0.696   7.100  0.0150 -0.0919 -0.3002
  129OSM   H16F13899   5.033   0.600   7.050  0.0038  0.8489 -2.1274
  129OSM   H16G13900   4.941   0.747   7.029 -1.5629 -3.0039 -0.9575
  129OSM   C17F13901   4.942   0.671   7.238 -0.1719 -0.6992  0.3701
  129OSM   H17F13902   4.840   0.634   7.213 -0.6143  1.1293 -0.6265
  129OSM   H17G13903   4.928   0.768   7.291  1.2077  0.9365 -2.1480
  129OSM   C18F13904   5.016   0.567   7.325 -0.3102  0.1679 -0.0632
  129OSM   H18F13905   5.124   0.592   7.322 -0.4098  0.4041 -2.5598
  129OSM   H18G13906   4.996   0.473   7.269  1.9953  0.0701 -0.7600
  129OSM   H18H13907   4.982   0.549   7.430 -0.1865 -2.9815 -0.5127
  130OSM      N13908   5.419   5.595   5.989 -0.1160 -0.3791 -0.1698
  130OSM    C1513909   5.322   5.528   6.086 -0.0285  0.3308  0.1540
  130OSM   H15A13910   5.368   5.535   6.184  0.1783 -1.6681  0.2358
  130OSM   H15B13911   5.301   5.424   6.066 -0.4898  0.3966  0.3060
  130OSM   H15C13912   5.231   5.583   6.101 -0.9748  0.1544 -4.2350
  130OSM    C1413913   5.561   5.543   6.006 -0.1706 -0.5426  1.3047
  130OSM   H14A13914   5.589   5.570   6.107 -1.1460  0.6369  1.2675
  130OSM   H14B13915   5.628   5.588   5.935 -1.8089  1.0188  0.7170
  130OSM   H14C13916   5.570   5.436   5.993  1.7192 -0.2215 -0.2660
  130OSM    C1313917   5.363   5.558   5.852  0.0366  0.0114  0.3744
  130OSM   H13A13918   5.256   5.564   5.851 -0.0325 -1.1605 -1.3499
  130OSM   H13B13919   5.397   5.456   5.841 -1.5238 -0.5132  0.2901
  130OSM   H13C13920   5.397   5.623   5.773  2.2545 -0.7552  0.6619
  130OSM    C1213921   5.416   5.751   6.003 -0.6091  0.6678  0.5038
  130OSM   H12A13922   5.318   5.780   5.969 -0.0643  1.2394 -0.5897
  130OSM   H12B13923   5.481   5.792   5.928 -0.2636 -1.7369 -0.5596
  130OSM    C1113924   5.449   5.810   6.139 -0.1474 -0.2582  0.1721
  130OSM   H11A13925   5.383   5.772   6.221  2.1560 -1.4722  1.5117
  130OSM   H11B13926   5.409   5.913   6.130  1.7275  0.7957  3.2009
  130OSM      P13927   5.640   5.778   6.311 -0.1767 -0.2273  0.0993
  130OSM    O1313928   5.580   5.648   6.347 -0.0155 -0.2843 -0.3289
  130OSM    O1413929   5.785   5.798   6.313 -0.5778  0.5521 -0.4924
  130OSM    O1113930   5.576   5.885   6.399 -0.3578  0.3381 -0.3340
  130OSM    O1213931   5.592   5.821   6.168  0.1364  0.3885  0.0622
  130OSM    C1S13932   5.464   5.876   6.486  0.1384  0.7193 -0.1282
  130OSM    H1S13933   5.378   5.843   6.423 -0.3509 -1.1453  1.5098
  130OSM    H1T13934   5.440   5.982   6.508  2.4097  1.0670  0.7128
  130OSM     NF13935   5.361   5.818   6.686 -0.6032 -0.0388  0.1295
  130OSM    HNF13936   5.351   5.876   6.767 -3.7371  0.6939 -0.6735
  130OSM    C2S13937   5.486   5.816   6.622 -0.0482  0.1671  0.1472
  130OSM    H2S13938   5.523   5.711   6.618  1.1994  0.5899  0.2066
  130OSM    C3S13939   5.600   5.895   6.702 -0.5525  0.6360  0.5696
  130OSM    H3S13940   5.571   5.999   6.729 -2.7762  0.0557  0.5474
  130OSM     O313941   5.717   5.924   6.634  0.1197 -0.0092 -0.5554
  130OSM    HO313942   5.681   5.946   6.548 -0.9917  0.2578 -0.0363
  130OSM    C4S13943   5.624   5.823   6.835  0.2926  0.1675 -0.1482
  130OSM    H4S13944   5.560   5.867   6.913  1.3828 -0.2701  1.0058
  130OSM    C5S13945   5.716   5.732   6.866 -0.2830 -0.5267  0.4303
  130OSM    H5S13946   5.788   5.703   6.788 -1.5484  0.7965 -1.2820
  130OSM    C6S13947   5.734   5.661   6.996  0.2792 -0.4480 -0.0905
  130OSM    H6S13948   5.842   5.679   7.013 -0.0367 -0.2750  1.8044
  130OSM    H6T13949   5.721   5.552   6.977  4.2546 -1.0788  0.4631
  130OSM    C7S13950   5.658   5.703   7.123 -0.3127 -0.2613 -0.2328
  130OSM    H7S13951   5.550   5.705   7.096 -0.1144  0.9762 -0.9821
  130OSM    H7T13952   5.688   5.806   7.151  1.5474 -0.5215 -1.2423
  130OSM    C8S13953   5.685   5.615   7.241  0.4041  0.4736 -0.0555
  130OSM    H8S13954   5.795   5.601   7.246  0.5044  1.6769  1.5044
  130OSM    H8T13955   5.633   5.517   7.234  0.2677  0.4681  0.8580
  130OSM    C9S13956   5.629   5.673   7.380  0.7144  0.6344 -0.7859
  130OSM    H9S13957   5.655   5.592   7.451 -2.0619 -2.7312 -3.5084
  130OSM    H9T13958   5.519   5.678   7.375  0.6498 -1.6125 -2.0919
  130OSM   C10S13959   5.687   5.800   7.420  0.5153 -0.2818 -0.4426
  130OSM   H10S13960   5.662   5.871   7.339  1.7101  0.7728  0.0856
  130OSM   H10T13961   5.797   5.788   7.431  0.5568  0.3866 -0.1085
  130OSM   C11S13962   5.625   5.861   7.546  0.0023  0.2422 -0.9605
  130OSM   H11S13963   5.515   5.849   7.536  0.0678 -2.5488  1.4133
  130OSM   H11T13964   5.638   5.970   7.567  0.3170 -0.2965  1.7567
  130OSM   C12S13965   5.669   5.795   7.678  0.6678 -0.3392  0.0505
  130OSM   H12S13966   5.780   5.798   7.686  0.5840  1.8831  0.8512
  130OSM   H12T13967   5.635   5.689   7.678  1.5187 -0.6142 -0.5144
  130OSM   C13S13968   5.604   5.865   7.802  0.1529 -0.3699  0.0691
  130OSM   H13S13969   5.571   5.969   7.782  1.4187  0.0168 -0.0626
  130OSM   H13T13970   5.684   5.874   7.879 -0.9020 -0.1498  1.1570
  130OSM   C14S13971   5.473   5.801   7.857  0.1459 -0.3358  0.3901
  130OSM   H14S13972   5.488   5.693   7.879 -1.4084 -0.7110 -0.3094
  130OSM   H14T13973   5.388   5.808   7.786 -0.3012 -2.2449  0.7013
  130OSM   C15S13974   5.406   5.861   7.989  0.5684 -0.1027  0.1048
  130OSM   H15S13975   5.380   5.969   7.978 -0.6906 -0.4963 -0.8593
  130OSM   H15T13976   5.492   5.864   8.060 -0.0965 -3.4442  1.1208
  130OSM   C16S13977   5.288   5.784   8.057 -0.2316  0.5161 -0.0872
  130OSM   H16S13978   5.321   5.685   8.096  3.0590  0.1420 -3.5139
  130OSM   H16T13979   5.198   5.764   7.996  1.2501 -1.8136 -1.5880
  130OSM   C17S13980   5.226   5.865   8.176 -0.6820  0.5864  0.5145
  130OSM   H17S13981   5.134   5.809   8.201  0.2993 -2.1499 -1.6283
  130OSM   H17T13982   5.180   5.961   8.145 -1.6537 -0.2029 -0.5212
  130OSM   C18S13983   5.324   5.891   8.293 -0.1126  0.3282  0.1528
  130OSM   H18S13984   5.275   5.949   8.374 -0.2002 -0.3675  0.6090
  130OSM   H18T13985   5.410   5.946   8.248 -0.7423  0.9496 -0.2961
  130OSM   H18U13986   5.361   5.792   8.330  0.5294 -0.0329 -1.4128
  130OSM    C1F13987   5.248   5.759   6.648  0.6417  0.1936  0.5116
  130OSM     OF13988   5.227   5.707   6.538 -0.1091  0.2586 -0.2145
  130OSM    C2F13989   5.143   5.756   6.755  0.0761 -0.2100 -0.3265
  130OSM    H2F13990   5.183   5.780   6.856 -0.9290  2.2245 -0.4557
  130OSM    H2G13991   5.116   5.649   6.765 -2.3179  0.3501 -0.4453
  130OSM    C3F13992   5.018   5.834   6.718  0.4625  0.5036  0.0592
  130OSM    H3F13993   4.971   5.773   6.638  0.3313  0.7250 -0.0346
  130OSM    H3G13994   5.044   5.933   6.674 -2.5713  0.2612 -2.4804
  130OSM    C4F13995   4.906   5.849   6.823 -0.4792 -0.3395  0.9930
  130OSM    H4F13996   4.888   5.750   6.869 -1.3673 -0.9811 -0.6780
  130OSM    H4G13997   4.808   5.876   6.777 -0.3930 -0.7298  0.5748
  130OSM    C5F13998   4.945   5.953   6.926  0.3081 -0.0087  0.8295
  130OSM    H5F13999   4.962   6.052   6.879 -0.7936 -0.0769  0.2632
  130OSM    H5G14000   5.034   5.911   6.977  0.0559 -1.0386  0.4402
  130OSM    C6F14001   4.845   5.970   7.042  0.1933 -0.2016 -0.0622
  130OSM    H6F14002   4.812   5.878   7.096  1.4059 -0.2124  0.6788
  130OSM    H6G14003   4.748   6.015   7.013 -0.7256  0.5252  3.7641
  130OSM    C7F14004   4.907   6.054   7.158  0.2731  0.2885  0.5517
  130OSM    H7F14005   4.960   6.145   7.123  2.4268 -1.2804 -0.4168
  130OSM    H7G14006   4.979   5.987   7.210 -0.7166 -0.9027  0.4120
  130OSM    C8F14007   4.795   6.096   7.252  0.0029  0.2867 -0.0263
  130OSM    H8F14008   4.735   6.011   7.292  0.1445  0.6035  0.8824
  130OSM    H8G14009   4.708   6.131   7.193  1.0366  0.8449 -1.2522
  130OSM    C9F14010   4.837   6.203   7.347  0.2174 -0.2710 -0.1225
  130OSM    H9F14011   4.894   6.286   7.303 -0.2220 -0.2386 -0.6299
  130OSM   C10F14012   4.794   6.216   7.473  0.8148  0.0922  0.0407
  130OSM   H10F14013   4.825   6.306   7.528 -0.0764 -0.8252  2.0756
  130OSM   C11F14014   4.692   6.136   7.549 -0.4778 -0.1629 -0.3219
  130OSM   H11F14015   4.690   6.029   7.521 -0.7271 -0.4403  0.7414
  130OSM   H11G14016   4.591   6.173   7.522 -0.2096  0.9654  0.1856
  130OSM   C12F14017   4.708   6.159   7.701 -0.0828  0.2998  0.3590
  130OSM   H12F14018   4.815   6.156   7.729 -0.1897 -1.3960  0.6661
  130OSM   H12G14019   4.656   6.069   7.740  0.2929 -0.7543 -1.4698
  130OSM   C13F14020   4.658   6.297   7.744 -0.4196 -0.4582 -0.5524
  130OSM   H13F14021   4.553   6.313   7.712 -0.5494  1.6697  0.7928
  130OSM   H13G14022   4.728   6.363   7.689  1.9629 -3.7253 -1.5744
  130OSM   C14F14023   4.671   6.325   7.889  0.7345  0.5081 -0.3324
  130OSM   H14F14024   4.776   6.320   7.924  0.5985 -1.6185 -0.1617
  130OSM   H14G14025   4.612   6.253   7.950 -0.0118  1.7112  0.3864
  130OSM   C15F14026   4.608   6.457   7.924 -0.8769 -0.1833 -0.3990
  130OSM   H15F14027   4.498   6.442   7.922 -1.0367  0.6585  1.3479
  130OSM   H15G14028   4.635   6.534   7.848  2.8087  1.0830  2.0799
  130OSM   C16F14029   4.664   6.514   8.051 -0.3601 -0.2065 -0.4438
  130OSM   H16F14030   4.772   6.540   8.041 -0.8612  2.8925  1.5899
  130OSM   H16G14031   4.668   6.432   8.126 -3.2548 -0.3351 -0.3945
  130OSM   C17F14032   4.598   6.647   8.099  1.1388 -0.3993 -0.0312
  130OSM   H17F14033   4.508   6.660   8.036  1.2026  0.2827  0.0153
  130OSM   H17G14034   4.663   6.734   8.076  0.3188 -0.0230 -0.9540
  130OSM   C18F14035   4.533   6.650   8.246 -0.6897 -0.5240  0.0430
  130OSM   H18F14036   4.440   6.590   8.233  0.6097 -2.0366 -2.9201
  130OSM   H18G14037   4.517   6.751   8.288 -0.3278 -0.6258  0.4230
  130OSM   H18H14038   4.608   6.599   8.310 -0.0179  1.2981  0.7118
  131OSM      N14039   6.503   4.210   6.463 -0.7410  0.1018  0.0244
  131OSM    C1514040   6.459   4.179   6.598 -0.7908 -0.2957  0.1042
  131OSM   H15A14041   6.351   4.192   6.598 -0.7996 -0.2475  2.2400
  131OSM   H15B14042   6.508   4.242   6.670  1.1893 -1.5721 -0.1165
  131OSM   H15C14043   6.481   4.080   6.634 -1.3243 -0.3948  0.1624
  131OSM    C1414044   6.498   4.357   6.442 -0.0346 -0.7020  0.0132
  131OSM   H14A14045   6.394   4.384   6.430  0.3543  0.5926 -0.5393
  131OSM   H14B14046   6.563   4.393   6.363  0.8922  0.8035  1.4277
  131OSM   H14C14047   6.520   4.420   6.527  1.3538 -0.7479 -0.2990
  131OSM    C1314048   6.644   4.163   6.464 -0.0652  0.5983  0.4195
  131OSM   H13A14049   6.704   4.208   6.542  0.3505 -2.8284  2.1577
  131OSM   H13B14050   6.683   4.195   6.368 -0.9543  1.1313  0.2295
  131OSM   H13C14051   6.652   4.056   6.479  2.2434  0.7832  0.6715
  131OSM    C1214052   6.425   4.138   6.353 -0.2560 -0.2886 -0.0090
  131OSM   H12A14053   6.424   4.034   6.382  0.2940 -0.5821 -1.0355
  131OSM   H12B14054   6.469   4.151   6.256 -1.9650  1.1754 -0.6006
  131OSM    C1114055   6.282   4.185   6.339  0.2479  0.3131  0.0014
  131OSM   H11A14056   6.286   4.291   6.307  0.5501  0.2471 -0.1837
  131OSM   H11B14057   6.235   4.196   6.438  0.1910  0.7053 -0.0701
  131OSM      P14058   6.166   3.962   6.267 -0.4881  0.3898  0.3504
  131OSM    O1314059   6.093   3.908   6.150 -0.2439  0.7997 -0.0471
  131OSM    O1414060   6.286   3.885   6.315  0.2166 -0.4228  0.1885
  131OSM    O1114061   6.057   3.988   6.388  0.2765  0.0745 -0.8278
  131OSM    O1214062   6.212   4.112   6.238 -0.6493  0.0955  0.3770
  131OSM    C1S14063   6.104   3.943   6.518  0.5561 -0.1634  0.3773
  131OSM    H1S14064   6.181   4.015   6.554  0.5699 -1.5661  3.2727
  131OSM    H1T14065   6.146   3.840   6.523  0.6731 -0.1099  0.4824
  131OSM     NF14066   6.040   3.912   6.761  0.0594 -0.5482 -0.0965
  131OSM    HNF14067   6.048   3.819   6.795 -0.5968 -0.6727 -0.2751
  131OSM    C2S14068   5.991   3.926   6.625 -0.2432 -0.2718  0.5872
  131OSM    H2S14069   5.927   4.017   6.622  0.5632  0.2667 -0.3660
  131OSM    C3S14070   5.890   3.809   6.572  0.3505  0.0401 -0.2695
  131OSM    H3S14071   5.957   3.722   6.554  0.9180  0.5763 -0.8260
  131OSM     O314072   5.837   3.835   6.438 -0.1009  0.2337  0.2666
  131OSM    HO314073   5.906   3.898   6.416  1.0011 -1.5476 -1.5958
  131OSM    C4S14074   5.779   3.796   6.672  0.1257  0.6606  0.0423
  131OSM    H4S14075   5.787   3.706   6.735  0.3191  1.5581  1.3292
  131OSM    C5S14076   5.673   3.874   6.683 -0.3842  0.1863 -0.2578
  131OSM    H5S14077   5.668   3.966   6.623  0.8745  0.7828  0.5406
  131OSM    C6S14078   5.556   3.860   6.776  0.1242  0.4880  0.5885
  131OSM    H6S14079   5.461   3.849   6.720  0.8064  0.8120 -0.6555
  131OSM    H6T14080   5.524   3.953   6.828 -0.9671  1.2588 -1.4012
  131OSM    C7S14081   5.554   3.760   6.897 -0.1320 -0.0608  0.3841
  131OSM    H7S14082   5.591   3.661   6.860  2.0213  0.1660  1.8103
  131OSM    H7T14083   5.459   3.740   6.952  1.2693 -2.4141  2.0848
  131OSM    C8S14084   5.654   3.808   7.007 -0.4844 -0.4791 -0.2590
  131OSM    H8S14085   5.626   3.897   7.067  0.7220  1.4281 -2.4176
  131OSM    H8T14086   5.752   3.825   6.957 -0.3821  0.1614  0.1491
  131OSM    C9S14087   5.675   3.696   7.111 -0.8480 -0.2983  0.0881
  131OSM    H9S14088   5.692   3.598   7.060  1.2644 -0.6355  1.4096
  131OSM    H9T14089   5.586   3.672   7.174 -1.4567  1.3565 -0.1243
  131OSM   C10S14090   5.804   3.726   7.194  0.1334  0.2581  0.1577
  131OSM   H10S14091   5.810   3.835   7.214 -2.7402  0.7729 -1.4267
  131OSM   H10T14092   5.894   3.676   7.153 -0.4918 -1.3513  0.6864
  131OSM   C11S14093   5.787   3.661   7.332  0.0979  0.2700  0.2317
  131OSM   H11S14094   5.762   3.555   7.311  0.1283  0.6505 -1.9230
  131OSM   H11T14095   5.702   3.715   7.379 -0.3490 -0.5763  0.3902
  131OSM   C12S14096   5.916   3.669   7.421 -0.2119 -0.5172  0.2777
  131OSM   H12S14097   5.918   3.768   7.472 -0.4897 -0.9211  1.0900
  131OSM   H12T14098   6.013   3.661   7.367  1.1859 -1.2570  2.8060
  131OSM   C13S14099   5.925   3.555   7.529 -0.0283  0.0995 -0.2971
  131OSM   H13S14100   6.011   3.579   7.595  0.0795 -0.0152 -0.3992
  131OSM   H13T14101   5.952   3.463   7.474 -1.7968 -0.0945 -0.8628
  131OSM   C14S14102   5.790   3.541   7.599 -0.3016 -0.8582  0.2028
  131OSM   H14S14103   5.719   3.470   7.552  0.8602 -1.3843 -0.7633
  131OSM   H14T14104   5.744   3.642   7.600  2.2490  0.3623 -1.0294
  131OSM   C15S14105   5.791   3.494   7.745 -0.5103 -0.0807  0.5516
  131OSM   H15S14106   5.856   3.404   7.742  0.5673  0.7008  0.3339
  131OSM   H15T14107   5.685   3.475   7.773 -0.6654  2.1676  1.6437
  131OSM   C16S14108   5.855   3.585   7.850 -0.6534  0.6948 -0.0532
  131OSM   H16S14109   5.833   3.691   7.823 -1.1127  0.1805 -1.7467
  131OSM   H16T14110   5.965   3.577   7.859 -0.8336  0.2272  1.8559
  131OSM   C17S14111   5.810   3.556   7.989 -0.2339  1.1915 -0.4040
  131OSM   H17S14112   5.886   3.614   8.047  1.5311 -0.0962 -1.3621
  131OSM   H17T14113   5.821   3.447   8.008  1.8214  1.2543 -1.0763
  131OSM   C18S14114   5.669   3.588   8.034 -0.3913 -0.3054  0.0922
  131OSM   H18S14115   5.662   3.548   8.138  1.6900  3.5603  1.8051
  131OSM   H18T14116   5.587   3.537   7.979 -0.2732 -0.1295 -0.2486
  131OSM   H18U14117   5.665   3.698   8.047 -2.3419 -0.0715 -2.2743
  131OSM    C1F14118   6.122   4.009   6.815  0.6483  0.3875 -0.2743
  131OSM     OF14119   6.145   4.118   6.761 -0.0026 -0.1724 -0.5946
  131OSM    C2F14120   6.184   3.978   6.955 -0.3335 -0.4826  0.2975
  131OSM    H2F14121   6.287   4.018   6.945  0.6284 -2.5878  1.3327
  131OSM    H2G14122   6.199   3.868   6.958 -0.2988 -0.4713  0.5624
  131OSM    C3F14123   6.095   4.037   7.061  0.4064 -0.3400  0.0009
  131OSM    H3F14124   5.988   4.026   7.035  0.5460  0.3244 -0.8583
  131OSM    H3G14125   6.112   4.147   7.070 -0.2151  0.0997 -3.5326
  131OSM    C4F14126   6.139   3.969   7.194  0.0522  0.1197 -0.0724
  131OSM    H4F14127   6.249   3.974   7.210  0.1312 -2.2881  0.3283
  131OSM    H4G14128   6.111   3.862   7.180  1.4814 -0.6197  2.5392
  131OSM    C5F14129   6.065   4.035   7.307 -0.4808 -0.5692 -0.6947
  131OSM    H5F14130   5.956   4.012   7.308 -1.0430  1.9546  0.3843
  131OSM    H5G14131   6.062   4.145   7.292  0.4876 -0.7291 -2.0889
  131OSM    C6F14132   6.133   4.003   7.434  0.6640 -0.4759  0.0489
  131OSM    H6F14133   6.235   4.048   7.439 -0.0443  1.0902  0.4952
  131OSM    H6G14134   6.139   3.893   7.442 -1.0399 -0.4124  2.4058
  131OSM    C7F14135   6.062   4.074   7.547 -0.5244 -0.0370 -0.5363
  131OSM    H7F14136   5.976   4.006   7.561  0.8173 -1.9721 -1.4500
  131OSM    H7G14137   6.030   4.173   7.510  1.3404  0.3561 -1.1708
  131OSM    C8F14138   6.153   4.079   7.670 -0.0093 -0.1234 -0.0394
  131OSM    H8F14139   6.244   4.127   7.630 -1.3202  2.1835 -0.3715
  131OSM    H8G14140   6.181   3.976   7.700 -4.5415 -1.5062 -0.1792
  131OSM    C9F14141   6.082   4.161   7.776 -0.4357 -0.1288  0.4830
  131OSM    H9F14142   6.073   4.262   7.735  0.3180 -0.4557 -0.5107
  131OSM   C10F14143   6.052   4.128   7.908  0.8488  0.2526  0.7697
  131OSM   H10F14144   5.990   4.206   7.954 -1.1228  0.3239 -1.8410
  131OSM   C11F14145   6.084   3.994   7.972  0.4386  0.0633 -0.7835
  131OSM   H11F14146   6.112   4.015   8.078 -0.5083 -0.5368 -0.4071
  131OSM   H11G14147   6.161   3.933   7.920 -0.8953  0.2814 -3.0559
  131OSM   C12F14148   5.959   3.902   7.971  1.1742  0.0239 -0.1602
  131OSM   H12F14149   6.004   3.808   8.011 -0.1473 -0.6970 -0.3561
  131OSM   H12G14150   5.923   3.891   7.867  0.0706 -2.3123  0.4357
  131OSM   C13F14151   5.843   3.946   8.057 -0.1911  0.0698 -0.3045
  131OSM   H13F14152   5.748   3.903   8.018 -0.3228  0.2929 -0.2346
  131OSM   H13G14153   5.827   4.056   8.055 -1.7959 -0.1443 -0.0143
  131OSM   C14F14154   5.852   3.901   8.211  0.0648  0.1934  0.5021
  131OSM   H14F14155   5.834   3.793   8.226 -0.3319 -0.1331 -2.0939
  131OSM   H14G14156   5.766   3.955   8.256  1.2551  3.1972 -0.6849
  131OSM   C15F14157   5.978   3.926   8.293  0.1555  0.2394 -0.0552
  131OSM   H15F14158   6.002   4.034   8.300 -1.3870  0.5301  0.9905
  131OSM   H15G14159   6.058   3.872   8.238  1.3250  1.2999  0.5657
  131OSM   C16F14160   5.977   3.881   8.439 -0.4656 -0.1962  0.4338
  131OSM   H16F14161   5.969   3.771   8.441  2.9319 -0.5362 -1.6246
  131OSM   H16G14162   5.887   3.931   8.482  0.2932 -1.5584  3.7875
  131OSM   C17F14163   6.103   3.934   8.515 -0.2994 -0.0789 -0.1794
  131OSM   H17F14164   6.127   4.038   8.482  1.5583 -0.7023 -0.8503
  131OSM   H17G14165   6.185   3.870   8.476  1.4013  1.3109  1.0297
  131OSM   C18F14166   6.113   3.931   8.665  0.2261 -0.0012 -0.5434
  131OSM   H18F14167   6.126   3.825   8.695 -1.1170 -0.4113 -1.3828
  131OSM   H18G14168   6.022   3.966   8.718  1.1359  0.3647  0.8026
  131OSM   H18H14169   6.198   3.989   8.707  0.5626 -1.1558  0.3830
  132OSM      N14170   1.317   1.075   6.237 -0.5539  0.2086 -0.5500
  132OSM    C1514171   1.420   1.135   6.147  0.7326 -0.4284  0.2048
  132OSM   H15A14172   1.488   1.194   6.207  1.5286 -0.7847 -0.3380
  132OSM   H15B14173   1.375   1.201   6.074  2.9690  2.4407  1.3219
  132OSM   H15C14174   1.479   1.055   6.105  2.1038  1.2355 -1.1664
  132OSM    C1414175   1.220   0.992   6.156 -0.0838  0.7168  0.1380
  132OSM   H14A14176   1.159   0.936   6.225 -0.0207  2.0873  1.3282
  132OSM   H14B14177   1.262   0.912   6.096  1.8136  1.4092  0.5157
  132OSM   H14C14178   1.160   1.055   6.092  0.3248 -0.0364 -0.9994
  132OSM    C1314179   1.383   0.973   6.324 -0.9726 -0.5518  0.7328
  132OSM   H13A14180   1.319   0.923   6.395 -0.0119  0.6101  2.4364
  132OSM   H13B14181   1.463   1.021   6.379 -2.6100  0.8177  1.9721
  132OSM   H13C14182   1.427   0.894   6.265  1.2307  0.9430  0.3152
  132OSM    C1214183   1.240   1.168   6.327 -0.2219 -1.0859  0.8682
  132OSM   H12A14184   1.302   1.220   6.398 -0.5020 -0.8352  0.9296
  132OSM   H12B14185   1.168   1.117   6.389 -0.5281  0.1433  1.5430
  132OSM    C1114186   1.162   1.281   6.250  0.7036  0.0191 -0.3003
  132OSM   H11A14187   1.207   1.311   6.153 -1.3911 -0.3110 -1.3799
  132OSM   H11B14188   1.162   1.378   6.305 -0.2649  0.2164 -0.6436
  132OSM      P14189   0.920   1.219   6.349 -0.4486  0.0466 -0.1103
  132OSM    O1314190   0.798   1.155   6.292 -0.4758 -0.5068 -0.4792
  132OSM    O1414191   0.976   1.157   6.466 -0.5702  0.2735  0.0256
  132OSM    O1114192   0.895   1.363   6.388  0.4487 -0.3281  0.6267
  132OSM    O1214193   1.027   1.234   6.227 -0.1452  0.4973 -0.5005
  132OSM    C1S14194   0.767   1.402   6.452  0.1801  0.7256 -0.3451
  132OSM    H1S14195   0.690   1.322   6.453 -1.0455  1.8609 -1.8255
  132OSM    H1T14196   0.714   1.481   6.395 -0.5857 -0.2760 -1.0563
  132OSM     NF14197   0.685   1.448   6.683  0.4940 -0.4432 -0.2510
  132OSM    HNF14198   0.657   1.535   6.723  1.0874  1.0564 -2.9789
  132OSM    C2S14199   0.803   1.444   6.597 -0.1816 -0.4630 -0.4150
  132OSM    H2S14200   0.877   1.365   6.622  0.6851  0.5129  0.1369
  132OSM    C3S14201   0.878   1.575   6.588  0.0589  0.7232 -0.0451
  132OSM    H3S14202   0.813   1.642   6.529  1.1244  0.7432 -1.2122
  132OSM     O314203   0.990   1.573   6.503  0.4333 -0.3243 -0.2633
  132OSM    HO314204   0.989   1.487   6.460 -0.8251 -0.9963  1.0515
  132OSM    C4S14205   0.902   1.626   6.725  0.6952 -0.3218  0.2568
  132OSM    H4S14206   0.828   1.704   6.747 -0.0065 -0.9055 -0.0052
  132OSM    C5S14207   1.005   1.593   6.804  0.0666  0.0829 -0.3518
  132OSM    H5S14208   1.073   1.515   6.766  0.8887  1.7100 -2.2849
  132OSM    C6S14209   1.033   1.647   6.941  0.6045 -0.1995 -0.2109
  132OSM    H6S14210   1.135   1.691   6.947  0.6683 -0.5675  1.6444
  132OSM    H6T14211   1.036   1.560   7.010  0.8716 -1.5364 -1.8864
  132OSM    C7S14212   0.933   1.744   7.000 -0.6413  0.0803  0.8201
  132OSM    H7S14213   0.831   1.700   7.007 -0.2950 -1.0058 -0.6721
  132OSM    H7T14214   0.935   1.822   6.921 -2.5551 -0.6404  0.0153
  132OSM    C8S14215   0.960   1.802   7.146  0.7663 -0.9067 -0.5823
  132OSM    H8S14216   0.909   1.901   7.154  0.2281 -1.2529  0.3687
  132OSM    H8T14217   1.064   1.836   7.162  0.2745 -0.0045  0.8354
  132OSM    C9S14218   0.900   1.710   7.253 -0.0218  0.6927 -0.8761
  132OSM    H9S14219   0.943   1.607   7.248 -1.8020 -0.1745  1.2349
  132OSM    H9T14220   0.795   1.699   7.220 -0.1949 -1.2291  0.2673
  132OSM   C10S14221   0.910   1.766   7.392  0.1377  0.6571 -0.4222
  132OSM   H10S14222   0.839   1.850   7.407 -1.1967  0.5210 -5.1645
  132OSM   H10T14223   1.015   1.796   7.415  0.7540 -1.4281 -0.3782
  132OSM   C11S14224   0.876   1.660   7.501  0.5283  0.1356  0.1689
  132OSM   H11S14225   0.931   1.566   7.482 -1.3208 -0.4438 -2.5228
  132OSM   H11T14226   0.769   1.630   7.504  0.7943 -0.7218  1.6578
  132OSM   C12S14227   0.920   1.707   7.649 -0.3155 -0.1080  0.4067
  132OSM   H12S14228   0.868   1.802   7.676  1.3871  0.8833  0.3263
  132OSM   H12T14229   1.025   1.743   7.635 -1.0088  1.6099 -0.6008
  132OSM   C13S14230   0.906   1.610   7.772 -0.6176  0.0567  0.7432
  132OSM   H13S14231   0.962   1.657   7.855  0.3807  0.0028  0.1161
  132OSM   H13T14232   0.958   1.513   7.758 -1.2773 -0.5285  2.2522
  132OSM   C14S14233   0.757   1.599   7.808 -0.1059 -0.0520 -0.6413
  132OSM   H14S14234   0.707   1.535   7.732 -1.4470  0.6516 -0.3609
  132OSM   H14T14235   0.713   1.700   7.817 -0.4811 -0.4068  1.9251
  132OSM   C15S14236   0.715   1.537   7.950  0.1838  0.1376 -0.1056
  132OSM   H15S14237   0.747   1.431   7.942  1.6004  0.4838  0.7540
  132OSM   H15T14238   0.605   1.542   7.962  0.2194  1.4584 -0.1777
  132OSM   C16S14239   0.780   1.612   8.067 -0.5255  0.2236  0.2031
  132OSM   H16S14240   0.759   1.721   8.053  1.7664  0.7224  0.4382
  132OSM   H16T14241   0.890   1.602   8.059 -0.7094 -1.0835 -0.8884
  132OSM   C17S14242   0.741   1.578   8.210  0.0097  0.6889  0.1186
  132OSM   H17S14243   0.630   1.574   8.220 -0.1273  2.4040 -0.6201
  132OSM   H17T14244   0.774   1.655   8.283  1.1682  1.8838 -1.6521
  132OSM   C18S14245   0.776   1.435   8.261  0.7448 -0.1213 -0.1675
  132OSM   H18S14246   0.731   1.414   8.361 -1.2518 -1.0418 -1.2236
  132OSM   H18T14247   0.883   1.409   8.274  0.8682  0.0886 -0.7711
  132OSM   H18U14248   0.716   1.367   8.196 -0.4604 -0.3487  1.1491
  132OSM    C1F14249   0.619   1.337   6.705  0.1078  0.5012 -0.0579
  132OSM     OF14250   0.663   1.233   6.670 -0.2841  0.3769 -0.5338
  132OSM    C2F14251   0.495   1.348   6.786  0.0120 -0.0940  0.5075
  132OSM    H2F14252   0.421   1.401   6.722  0.6572  0.3722  0.1408
  132OSM    H2G14253   0.511   1.407   6.879  0.0523 -0.8148  0.9627
  132OSM    C3F14254   0.417   1.220   6.827 -0.6543  0.3996  0.2032
  132OSM    H3F14255   0.392   1.166   6.733 -1.3343 -1.4978  1.4512
  132OSM    H3G14256   0.323   1.259   6.871  1.0544  1.2593  3.1883
  132OSM    C4F14257   0.490   1.126   6.919  0.3074 -0.4132  0.1050
  132OSM    H4F14258   0.559   1.184   6.983 -0.3865 -0.2436  0.7130
  132OSM    H4G14259   0.558   1.058   6.864 -2.2963 -1.4407 -1.9843
  132OSM    C5F14260   0.400   1.036   7.005 -0.2567 -0.1808 -0.4536
  132OSM    H5F14261   0.384   0.944   6.945 -0.8406 -0.4651  0.1300
  132OSM    H5G14262   0.300   1.079   7.029 -0.2044  0.9282 -2.1251
  132OSM    C6F14263   0.480   0.995   7.127 -0.0549 -0.3781 -0.3418
  132OSM    H6F14264   0.532   1.076   7.183 -0.9276 -1.9800  2.9348
  132OSM    H6G14265   0.560   0.922   7.105  0.1986 -0.6362  1.3662
  132OSM    C7F14266   0.389   0.910   7.221 -0.3464 -0.2380  0.1244
  132OSM    H7F14267   0.364   0.818   7.164 -0.4397 -0.3866  0.4046
  132OSM    H7G14268   0.292   0.965   7.231 -0.2040  0.3515 -1.5083
  132OSM    C8F14269   0.445   0.900   7.361  0.0784  0.2660  1.1852
  132OSM    H8F14270   0.357   0.869   7.423 -0.4532 -3.0772 -1.1188
  132OSM    H8G14271   0.471   1.003   7.393  1.8388  0.3766 -0.5525
  132OSM    C9F14272   0.563   0.813   7.371  0.3097 -0.0563  0.5917
  132OSM    H9F14273   0.654   0.860   7.328 -1.1611  1.2671 -1.1844
  132OSM   C10F14274   0.559   0.682   7.400 -0.7631  0.5162  0.5702
  132OSM   H10F14275   0.645   0.618   7.374  0.9582  1.9821  2.5391
  132OSM   C11F14276   0.437   0.599   7.435 -0.3559 -0.1593  0.4951
  132OSM   H11F14277   0.389   0.527   7.366 -0.9093  1.2594 -0.6260
  132OSM   H11G14278   0.352   0.661   7.471 -1.5846 -2.0601  0.9222
  132OSM   C12F14279   0.474   0.508   7.558 -0.4613  0.2539 -0.1269
  132OSM   H12F14280   0.578   0.470   7.544  0.4956  2.1267  1.7089
  132OSM   H12G14281   0.409   0.417   7.558 -0.9922  0.6285 -0.4484
  132OSM   C13F14282   0.470   0.583   7.694  0.7789  0.3780 -0.5089
  132OSM   H13F14283   0.375   0.640   7.701  0.3696 -0.6131  2.6676
  132OSM   H13G14284   0.557   0.649   7.712 -0.8614  1.8725  2.1942
  132OSM   C14F14285   0.454   0.486   7.806 -0.1090 -0.2524 -1.3229
  132OSM   H14F14286   0.557   0.447   7.820 -0.8681 -1.6994  0.4612
  132OSM   H14G14287   0.386   0.398   7.795 -0.8761  0.3124 -1.1309
  132OSM   C15F14288   0.420   0.543   7.944  0.1417 -0.3162 -0.6112
  132OSM   H15F14289   0.331   0.608   7.931 -0.0705 -0.3620  0.5359
  132OSM   H15G14290   0.488   0.620   7.987 -2.8982  1.7628  0.6138
  132OSM   C16F14291   0.414   0.425   8.049 -0.5258  0.1690 -0.1607
  132OSM   H16F14292   0.512   0.374   8.059 -0.4814  0.3970  0.5889
  132OSM   H16G14293   0.344   0.349   8.006 -0.9913  0.9244 -0.7406
  132OSM   C17F14294   0.358   0.462   8.188 -0.9482 -0.2427  0.1317
  132OSM   H17F14295   0.431   0.529   8.237 -1.8147  0.6711  0.1787
  132OSM   H17G14296   0.371   0.365   8.241  1.2568 -0.3371 -0.5489
  132OSM   C18F14297   0.226   0.535   8.191  0.9444  0.1405  0.1961
  132OSM   H18F14298   0.182   0.523   8.292  0.6012  0.2607  0.0581
  132OSM   H18G14299   0.154   0.485   8.123  2.2005 -1.8908  0.3081
  132OSM   H18H14300   0.230   0.641   8.160 -2.0330  0.4062  0.6038
  133SAPE     N14301   3.376   6.184  10.690 -0.6222 -0.5459  0.6188
  133SAPE   HN114302   3.334   6.217  10.779 -1.2639  2.4519 -0.7442
  133SAPE   HN214303   3.301   6.123  10.649  1.6550 -1.1766 -2.8844
  133SAPE   HN314304   3.465   6.132  10.704 -0.5387 -0.5495  0.0960
  133SAPE   C1214305   3.397   6.301  10.599 -0.3114  0.2784  0.3898
  133SAPE  H12A14306   3.292   6.330  10.576 -0.0359 -1.3142 -3.3120
  133SAPE  H12B14307   3.447   6.260  10.508  0.3903  0.9678  0.4611
  133SAPE   C1114308   3.488   6.409  10.666 -0.4265  0.1271 -0.4336
  133SAPE  H11A14309   3.439   6.455  10.755 -1.7860  1.9659 -2.0978
  133SAPE  H11B14310   3.494   6.493  10.594  0.0612 -0.6280 -1.2831
  133SAPE     P14311   3.748   6.379  10.630 -0.1892 -0.0396  0.2031
  133SAPE   O1314312   3.761   6.522  10.604 -0.6416  0.4554 -0.5510
  133SAPE   O1414313   3.859   6.309  10.704  0.1145  0.1149 -0.5169
  133SAPE   O1214314   3.613   6.358  10.700 -0.2234  0.5246  0.2107
  133SAPE   O1114315   3.727   6.303  10.490 -0.0152 -0.2669 -0.2378
  133SAPE    C114316   3.741   6.162  10.486  0.3509 -0.4860  0.3771
  133SAPE    HA14317   3.844   6.130  10.515 -0.0071 -1.4217  0.6178
  133SAPE    HB14318   3.682   6.114  10.567 -0.1690  1.5526  1.2420
  133SAPE    C214319   3.699   6.114  10.346  0.3559 -0.3845 -0.1209
  133SAPE    HS14320   3.767   6.165  10.274 -1.7203  1.4853 -0.7966
  133SAPE   O2114321   3.566   6.150  10.316  0.1635  0.1145  0.1115
  133SAPE   C2114322   3.547   6.173  10.186 -0.8265 -0.5549  0.1423
  133SAPE   O2214323   3.634   6.181  10.102 -0.7191  0.2760  0.4728
  133SAPE   C2214324   3.403   6.209  10.161  0.1593 -0.3225 -0.4785
  133SAPE   H2R14325   3.346   6.118  10.192 -0.3035  0.1151 -0.0211
  133SAPE   H2S14326   3.381   6.292  10.232  2.7195 -1.0338  1.2328
  133SAPE    C314327   3.722   5.963  10.344 -0.6510 -0.3514  0.4095
  133SAPE    HX14328   3.687   5.908  10.435  1.1019 -0.0183  1.2999
  133SAPE    HY14329   3.833   5.961  10.356 -0.5801  0.5058 -0.0851
  133SAPE   O3114330   3.678   5.898  10.227 -0.2949  0.4079  0.8726
  133SAPE   C3114331   3.780   5.905  10.129  0.7526 -0.5800  0.5822
  133SAPE   O3214332   3.887   5.957  10.143 -0.8923 -0.2587  0.3308
  133SAPE   C3214333   3.739   5.808  10.015 -0.0846 -0.1038  0.3228
  133SAPE   H2X14334   3.677   5.729  10.063  0.9845 -0.8264  0.5120
  133SAPE   H2Y14335   3.830   5.771   9.963  0.6498  1.3614  0.5302
  133SAPE   C2314336   3.363   6.247  10.024 -0.0059 -0.0896 -0.3966
  133SAPE   H3R14337   3.409   6.172   9.956  1.1955 -0.1980  0.5184
  133SAPE   H3S14338   3.411   6.345  10.003 -0.2168 -0.5825 -3.4673
  133SAPE   C2414339   3.209   6.255  10.003 -0.1724  0.4459  0.2981
  133SAPE   H4R14340   3.190   6.298   9.902 -1.5245 -1.5532 -0.3047
  133SAPE   H4S14341   3.156   6.323  10.073 -0.2572  1.3315 -0.6115
  133SAPE   C2514342   3.144   6.118  10.002 -0.1422 -0.3180 -0.1255
  133SAPE   H5R14343   3.105   6.080  10.097 -0.7916 -1.8608 -0.9792
  133SAPE   C2614344   3.146   6.036   9.892 -0.8984 -0.6027 -0.4198
  133SAPE   H6R14345   3.108   5.934   9.906 -1.4853 -0.4475 -0.8701
  133SAPE   C2714346   3.205   6.070   9.760  0.1458  0.3321  0.1486
  133SAPE   H7R14347   3.311   6.105   9.760 -0.6778  2.9234 -0.2951
  133SAPE   H7S14348   3.153   6.162   9.725  1.9535  0.6435 -1.8499
  133SAPE   C2814349   3.186   5.949   9.665 -0.1267  0.4778 -0.0674
  133SAPE   H8R14350   3.252   5.861   9.674 -1.6904 -0.5918  1.1844
  133SAPE   C2914351   3.086   5.936   9.575 -0.2548  0.5213 -0.0010
  133SAPE   H9R14352   3.071   5.839   9.525  2.7916 -0.7205  1.3698
  133SAPE  C21014353   2.987   6.039   9.549  0.7433 -0.6614 -0.1643
  133SAPE  H10R14354   2.981   6.121   9.623 -2.1602  0.2116 -1.3116
  133SAPE  H10S14355   2.890   5.986   9.537 -0.2751  0.7544  1.7391
  133SAPE  C21114356   2.997   6.101   9.413  0.0042 -0.2681  0.0765
  133SAPE  H11R14357   3.049   6.198   9.414 -0.3818 -0.0675  0.8415
  133SAPE  C21214358   2.943   6.066   9.295 -0.7788 -0.1487  0.5278
  133SAPE  H12R14359   2.965   6.124   9.204 -1.3401 -1.7534 -0.6538
  133SAPE  C21314360   2.857   5.942   9.266  0.2471  0.8828 -0.1156
  133SAPE  H13R14361   2.819   5.889   9.356 -0.0199 -2.1955 -1.9762
  133SAPE  H13S14362   2.921   5.869   9.213  0.0805  1.2745 -0.8709
  133SAPE  C21414363   2.734   5.984   9.187  0.3743  0.6710  0.1592
  133SAPE  H14R14364   2.672   6.059   9.239 -1.0717  0.8156 -1.7263
  133SAPE  C21514365   2.705   5.935   9.068  0.4138  0.0014  0.3256
  133SAPE  H15R14366   2.605   5.953   9.026 -1.2049 -2.4039  2.8860
  133SAPE  C21614367   2.780   5.828   8.992 -0.0835 -0.2697  0.6063
  133SAPE  H16R14368   2.785   5.734   9.051 -0.3022 -0.7685 -0.1740
  133SAPE  H16S14369   2.883   5.868   8.978  0.3767 -1.5468  0.3237
  133SAPE  C21714370   2.718   5.804   8.853  0.0387 -0.2935 -0.2625
  133SAPE  H17R14371   2.705   5.905   8.808 -0.8191  0.4536  1.6300
  133SAPE  H17S14372   2.617   5.760   8.865  0.0469  0.0216  1.0124
  133SAPE  C21814373   2.810   5.713   8.762  0.5433  0.2577  0.3108
  133SAPE  H18R14374   2.803   5.607   8.795 -0.1638  0.1128 -0.2975
  133SAPE  H18S14375   2.911   5.758   8.772  1.1237 -1.2458  1.3443
  133SAPE  C21914376   2.755   5.730   8.618 -0.4373  0.1411  0.0123
  133SAPE  H19R14377   2.821   5.671   8.551 -0.2984 -0.7392  0.9045
  133SAPE  H19S14378   2.773   5.833   8.581  0.1202 -0.3672 -1.1385
  133SAPE  C22014379   2.606   5.697   8.604  0.7125  0.3412 -0.0889
  133SAPE  H20R14380   2.577   5.622   8.680 -2.9038  0.1309 -1.5869
  133SAPE  H20S14381   2.584   5.657   8.503 -1.8270  2.4167 -0.3906
  133SAPE  H20T14382   2.541   5.787   8.607 -0.9378 -0.6887 -3.5270
  133SAPE   C3314383   3.655   5.885   9.915 -0.2555  0.1119 -0.9525
  133SAPE   H3X14384   3.567   5.934   9.960 -0.9134  0.3719 -2.4651
  133SAPE   H3Y14385   3.603   5.814   9.847 -0.3305  0.8309 -1.6654
  133SAPE   C3414386   3.726   5.999   9.837 -0.6976 -0.0364 -0.4320
  133SAPE   H4X14387   3.819   6.028   9.889 -0.4716 -0.8698 -0.3525
  133SAPE   H4Y14388   3.656   6.085   9.835  0.2288  0.7066 -1.1748
  133SAPE   C3514389   3.748   5.962   9.685 -0.1014  0.6638  0.2973
  133SAPE   H5X14390   3.781   5.856   9.686  2.5218  1.4351  0.4545
  133SAPE   H5Y14391   3.825   6.024   9.635 -0.1725 -0.8395 -1.7439
  133SAPE   C3614392   3.617   5.977   9.606  0.2219  0.2493  0.3684
  133SAPE   H6X14393   3.583   6.082   9.621  0.0092  0.4170 -1.2173
  133SAPE   H6Y14394   3.546   5.899   9.642  1.5925 -1.9379 -1.5166
  133SAPE   C3714395   3.625   5.964   9.453  0.4557  0.0141 -0.5531
  133SAPE   H7X14396   3.651   5.858   9.433  3.4290  0.5407  0.2293
  133SAPE   H7Y14397   3.706   6.031   9.419  2.1741 -1.0410  1.3577
  133SAPE   C3814398   3.495   6.007   9.395 -0.4623 -0.2109  0.0870
  133SAPE   H8X14399   3.476   6.117   9.403  2.8068  0.3861  0.3543
  133SAPE   H8Y14400   3.407   5.954   9.437  0.4828 -0.8837  1.2327
  133SAPE   C3914401   3.476   5.972   9.248 -0.2031 -0.1186 -0.0813
  133SAPE   H9X14402   3.496   5.862   9.244 -2.1442 -0.5447  1.0126
  133SAPE   H9Y14403   3.555   6.024   9.190  1.3140 -2.2616 -0.0066
  133SAPE  C31014404   3.349   6.020   9.186  0.2532 -0.3819  0.1067
  133SAPE  H10X14405   3.338   6.130   9.196  0.5762 -0.5040  2.0304
  133SAPE  H10Y14406   3.263   5.977   9.241  1.9123 -1.9399  1.5455
  133SAPE  C31114407   3.329   5.987   9.037 -0.4633  0.2219  0.5074
  133SAPE  H11X14408   3.312   5.878   9.021 -0.6909  0.0534  1.8010
  133SAPE  H11Y14409   3.422   6.024   8.988 -0.3779  2.2584  2.1353
  133SAPE  C31214410   3.214   6.057   8.966 -0.2426 -0.1346  0.0858
  133SAPE  H12X14411   3.221   6.163   8.998  0.4995 -0.5326  1.2835
  133SAPE  H12Y14412   3.124   6.021   9.021 -1.0790 -0.9266 -1.7546
  133SAPE  C31314413   3.187   6.052   8.816 -0.3733 -0.5589 -0.6407
  133SAPE  H13X14414   3.254   6.119   8.758  0.3127  0.0924  0.8751
  133SAPE  H13Y14415   3.084   6.085   8.792 -0.0169 -1.9590 -4.2465
  133SAPE  C31414416   3.198   5.912   8.763  0.1929 -0.1831  0.3084
  133SAPE  H14X14417   3.126   5.853   8.823 -0.9219  3.1383  2.3936
  133SAPE  H14Y14418   3.298   5.872   8.789 -0.2980 -1.2757  0.5544
  133SAPE  C31514419   3.188   5.896   8.620  0.0277 -0.4059  0.6382
  133SAPE  H15X14420   3.280   5.946   8.584 -1.1490  0.6527 -1.0019
  133SAPE  H15Y14421   3.092   5.937   8.581  0.3092 -0.9749 -0.6958
  133SAPE  C31614422   3.180   5.748   8.571  0.4906  0.1597  0.1932
  133SAPE  H16X14423   3.093   5.699   8.620  0.8362  1.1821  1.8633
  133SAPE  H16Y14424   3.266   5.686   8.602  0.1614 -0.2486  0.3017
  133SAPE  C31714425   3.192   5.737   8.419  0.0487 -0.1120  0.1902
  133SAPE  H17X14426   3.291   5.778   8.390 -0.1674  0.3002  0.0362
  133SAPE  H17Y14427   3.110   5.783   8.359 -0.8613  0.0587  1.5432
  133SAPE  C31814428   3.190   5.586   8.377  0.3654 -0.4662 -0.3542
  133SAPE  H18X14429   3.239   5.574   8.278 -0.8032 -1.8584 -0.7757
  133SAPE  H18Y14430   3.088   5.541   8.377 -0.1002  0.5572 -1.9145
  133SAPE  H18Z14431   3.247   5.526   8.451  0.9510  1.0791  0.4770
  134SAPE     N14432   6.200   0.092  10.643  0.0407 -0.2350 -0.2442
  134SAPE   HN114433   6.288   0.140  10.668 -1.0419  1.9399 -0.4659
  134SAPE   HN214434   6.233   0.015  10.582  0.9911  1.1928 -1.5951
  134SAPE   HN314435   6.135   0.154  10.589  0.8842  1.0046  0.1485
  134SAPE   C1214436   6.136   0.045  10.768 -0.3438  0.1738  0.0517
  134SAPE  H12A14437   6.089   0.134  10.816 -1.3569  0.5595 -1.6207
  134SAPE  H12B14438   6.205  -0.018  10.827 -1.6233 -1.6859 -0.3924
  134SAPE   C1114439   6.028  -0.060  10.742  0.3208 -0.1072  0.6007
  134SAPE  H11A14440   5.971  -0.071  10.836 -2.3646  0.4534 -0.9100
  134SAPE  H11B14441   6.080  -0.151  10.704  0.1807 -0.1521  0.5145
  134SAPE     P14442   5.818  -0.100  10.582  0.1069 -0.3503 -0.4699
  134SAPE   O1314443   5.804  -0.231  10.655 -0.2704  0.1509 -0.5583
  134SAPE   O1414444   5.706  -0.004  10.580  0.4301 -0.9744  0.0459
  134SAPE   O1214445   5.941  -0.020  10.641 -0.7487  0.0468  0.2972
  134SAPE   O1114446   5.860  -0.135  10.437  0.2827  0.0705  0.3907
  134SAPE    C114447   5.995  -0.152  10.388  0.3822 -0.2542  0.1056
  134SAPE    HA14448   6.064  -0.072  10.423  1.7878 -1.0229 -0.8346
  134SAPE    HB14449   6.033  -0.252  10.419  0.5274  0.3236  1.8310
  134SAPE    C214450   5.996  -0.140  10.231 -0.2593  0.0346  0.1343
  134SAPE    HS14451   6.100  -0.138  10.193 -0.8041 -3.1404 -1.6748
  134SAPE   O2114452   5.934  -0.017  10.190 -0.5147  0.3332  0.1336
  134SAPE   C2114453   6.000   0.096  10.218 -0.8068 -0.4834 -0.9037
  134SAPE   O2214454   6.112   0.101  10.271 -0.1152 -0.4954 -0.0845
  134SAPE   C2214455   5.928   0.223  10.189 -0.1772 -0.7084  0.0953
  134SAPE   H2R14456   5.823   0.207  10.223  0.0497 -0.6958  0.8087
  134SAPE   H2S14457   5.964   0.304  10.255 -0.9394 -0.9330  0.7999
  134SAPE    C314458   5.915  -0.255  10.159  0.0974 -0.1028  0.2549
  134SAPE    HX14459   5.806  -0.245  10.179  0.2497 -1.2278  1.7083
  134SAPE    HY14460   5.956  -0.347  10.204  0.8751 -0.2197 -0.6758
  134SAPE   O3114461   5.936  -0.242  10.016 -0.1492  0.1951 -0.4559
  134SAPE   C3114462   6.024  -0.323   9.958  0.4598  0.4041  0.1432
  134SAPE   O3214463   6.098  -0.396  10.020 -0.7316  0.0103 -0.1293
  134SAPE   C3214464   5.993  -0.323   9.807 -0.0135  0.5877  0.1320
  134SAPE   H2X14465   5.932  -0.231   9.792  0.6969  0.7934 -1.6793
  134SAPE   H2Y14466   5.935  -0.418   9.798 -1.0132  1.1782  0.2339
  134SAPE   C2314467   5.941   0.282  10.044  0.2407 -0.3649  0.0020
  134SAPE   H3R14468   5.870   0.366  10.025 -1.2556 -1.7585 -0.7283
  134SAPE   H3S14469   5.919   0.190   9.987  0.6062 -1.4068  1.5236
  134SAPE   C2414470   6.071   0.346  10.014 -0.9274 -0.7426  1.5471
  134SAPE   H4R14471   6.095   0.423  10.090  1.4757  0.4461 -0.3273
  134SAPE   H4S14472   6.055   0.417   9.929 -3.6914  0.6554  3.1604
  134SAPE   C2514473   6.192   0.264   9.985  0.4672 -0.6879 -0.0606
  134SAPE   H5R14474   6.262   0.245  10.068  2.1316  1.7094 -0.8823
  134SAPE   C2614475   6.214   0.209   9.865  0.0814 -0.0486 -0.0387
  134SAPE   H6R14476   6.315   0.171   9.844  0.3974 -0.3794  1.9449
  134SAPE   C2714477   6.130   0.214   9.740 -0.4718 -0.2866  0.2324
  134SAPE   H7R14478   6.180   0.277   9.664 -2.1484 -0.1174 -0.7496
  134SAPE   H7S14479   6.027   0.254   9.752 -0.3296  0.4179 -0.8420
  134SAPE   C2814480   6.118   0.072   9.692  0.4005  0.4432 -0.2683
  134SAPE   H8R14481   6.114  -0.011   9.764 -0.6271 -0.1083 -0.9346
  134SAPE   C2914482   6.097   0.034   9.566 -0.1666  0.1404 -0.3870
  134SAPE   H9R14483   6.101  -0.073   9.539 -0.4196 -0.2221  0.9637
  134SAPE  C21014484   6.082   0.123   9.439  0.5042  0.2988 -1.1781
  134SAPE  H10R14485   6.052   0.225   9.471  0.4462 -0.5871  1.7903
  134SAPE  H10S14486   6.002   0.073   9.380 -0.5350 -0.2120  0.6007
  134SAPE  C21114487   6.214   0.131   9.362  0.0081  0.6651  0.1144
  134SAPE  H11R14488   6.295   0.166   9.428  0.9771  1.6455 -1.5564
  134SAPE  C21214489   6.232   0.113   9.228 -0.9234  0.4792 -0.6742
  134SAPE  H12R14490   6.337   0.123   9.197 -0.9116  1.3961 -0.3624
  134SAPE  C21314491   6.123   0.057   9.137 -0.2606  0.0916  0.3874
  134SAPE  H13R14492   6.150   0.085   9.033 -1.3835  1.6229  0.5019
  134SAPE  H13S14493   6.020   0.094   9.152 -0.8789  0.5859 -4.3611
  134SAPE  C21414494   6.110  -0.095   9.140 -0.1631 -0.4858 -0.8961
  134SAPE  H14R14495   6.107  -0.136   9.242  0.5322 -1.4767 -1.2646
  134SAPE  C21514496   6.114  -0.180   9.034  0.2596 -0.5449 -0.2061
  134SAPE  H15R14497   6.082  -0.283   9.054 -0.3646  0.2596  3.4220
  134SAPE  C21614498   6.133  -0.147   8.890 -0.0695 -0.4046 -0.0048
  134SAPE  H16R14499   6.238  -0.156   8.855 -0.3130 -0.9730 -0.6045
  134SAPE  H16S14500   6.108  -0.039   8.880 -0.1312 -0.5967 -2.1670
  134SAPE  C21714501   6.046  -0.227   8.789 -0.2329  0.0182  0.3774
  134SAPE  H17R14502   6.093  -0.327   8.798  0.2080  0.1964  0.0651
  134SAPE  H17S14503   6.058  -0.178   8.690  0.9551 -2.0505 -0.5369
  134SAPE  C21814504   5.906  -0.236   8.837  0.8005  0.3656  0.6097
  134SAPE  H18R14505   5.848  -0.145   8.809  0.0907 -0.1790  0.2835
  134SAPE  H18S14506   5.880  -0.253   8.943  0.1856  0.7991  0.5321
  134SAPE  C21914507   5.833  -0.349   8.761  0.2632 -0.0912 -0.1959
  134SAPE  H19R14508   5.872  -0.450   8.787 -1.2467 -0.8342 -0.7431
  134SAPE  H19S14509   5.862  -0.341   8.654  0.6107 -1.0600 -0.1810
  134SAPE  C22014510   5.680  -0.349   8.794 -0.2136 -0.2101 -0.2940
  134SAPE  H20R14511   5.646  -0.246   8.820 -3.6905 -1.8777  2.1803
  134SAPE  H20S14512   5.647  -0.420   8.873  0.1096 -1.2744 -1.1106
  134SAPE  H20T14513   5.624  -0.376   8.701 -0.7494 -0.1767  0.0138
  134SAPE   C3314514   6.109  -0.340   9.704  0.5353 -0.3239  0.5040
  134SAPE   H3X14515   6.183  -0.414   9.742  1.7471  0.2184 -0.7646
  134SAPE   H3Y14516   6.157  -0.242   9.684  2.0260 -1.0292  0.6079
  134SAPE   C3414517   6.052  -0.391   9.569 -0.0601  0.4823  0.3368
  134SAPE   H4X14518   5.985  -0.308   9.538  0.0534 -0.7546 -3.3771
  134SAPE   H4Y14519   5.981  -0.473   9.596 -1.8360  1.2205 -1.9261
  134SAPE   C3514520   6.159  -0.414   9.465 -0.3141 -0.3560 -0.3288
  134SAPE   H5X14521   6.243  -0.470   9.510  0.2876  0.1109 -0.8675
  134SAPE   H5Y14522   6.212  -0.319   9.445 -0.4927 -0.5084 -1.6247
  134SAPE   C3614523   6.120  -0.481   9.332 -0.0945 -0.0246  0.5012
  134SAPE   H6X14524   6.024  -0.449   9.285 -1.5709 -2.3952  1.7786
  134SAPE   H6Y14525   6.103  -0.589   9.351  2.2526 -0.4636  0.1938
  134SAPE   C3714526   6.236  -0.490   9.237 -0.0610  0.0488 -0.1794
  134SAPE   H7X14527   6.320  -0.513   9.306 -1.9447 -3.8200  0.9603
  134SAPE   H7Y14528   6.252  -0.386   9.200  3.1944  0.4599  2.1592
  134SAPE   C3814529   6.228  -0.598   9.131  0.0147 -0.1152 -0.3658
  134SAPE   H8X14530   6.156  -0.578   9.049  0.7662 -0.1131 -1.0198
  134SAPE   H8Y14531   6.200  -0.691   9.185  0.9883 -0.9432 -1.2671
  134SAPE   C3914532   6.366  -0.635   9.063  0.4629 -0.5576  0.1087
  134SAPE   H9X14533   6.369  -0.734   9.014  0.2108  1.1043 -3.3970
  134SAPE   H9Y14534   6.451  -0.636   9.135 -0.9905  1.5545  1.9370
  134SAPE  C31014535   6.413  -0.541   8.954  0.3038 -0.2833  0.2574
  134SAPE  H10X14536   6.406  -0.441   9.003  1.2811 -0.8341  1.5440
  134SAPE  H10Y14537   6.357  -0.539   8.858  1.2596 -1.5812 -0.3505
  134SAPE  C31114538   6.563  -0.552   8.927 -0.1407 -0.0205  0.1078
  134SAPE  H11X14539   6.590  -0.659   8.912 -1.6364 -0.3331 -0.4646
  134SAPE  H11Y14540   6.635  -0.522   9.006  1.7709 -1.2825 -1.0974
  134SAPE  C31214541   6.609  -0.454   8.814  1.1445  0.3726 -0.5308
  134SAPE  H12X14542   6.712  -0.420   8.836  0.9348  0.5731  0.1628
  134SAPE  H12Y14543   6.550  -0.359   8.815 -2.4205 -1.7416  1.1425
  134SAPE  C31314544   6.594  -0.509   8.675 -1.1080  0.0305 -0.5591
  134SAPE  H13X14545   6.625  -0.429   8.605  0.8355  1.2628  1.6304
  134SAPE  H13Y14546   6.491  -0.538   8.645  0.0999 -1.9913 -2.8967
  134SAPE  C31414547   6.698  -0.625   8.651  0.2890  0.2201 -0.3451
  134SAPE  H14X14548   6.677  -0.723   8.699 -1.0785  0.3516 -0.6511
  134SAPE  H14Y14549   6.795  -0.584   8.687  0.7604 -0.4777 -0.8020
  134SAPE  C31514550   6.714  -0.648   8.502 -0.7389  0.2285 -0.7440
  134SAPE  H15X14551   6.796  -0.721   8.483 -0.7809 -0.2519  0.8697
  134SAPE  H15Y14552   6.733  -0.551   8.452 -1.3349  1.9173  2.1889
  134SAPE  C31614553   6.589  -0.706   8.442  0.2921  0.2393  0.1891
  134SAPE  H16X14554   6.512  -0.626   8.435 -0.7788 -0.8933 -1.2638
  134SAPE  H16Y14555   6.542  -0.782   8.508  1.6794 -0.8261 -0.0465
  134SAPE  C31714556   6.609  -0.755   8.293 -0.3019 -0.4193  0.4124
  134SAPE  H17X14557   6.666  -0.850   8.293  0.6042  0.1107 -1.2497
  134SAPE  H17Y14558   6.684  -0.696   8.238 -0.6870 -2.1252 -2.0191
  134SAPE  C31814559   6.479  -0.757   8.208  0.2948 -0.4844  0.3646
  134SAPE  H18X14560   6.426  -0.660   8.207 -0.1281 -0.7055  0.8433
  134SAPE  H18Y14561   6.409  -0.836   8.243  0.2058 -0.2538  0.7133
  134SAPE  H18Z14562   6.496  -0.785   8.101 -0.9957  0.7566 -0.1803
  135SAPE     N14563   6.099   5.506  10.584 -0.6455  0.1835 -0.1909
  135SAPE   HN114564   6.062   5.410  10.578  3.0952 -1.3665  0.0696
  135SAPE   HN214565   6.034   5.565  10.640 -0.3375  0.0855  0.2761
  135SAPE   HN314566   6.101   5.550  10.490  0.8822 -0.8772 -0.6739
  135SAPE   C1214567   6.232   5.487  10.647  0.6821 -0.1874  0.2778
  135SAPE  H12A14568   6.234   5.403  10.720  1.7998  0.1116  0.5999
  135SAPE  H12B14569   6.253   5.582  10.700  0.8368 -1.6736  2.9917
  135SAPE   C1114570   6.345   5.451  10.555 -0.1542  0.2700  0.3329
  135SAPE  H11A14571   6.443   5.440  10.606 -0.7664  1.0376  1.7189
  135SAPE  H11B14572   6.366   5.534  10.485  2.1187  0.7521  1.5427
  135SAPE     P14573   6.360   5.197  10.499 -0.1857 -0.9941 -0.4058
  135SAPE   O1314574   6.513   5.212  10.513  0.7389  0.1157 -0.3083
  135SAPE   O1414575   6.284   5.139  10.609 -0.0820 -0.0851  0.0969
  135SAPE   O1214576   6.301   5.336  10.468 -0.2567 -0.5387 -0.4881
  135SAPE   O1114577   6.334   5.108  10.380 -0.0140  0.2035  0.1592
  135SAPE    C114578   6.242   5.142  10.278 -0.1910  0.4176 -0.0899
  135SAPE    HA14579   6.240   5.251  10.255  2.1380  0.2434 -1.2645
  135SAPE    HB14580   6.260   5.076  10.190 -0.0725  0.2006  0.0963
  135SAPE    C214581   6.096   5.117  10.320  0.4339 -0.2596  0.0352
  135SAPE    HS14582   6.110   5.122  10.430 -1.8913  0.6037  0.3125
  135SAPE   O2114583   6.048   4.993  10.276  0.2293 -0.2987 -0.0024
  135SAPE   C2114584   5.958   4.945  10.356 -0.7088  0.0248 -0.0227
  135SAPE   O2214585   5.903   5.005  10.447 -0.1398 -0.0702  0.1820
  135SAPE   C2214586   5.951   4.793  10.319 -0.1572 -1.0232 -0.6382
  135SAPE   H2R14587   6.055   4.761  10.300 -0.5421 -2.4864 -0.3853
  135SAPE   H2S14588   5.912   4.732  10.404 -0.8869  0.3690  0.0460
  135SAPE    C314589   6.002   5.230  10.274  0.3277  0.3132 -0.9336
  135SAPE    HX14590   6.054   5.323  10.305  0.3423  0.0976 -0.2909
  135SAPE    HY14591   5.899   5.227  10.316  1.6729  0.2003  2.5420
  135SAPE   O3114592   6.003   5.232  10.133  0.9300 -0.1163  0.2576
  135SAPE   C3114593   5.914   5.164  10.067 -0.2125 -0.2032 -0.3501
  135SAPE   O3214594   5.818   5.102  10.119 -0.2661 -0.0993  0.3610
  135SAPE   C3214595   5.923   5.192   9.912 -0.1497  0.5925  0.2457
  135SAPE   H2X14596   5.943   5.301   9.900  1.3905  0.2281 -0.6628
  135SAPE   H2Y14597   5.818   5.194   9.876  0.9958  0.9414 -3.2166
  135SAPE   C2314598   5.865   4.770  10.186 -0.2818 -0.6066 -0.2405
  135SAPE   H3R14599   5.897   4.855  10.121 -1.8750  0.7742  0.7427
  135SAPE   H3S14600   5.757   4.786  10.201 -0.4087 -1.0545 -0.6469
  135SAPE   C2414601   5.889   4.623  10.139 -0.1005  0.3059 -0.1664
  135SAPE   H4R14602   5.855   4.558  10.223  2.2284  0.5383  0.9853
  135SAPE   H4S14603   5.998   4.610  10.123  0.4819  0.9540  2.9961
  135SAPE   C2514604   5.808   4.613  10.010  0.2930 -0.2562 -0.8628
  135SAPE   H5R14605   5.701   4.606  10.034  0.4271  1.1206  0.1835
  135SAPE   C2614606   5.854   4.580   9.889  0.5598  0.6314 -0.6285
  135SAPE   H6R14607   5.779   4.560   9.811 -1.0374  0.9899  0.7739
  135SAPE   C2714608   6.002   4.550   9.852  0.2698 -0.1142 -0.5572
  135SAPE   H7R14609   6.058   4.529   9.946 -0.9614 -0.1248  0.1849
  135SAPE   H7S14610   6.043   4.641   9.803  0.1485  0.4342  0.3441
  135SAPE   C2814611   6.013   4.425   9.768  0.1883  0.8052  0.0907
  135SAPE   H8R14612   6.033   4.329   9.817  2.1926  2.0267  1.7307
  135SAPE   C2914613   5.992   4.414   9.631  0.7098 -0.1848 -0.5819
  135SAPE   H9R14614   5.991   4.309   9.597 -0.0196 -0.2327 -0.4097
  135SAPE  C21014615   5.942   4.523   9.540  0.1275 -0.4622  0.1686
  135SAPE  H10R14616   6.006   4.514   9.449  2.3740 -1.2143  1.7804
  135SAPE  H10S14617   5.963   4.624   9.581 -1.9218 -1.8281  4.9640
  135SAPE  C21114618   5.799   4.539   9.515 -0.1966  0.8864 -0.1339
  135SAPE  H11R14619   5.748   4.604   9.588  0.5678  2.2398 -0.7904
  135SAPE  C21214620   5.740   4.511   9.392 -0.3080 -0.1481 -1.0714
  135SAPE  H12R14621   5.632   4.526   9.381  0.0166  2.4685 -1.1417
  135SAPE  C21314622   5.810   4.476   9.266 -0.8097 -0.6261 -0.6037
  135SAPE  H13R14623   5.748   4.421   9.193 -1.0885  0.9250 -1.5591
  135SAPE  H13S14624   5.890   4.401   9.288  0.4132  0.2182 -2.0600
  135SAPE  C21414625   5.879   4.599   9.210  0.6909  0.0502  0.1676
  135SAPE  H14R14626   5.929   4.662   9.284 -0.7707 -0.1033  1.3154
  135SAPE  C21514627   5.884   4.640   9.080  0.2567 -0.0593  1.0122
  135SAPE  H15R14628   5.925   4.739   9.056 -1.7207  1.4408  3.5548
  135SAPE  C21614629   5.813   4.566   8.966 -0.4150  0.0499 -0.2089
  135SAPE  H16R14630   5.702   4.574   8.968 -0.3315  1.4959 -0.4886
  135SAPE  H16S14631   5.824   4.456   8.975  3.1936  0.4848  1.0762
  135SAPE  C21714632   5.875   4.602   8.825  0.2338 -0.1276 -0.0787
  135SAPE  H17R14633   5.903   4.709   8.814 -1.3004  0.3726  0.7009
  135SAPE  H17S14634   5.811   4.579   8.737  0.7981 -0.0471 -0.5105
  135SAPE  C21814635   6.008   4.519   8.806 -0.3623 -0.2100  0.9858
  135SAPE  H18R14636   5.983   4.418   8.845  0.8085 -0.4508  1.1286
  135SAPE  H18S14637   6.091   4.561   8.866 -0.5867 -0.6163  1.5836
  135SAPE  C21914638   6.043   4.489   8.666 -0.5937  0.4958 -0.2259
  135SAPE  H19R14639   6.057   4.584   8.610  2.5034  0.0348 -0.3169
  135SAPE  H19S14640   5.966   4.424   8.617  0.1388 -0.3879 -0.2257
  135SAPE  C22014641   6.178   4.420   8.647 -0.0670 -0.3679 -0.2913
  135SAPE  H20R14642   6.261   4.480   8.688 -1.0903  1.0805 -0.3121
  135SAPE  H20S14643   6.189   4.386   8.542 -0.3544  2.2323 -1.1886
  135SAPE  H20T14644   6.166   4.334   8.717  4.0145 -0.0357  0.9290
  135SAPE   C3314645   6.030   5.104   9.840  0.1490 -0.6190  0.6544
  135SAPE   H3X14646   6.123   5.103   9.900  0.4464  1.6267  0.2641
  135SAPE   H3Y14647   6.046   5.154   9.742  0.7238 -1.3885  0.3473
  135SAPE   C3414648   5.998   4.954   9.822  0.3221  0.2065  0.1252
  135SAPE   H4X14649   5.965   4.920   9.922  1.1345  1.9286  1.0127
  135SAPE   H4Y14650   6.098   4.911   9.798  0.2522  0.8411 -1.3667
  135SAPE   C3514651   5.895   4.920   9.717  0.3868  0.0135 -0.4932
  135SAPE   H5X14652   5.803   4.960   9.764 -0.8851 -1.3697 -1.7930
  135SAPE   H5Y14653   5.882   4.810   9.726 -1.4338  0.4074  2.4685
  135SAPE   C3614654   5.926   4.966   9.575  0.3098  0.1289  0.1984
  135SAPE   H6X14655   6.013   4.905   9.543  0.7620  0.9562 -0.1734
  135SAPE   H6Y14656   5.976   5.065   9.577  0.5590  0.1200 -2.9170
  135SAPE   C3714657   5.808   4.951   9.484  0.3296 -0.5206  0.1447
  135SAPE   H7X14658   5.722   5.008   9.524 -0.0391 -0.1016 -1.2145
  135SAPE   H7Y14659   5.788   4.842   9.475  0.1274 -0.3659 -1.3682
  135SAPE   C3814660   5.835   5.008   9.345  0.9279 -0.0870 -0.3299
  135SAPE   H8X14661   5.936   4.977   9.312  1.0670 -0.6846  0.6289
  135SAPE   H8Y14662   5.835   5.118   9.359  0.1049 -0.1178 -0.0576
  135SAPE   C3914663   5.719   4.979   9.243 -0.4259 -0.0393 -0.1097
  135SAPE   H9X14664   5.625   4.996   9.299 -1.0095 -0.4436 -0.9518
  135SAPE   H9Y14665   5.723   4.872   9.211  0.6361  0.5481 -2.0776
  135SAPE  C31014666   5.710   5.073   9.119 -0.5148  0.1019 -0.6005
  135SAPE  H10X14667   5.703   5.173   9.168 -2.2283 -0.5141  0.4672
  135SAPE  H10Y14668   5.614   5.076   9.062  0.2304 -1.1780 -1.9326
  135SAPE  C31114669   5.827   5.061   9.030  0.0043 -0.1125  0.4988
  135SAPE  H11X14670   5.824   4.953   9.005 -3.4499 -0.1049  0.6540
  135SAPE  H11Y14671   5.927   5.088   9.070 -0.2303 -2.3477  2.6282
  135SAPE  C31214672   5.809   5.139   8.891  0.0291  0.6328 -0.5232
  135SAPE  H12X14673   5.907   5.133   8.837  1.0581  1.3519  1.2204
  135SAPE  H12Y14674   5.791   5.244   8.921  2.2182  0.9306 -0.1472
  135SAPE  C31314675   5.703   5.086   8.798  0.1530 -0.2117  0.2393
  135SAPE  H13X14676   5.604   5.078   8.850 -0.6102 -0.0755 -1.1818
  135SAPE  H13Y14677   5.725   4.981   8.769 -1.3594 -0.3567 -0.4446
  135SAPE  C31414678   5.690   5.178   8.671 -0.5917  0.3555  0.3408
  135SAPE  H14X14679   5.787   5.182   8.618 -0.4334  0.8984  0.6743
  135SAPE  H14Y14680   5.681   5.274   8.725 -1.8274  0.7124 -0.4733
  135SAPE  C31514681   5.577   5.144   8.580  0.1973  0.2987 -0.1333
  135SAPE  H15X14682   5.569   5.225   8.504 -0.9938 -0.7817 -1.1895
  135SAPE  H15Y14683   5.482   5.144   8.637  0.8379  0.1096  0.9569
  135SAPE  C31614684   5.587   5.002   8.512  0.6230  0.2842 -0.4855
  135SAPE  H16X14685   5.580   4.920   8.587  1.2109  0.9711  0.3326
  135SAPE  H16Y14686   5.687   4.993   8.464  0.5547 -0.5552 -0.4843
  135SAPE  C31714687   5.471   4.980   8.409  0.1365 -0.0945 -0.9711
  135SAPE  H17X14688   5.378   4.986   8.470  1.0397 -0.9102  0.5293
  135SAPE  H17Y14689   5.471   4.875   8.373 -0.6375  0.5217 -2.8376
  135SAPE  C31814690   5.464   5.063   8.286 -0.2327 -0.4564  0.7221
  135SAPE  H18X14691   5.563   5.065   8.235 -0.0331 -1.9470  1.0345
  135SAPE  H18Y14692   5.453   5.169   8.318 -2.0448 -0.9094  1.6413
  135SAPE  H18Z14693   5.372   5.036   8.231  0.0292  0.4433 -0.1925
  136SAPE     N14694   0.915   4.567  10.490  0.3566 -0.2395 -0.0285
  136SAPE   HN114695   0.967   4.619  10.417 -1.5600  0.3374 -1.0452
  136SAPE   HN214696   0.985   4.527  10.555  2.1724  2.5080 -0.2408
  136SAPE   HN314697   0.853   4.490  10.457  0.4006 -0.4150  0.2965
  136SAPE   C1214698   0.822   4.651  10.571  0.0135 -0.1860  0.1584
  136SAPE  H12A14699   0.761   4.586  10.637 -0.1440 -0.7885 -0.5791
  136SAPE  H12B14700   0.746   4.689  10.500 -1.7362 -2.2625  0.8558
  136SAPE   C1114701   0.896   4.765  10.625  0.0653  0.3071  0.1546
  136SAPE  H11A14702   0.833   4.827  10.691 -3.2253 -2.0130 -0.6949
  136SAPE  H11B14703   0.918   4.833  10.540  1.3045 -0.4226 -0.1360
  136SAPE     P14704   1.085   4.827  10.797  0.2141  0.2066 -0.0547
  136SAPE   O1314705   1.010   4.951  10.822 -0.2947  0.4774 -0.6288
  136SAPE   O1414706   1.127   4.741  10.916  1.1544 -0.0729 -0.2527
  136SAPE   O1214707   1.019   4.734  10.691  0.5584 -0.0977 -0.4892
  136SAPE   O1114708   1.221   4.867  10.724 -0.7409 -0.2502  0.2106
  136SAPE    C114709   1.306   4.756  10.682  0.8036 -0.1149  0.3864
  136SAPE    HA14710   1.306   4.672  10.755  2.7870 -1.7903 -1.4815
  136SAPE    HB14711   1.264   4.704  10.594 -2.5213  1.1564  1.1410
  136SAPE    C214712   1.449   4.804  10.654  0.1096  0.8463  0.5331
  136SAPE    HS14713   1.505   4.811  10.749 -1.5039 -0.1618  1.5778
  136SAPE   O2114714   1.450   4.938  10.595  0.1002  0.1257 -0.0548
  136SAPE   C2114715   1.557   4.993  10.559  0.2769  0.0315 -0.8696
  136SAPE   O2214716   1.672   4.948  10.554  0.0483 -0.3357  0.4011
  136SAPE   C2214717   1.525   5.132  10.498  0.5341  0.0215  1.0248
  136SAPE   H2R14718   1.430   5.115  10.443  0.7315  0.3236  0.5956
  136SAPE   H2S14719   1.503   5.199  10.584  0.8335  2.2372 -0.5931
  136SAPE    C314720   1.510   4.704  10.558  0.3584  0.0613  0.7559
  136SAPE    HX14721   1.489   4.597  10.582 -2.0551  0.7057  1.6371
  136SAPE    HY14722   1.619   4.713  10.577  0.0525  1.1732  2.0726
  136SAPE   O3114723   1.478   4.734  10.422 -0.0416 -0.4630 -0.4001
  136SAPE   C3114724   1.550   4.678  10.327 -0.3550  0.9471 -0.0017
  136SAPE   O3214725   1.640   4.594  10.348 -0.7055 -0.0354 -0.0610
  136SAPE   C3214726   1.495   4.721  10.187  0.2773 -0.2853  0.1567
  136SAPE   H2X14727   1.461   4.826  10.192  1.3116  0.0613  0.0249
  136SAPE   H2Y14728   1.409   4.656  10.162 -0.1867 -0.6814  2.7427
  136SAPE   C2314729   1.636   5.203  10.408  0.9329  0.5430 -0.5161
  136SAPE   H3R14730   1.740   5.193  10.446  0.4936 -1.1221  0.2673
  136SAPE   H3S14731   1.606   5.310  10.405 -2.7402 -0.4367 -0.9189
  136SAPE   C2414732   1.644   5.149  10.263  0.3342  0.1255  0.2750
  136SAPE   H4R14733   1.544   5.138  10.216  1.0327 -0.7496 -1.0472
  136SAPE   H4S14734   1.684   5.046  10.265  2.9318  1.0338 -1.7839
  136SAPE   C2514735   1.730   5.240  10.183  0.1214  0.2613 -0.0143
  136SAPE   H5R14736   1.786   5.315  10.241 -0.5318  0.3534  0.5064
  136SAPE   C2614737   1.739   5.248  10.053 -0.4374  0.4727 -0.1410
  136SAPE   H6R14738   1.812   5.323  10.017 -1.2713  0.5760 -1.6795
  136SAPE   C2714739   1.658   5.165   9.958  0.0465  0.3328 -0.4315
  136SAPE   H7R14740   1.574   5.122  10.017 -0.0451  0.8419 -0.1892
  136SAPE   H7S14741   1.715   5.078   9.920  2.2555  1.7392 -0.4161
  136SAPE   C2814742   1.603   5.247   9.845 -0.1408 -0.0200 -0.3404
  136SAPE   H8R14743   1.498   5.279   9.856 -0.0767  0.1382 -0.1780
  136SAPE   C2914744   1.661   5.253   9.725 -0.5252 -0.2730  0.5197
  136SAPE   H9R14745   1.612   5.309   9.644  0.3261 -2.8046 -1.8244
  136SAPE  C21014746   1.796   5.187   9.693  0.5483  0.6563  0.0571
  136SAPE  H10R14747   1.782   5.134   9.597  2.0012 -0.2188  0.3220
  136SAPE  H10S14748   1.830   5.110   9.766  0.4836 -1.0874 -1.7312
  136SAPE  C21114749   1.892   5.304   9.686  0.8406  0.6014 -0.7889
  136SAPE  H11R14750   1.901   5.365   9.777  1.0163  1.7511 -1.5714
  136SAPE  C21214751   1.961   5.351   9.586  0.1783  0.4801  0.3568
  136SAPE  H12R14752   2.010   5.446   9.615 -0.2680  1.0756 -0.7970
  136SAPE  C21314753   1.977   5.296   9.452 -0.5680 -0.0101 -0.0164
  136SAPE  H13R14754   1.883   5.311   9.395 -1.7051 -2.7610  1.0539
  136SAPE  H13S14755   1.995   5.188   9.468 -1.5328 -0.0563  0.7754
  136SAPE  C21414756   2.098   5.356   9.384 -0.2180 -0.1780  0.3858
  136SAPE  H14R14757   2.185   5.379   9.448  0.1394 -2.0481  0.6049
  136SAPE  C21514758   2.091   5.413   9.257 -0.3790  0.5239 -0.7929
  136SAPE  H15R14759   2.176   5.472   9.221  0.0127 -1.7018 -3.7317
  136SAPE  C21614760   1.976   5.404   9.158  0.3177  0.4713 -0.4565
  136SAPE  H16R14761   1.966   5.509   9.122 -2.0436  0.2470 -0.5103
  136SAPE  H16S14762   1.878   5.385   9.206 -1.1947  1.6615 -2.9672
  136SAPE  C21714763   1.986   5.312   9.035  0.5832  0.3659 -0.7599
  136SAPE  H17R14764   2.081   5.337   8.983  0.9284  1.0254  0.1645
  136SAPE  H17S14765   1.892   5.325   8.978 -0.1030  0.4793  0.3608
  136SAPE  C21814766   1.971   5.166   9.085 -0.0067  0.0500  0.0333
  136SAPE  H18R14767   1.871   5.164   9.134 -0.9287 -0.0363 -1.8098
  136SAPE  H18S14768   2.046   5.148   9.165  0.8289  0.1540 -0.7260
  136SAPE  C21914769   1.986   5.061   8.974  0.4834 -0.6393 -0.3344
  136SAPE  H19R14770   2.003   4.966   9.029  0.5455  0.8791  2.3690
  136SAPE  H19S14771   2.083   5.072   8.920  0.1645  0.1258 -0.7546
  136SAPE  C22014772   1.871   5.057   8.871  0.0459  0.3581 -0.2877
  136SAPE  H20R14773   1.879   4.963   8.812  0.7403  0.7980 -0.9032
  136SAPE  H20S14774   1.880   5.140   8.797  0.2031 -1.3545 -2.2330
  136SAPE  H20T14775   1.770   5.061   8.916 -0.5708  0.4373 -1.6729
  136SAPE   C3314776   1.600   4.696  10.078 -0.3101 -0.4288  0.4915
  136SAPE   H3X14777   1.634   4.590  10.071 -1.5703 -0.8774  0.9967
  136SAPE   H3Y14778   1.690   4.760  10.094  0.3807 -1.3734  0.4209
  136SAPE   C3414779   1.532   4.739   9.945  0.2255  0.3636 -0.7571
  136SAPE   H4X14780   1.515   4.848   9.960  1.2022  0.6678 -1.7977
  136SAPE   H4Y14781   1.433   4.692   9.931  1.9794 -2.8776 -2.7932
  136SAPE   C3514782   1.622   4.721   9.826  0.2217 -0.4016  0.0107
  136SAPE   H5X14783   1.676   4.625   9.835  0.2213 -0.1660  3.1848
  136SAPE   H5Y14784   1.702   4.798   9.833  0.5527 -0.6385 -1.0195
  136SAPE   C3614785   1.554   4.749   9.695  0.0858  0.1543  0.0558
  136SAPE   H6X14786   1.454   4.700   9.697  0.5037 -0.6660  1.5141
  136SAPE   H6Y14787   1.617   4.695   9.621 -0.3702  0.8162 -0.8313
  136SAPE   C3714788   1.535   4.895   9.651  0.3872  0.0038  0.5035
  136SAPE   H7X14789   1.625   4.954   9.678  0.8978 -0.9639  0.9073
  136SAPE   H7Y14790   1.443   4.934   9.700  0.2687 -0.0977  0.3654
  136SAPE   C3814791   1.519   4.899   9.490  0.5382  0.8660  0.3995
  136SAPE   H8X14792   1.423   4.848   9.464  1.2799  0.5539 -1.8373
  136SAPE   H8Y14793   1.605   4.839   9.453 -1.9378 -1.4346 -1.8046
  136SAPE   C3914794   1.527   5.036   9.425  0.2613  0.3188  0.6231
  136SAPE   H9X14795   1.635   5.061   9.435  0.1886  0.8529  0.1173
  136SAPE   H9Y14796   1.463   5.102   9.487  1.0506  0.8733  0.8610
  136SAPE  C31014797   1.483   5.030   9.273  0.0094  0.3186 -0.2218
  136SAPE  H10X14798   1.373   5.016   9.274  0.3259 -2.4371  0.0387
  136SAPE  H10Y14799   1.534   4.949   9.217  0.0512 -0.3051  0.7114
  136SAPE  C31114800   1.493   5.159   9.201  0.0586  0.0463 -0.4691
  136SAPE  H11X14801   1.593   5.179   9.158 -0.2867 -0.9448 -1.8053
  136SAPE  H11Y14802   1.452   5.237   9.268  0.4054 -0.2850  0.1273
  136SAPE  C31214803   1.419   5.156   9.060  0.3546  0.0482  0.0813
  136SAPE  H12X14804   1.312   5.131   9.076  0.4000  0.5576  1.2068
  136SAPE  H12Y14805   1.460   5.071   9.001 -0.3204  0.0351 -0.3802
  136SAPE  C31314806   1.429   5.282   8.977 -0.9614  0.0199  0.8333
  136SAPE  H13X14807   1.538   5.298   8.987 -1.1763  1.4310  1.0775
  136SAPE  H13Y14808   1.365   5.366   9.013 -0.5663 -0.0819  1.7880
  136SAPE  C31414809   1.384   5.249   8.831  0.9431  0.3284 -0.6321
  136SAPE  H14X14810   1.276   5.244   8.853  1.3568 -0.9392  1.2124
  136SAPE  H14Y14811   1.415   5.152   8.786  0.3096 -1.3549  2.4549
  136SAPE  C31514812   1.414   5.366   8.729 -0.2731  0.4496  0.6019
  136SAPE  H15X14813   1.523   5.370   8.709 -0.3661 -1.8512 -0.4808
  136SAPE  H15Y14814   1.388   5.463   8.776 -1.4605 -1.1350  3.2971
  136SAPE  C31614815   1.340   5.352   8.593  0.1982  0.1901 -0.4636
  136SAPE  H16X14816   1.232   5.340   8.617  0.6937 -0.5287  1.5175
  136SAPE  H16Y14817   1.379   5.263   8.539 -2.1755 -0.8261 -0.5747
  136SAPE  C31714818   1.358   5.463   8.499 -0.0195 -0.0150 -0.1827
  136SAPE  H17X14819   1.318   5.557   8.541  1.3713  0.2050  0.7073
  136SAPE  H17Y14820   1.300   5.450   8.405  1.7440 -1.6814 -1.0791
  136SAPE  C31814821   1.502   5.495   8.461  0.0873 -0.8185  0.4117
  136SAPE  H18X14822   1.499   5.562   8.372 -2.1877 -0.5627  0.6387
  136SAPE  H18Y14823   1.554   5.404   8.424 -1.5940 -1.8485  0.5278
  136SAPE  H18Z14824   1.564   5.540   8.541  1.4311  0.3879 -1.2555
  137SAPE     N14825   6.655   1.462  11.090 -0.0301 -0.0883 -0.4267
  137SAPE   HN114826   6.682   1.496  11.184 -0.2605  2.8723 -1.3677
  137SAPE   HN214827   6.746   1.474  11.040 -0.3845 -4.0185 -2.1862
  137SAPE   HN314828   6.590   1.527  11.040 -1.6796 -1.6337 -0.3467
  137SAPE   C1214829   6.612   1.321  11.065 -0.3726  0.6957 -0.7867
  137SAPE  H12A14830   6.514   1.298  11.112  0.4704 -0.8611  0.2722
  137SAPE  H12B14831   6.690   1.252  11.105  1.0048  1.3111 -2.3620
  137SAPE   C1114832   6.614   1.283  10.912 -0.6192  0.4245 -0.6030
  137SAPE  H11A14833   6.608   1.172  10.908  1.4725  0.2252  0.8961
  137SAPE  H11B14834   6.714   1.319  10.880 -0.5415  1.5382  0.8293
  137SAPE     P14835   6.380   1.278  10.795  0.1225  0.4588 -0.2588
  137SAPE   O1314836   6.316   1.210  10.912 -0.1922 -0.1638 -0.5574
  137SAPE   O1414837   6.294   1.372  10.726 -0.1063  0.6149  0.1517
  137SAPE   O1214838   6.508   1.346  10.844 -0.2357 -0.1259 -0.0975
  137SAPE   O1114839   6.434   1.153  10.704  0.4115 -0.2638 -0.4200
  137SAPE    C114840   6.521   1.158  10.600  0.1533 -0.2768 -0.4253
  137SAPE    HA14841   6.612   1.207  10.640 -0.1060 -1.3947  1.5884
  137SAPE    HB14842   6.547   1.055  10.567  0.0637 -0.0815 -1.1241
  137SAPE    C214843   6.483   1.239  10.474 -0.1236 -0.0948  0.5455
  137SAPE    HS14844   6.485   1.348  10.493 -0.6432  0.2414 -1.2118
  137SAPE   O2114845   6.348   1.206  10.431  0.3301  0.4431  0.9067
  137SAPE   C2114846   6.250   1.306  10.421 -0.1192 -0.0988  0.7416
  137SAPE   O2214847   6.274   1.425  10.431  0.2233 -0.3107  0.4391
  137SAPE   C2214848   6.112   1.245  10.378 -0.0737 -0.5051 -0.5184
  137SAPE   H2R14849   6.147   1.142  10.357  1.6903  0.1467 -0.9147
  137SAPE   H2S14850   6.042   1.251  10.464 -0.6529  0.5017 -1.0471
  137SAPE    C314851   6.586   1.222  10.355  0.1337  0.2488  0.3414
  137SAPE    HX14852   6.581   1.112  10.343 -0.9758  0.3501 -0.2483
  137SAPE    HY14853   6.687   1.250  10.392  0.6476 -0.1897 -0.6894
  137SAPE   O3114854   6.552   1.289  10.230 -0.3026  0.2734  0.5371
  137SAPE   C3114855   6.474   1.223  10.138 -0.1467 -0.3046 -0.6463
  137SAPE   O3214856   6.415   1.124  10.167 -0.2632 -0.4012 -0.3082
  137SAPE   C3214857   6.491   1.292  10.007  0.2475 -0.6525 -0.0774
  137SAPE   H2X14858   6.595   1.272   9.975  0.9388  3.9838 -1.1942
  137SAPE   H2Y14859   6.484   1.403  10.011  1.0011 -0.5852 -0.6774
  137SAPE   C2314860   6.049   1.308  10.251  0.9280  0.1200  0.1603
  137SAPE   H3R14861   6.130   1.296  10.176  1.4185  0.8088  0.5710
  137SAPE   H3S14862   6.018   1.414  10.266  0.9575  0.5603 -2.6247
  137SAPE   C2414863   5.921   1.237  10.203  1.6362  0.1012  0.6158
  137SAPE   H4R14864   5.854   1.237  10.292  0.7978 -0.4654  0.0018
  137SAPE   H4S14865   5.943   1.131  10.176  0.3758  0.0865 -0.4258
  137SAPE   C2514866   5.849   1.315  10.092  0.1477  0.1829  0.6391
  137SAPE   H5R14867   5.774   1.389  10.124 -0.2556  1.3828 -2.8972
  137SAPE   C2614868   5.841   1.283   9.964  0.3904 -0.8727  0.8555
  137SAPE   H6R14869   5.780   1.342   9.894  0.0879  1.5530  3.0708
  137SAPE   C2714870   5.900   1.169   9.886 -0.7298 -0.0608 -0.2091
  137SAPE   H7R14871   5.821   1.107   9.838  0.6367  0.7349 -3.6492
  137SAPE   H7S14872   5.946   1.108   9.966 -0.6837  3.2686  2.4372
  137SAPE   C2814873   6.014   1.216   9.800 -0.0246  0.6241 -0.0747
  137SAPE   H8R14874   6.097   1.246   9.865  1.6430 -2.3006 -0.7757
  137SAPE   C2914875   6.019   1.214   9.666 -0.9627 -0.0096 -0.1416
  137SAPE   H9R14876   6.107   1.259   9.617 -0.0509 -0.4493  1.0847
  137SAPE  C21014877   5.922   1.162   9.567 -0.7415  0.1632  0.0995
  137SAPE  H10R14878   5.851   1.089   9.610 -0.3818 -0.8187 -0.9571
  137SAPE  H10S14879   5.971   1.103   9.487  0.1616  0.3832  0.4763
  137SAPE  C21114880   5.840   1.264   9.499  0.0165  0.4509 -0.5524
  137SAPE  H11R14881   5.788   1.331   9.569 -1.8090  0.4567 -1.8623
  137SAPE  C21214882   5.837   1.298   9.368 -0.4695 -0.6180 -0.8689
  137SAPE  H12R14883   5.760   1.366   9.328  0.9347  1.1879 -0.5574
  137SAPE  C21314884   5.934   1.242   9.261 -0.1734 -0.6055  0.0747
  137SAPE  H13R14885   6.039   1.240   9.295 -0.0050 -1.5190 -0.5012
  137SAPE  H13S14886   5.936   1.306   9.170  0.0951 -1.4290 -0.4951
  137SAPE  C21414887   5.888   1.104   9.217  0.0570 -0.3434 -0.2656
  137SAPE  H14R14888   5.875   1.031   9.299  0.5748 -0.4178 -0.2455
  137SAPE  C21514889   5.853   1.073   9.091  0.1698 -0.1417  0.2305
  137SAPE  H15R14890   5.804   0.976   9.073  0.5556 -1.0438  3.6346
  137SAPE  C21614891   5.864   1.163   8.976  0.3339 -0.9314 -0.0192
  137SAPE  H16R14892   5.968   1.199   8.962  0.9666 -2.8782 -0.4273
  137SAPE  H16S14893   5.800   1.253   8.990  0.5772 -0.8758  0.7845
  137SAPE  C21714894   5.827   1.090   8.846 -0.0886  0.1729  0.1906
  137SAPE  H17R14895   5.848   0.981   8.848  2.8780  0.6526 -2.0178
  137SAPE  H17S14896   5.873   1.146   8.762 -0.9666  1.5135  0.5904
  137SAPE  C21814897   5.681   1.109   8.819  0.1457  0.2718  0.3187
  137SAPE  H18R14898   5.663   1.216   8.793  0.3646  0.1290 -0.4446
  137SAPE  H18S14899   5.620   1.080   8.907 -1.0319  1.0514 -0.2086
  137SAPE  C21914900   5.632   1.031   8.701  1.0645 -0.6385  0.1514
  137SAPE  H19R14901   5.665   0.925   8.705 -0.5647 -1.1201  1.0346
  137SAPE  H19S14902   5.682   1.084   8.618 -0.9652  1.2399  0.0999
  137SAPE  C22014903   5.489   1.044   8.675  0.0562  0.3811  0.4417
  137SAPE  H20R14904   5.447   1.144   8.697 -1.4310 -1.0488  4.7203
  137SAPE  H20S14905   5.420   0.977   8.731 -1.5910  2.1639  0.5803
  137SAPE  H20T14906   5.456   1.017   8.572 -0.3409  1.2550  0.3371
  137SAPE   C3314907   6.391   1.223   9.907 -0.2997 -0.6196 -0.0679
  137SAPE   H3X14908   6.289   1.236   9.948 -1.0271  0.5259 -2.1687
  137SAPE   H3Y14909   6.425   1.117   9.910  0.0932 -0.4913  0.0793
  137SAPE   C3414910   6.387   1.283   9.767  0.5168  0.2788 -1.3174
  137SAPE   H4X14911   6.366   1.390   9.789  0.9174  0.2063 -0.5630
  137SAPE   H4Y14912   6.299   1.258   9.705 -0.7425 -0.0479  0.5509
  137SAPE   C3514913   6.521   1.265   9.692  0.6875 -0.5935  1.1853
  137SAPE   H5X14914   6.545   1.158   9.674  2.4735 -0.0080 -0.0639
  137SAPE   H5Y14915   6.597   1.308   9.762  1.9114 -0.8634  0.0489
  137SAPE   C3614916   6.517   1.330   9.562 -0.6292  0.0375 -0.4178
  137SAPE   H6X14917   6.614   1.320   9.509 -1.4272 -0.5469 -1.8106
  137SAPE   H6Y14918   6.506   1.437   9.588 -2.4354 -0.5850  1.5961
  137SAPE   C3714919   6.409   1.287   9.467  0.7353  0.4611  0.7511
  137SAPE   H7X14920   6.311   1.327   9.502 -0.9495 -2.3691 -0.5218
  137SAPE   H7Y14921   6.410   1.177   9.448  2.0449  0.4170  1.0748
  137SAPE   C3814922   6.430   1.343   9.331  0.3233  0.2561  0.9876
  137SAPE   H8X14923   6.533   1.319   9.297  0.2373  1.1303  0.1005
  137SAPE   H8Y14924   6.412   1.450   9.308 -0.3084 -0.2316 -0.8523
  137SAPE   C3914925   6.325   1.280   9.237 -0.1938  0.0612  0.0867
  137SAPE   H9X14926   6.245   1.355   9.218  0.0670  0.7250  1.5687
  137SAPE   H9Y14927   6.288   1.187   9.287 -2.8445  1.2236  0.3906
  137SAPE  C31014928   6.390   1.237   9.101  0.1150 -0.0396 -0.8263
  137SAPE  H10X14929   6.471   1.164   9.126  1.0150  1.3645  0.4735
  137SAPE  H10Y14930   6.428   1.327   9.048  1.9024 -0.6278 -0.5786
  137SAPE  C31114931   6.285   1.172   9.009  0.1110  0.0964 -0.0227
  137SAPE  H11X14932   6.209   1.251   8.989  0.6253  1.0168  1.6050
  137SAPE  H11Y14933   6.233   1.098   9.074 -1.7901  0.9485 -0.5325
  137SAPE  C31214934   6.338   1.095   8.888 -0.0257  0.1656 -0.1155
  137SAPE  H12X14935   6.259   1.028   8.849  0.6842 -2.3012  2.5007
  137SAPE  H12Y14936   6.414   1.015   8.906  2.0972  1.5872 -2.4898
  137SAPE  C31314937   6.380   1.188   8.764  0.2195 -0.1026 -0.8370
  137SAPE  H13X14938   6.287   1.212   8.708 -1.9255 -0.3154  2.5206
  137SAPE  H13Y14939   6.439   1.126   8.694  0.0343 -1.2558  0.0256
  137SAPE  C31414940   6.463   1.315   8.792  0.3881  0.5008 -0.3711
  137SAPE  H14X14941   6.544   1.293   8.865  0.6922  0.1268 -0.8180
  137SAPE  H14Y14942   6.392   1.391   8.832  0.1693 -0.5932  1.3799
  137SAPE  C31514943   6.527   1.374   8.661  0.1115  0.4870 -0.2561
  137SAPE  H15X14944   6.583   1.295   8.608  2.9027  2.0087  0.2907
  137SAPE  H15Y14945   6.601   1.455   8.679  0.1976  0.3435  0.0475
  137SAPE  C31614946   6.428   1.437   8.558 -0.4994  0.9185 -0.6225
  137SAPE  H16X14947   6.371   1.523   8.602  0.1060  0.7550  0.5206
  137SAPE  H16Y14948   6.356   1.356   8.535  0.3503 -0.6581  2.0360
  137SAPE  C31714949   6.493   1.479   8.430  0.3202 -0.2704 -0.4449
  137SAPE  H17X14950   6.557   1.396   8.393  2.8006  0.0488  2.9460
  137SAPE  H17Y14951   6.555   1.570   8.445  0.3145 -0.1151 -1.3191
  137SAPE  C31814952   6.393   1.514   8.319 -0.3573  0.1115  0.6077
  137SAPE  H18X14953   6.437   1.529   8.218  1.1364 -1.2429  1.0293
  137SAPE  H18Y14954   6.342   1.606   8.353 -1.5698 -0.7605  1.1820
  137SAPE  H18Z14955   6.323   1.429   8.305 -2.2995  1.6223  1.0266
  138SAPE     N14956   3.315   1.842  10.713  0.4519 -0.2452 -0.2572
  138SAPE   HN114957   3.401   1.824  10.768  0.0941 -1.3712 -0.0594
  138SAPE   HN214958   3.234   1.794  10.756  0.2738  0.7796  0.5738
  138SAPE   HN314959   3.332   1.815  10.614 -0.4750 -1.3192 -0.1299
  138SAPE   C1214960   3.294   1.989  10.710  0.5276  0.7238  0.0024
  138SAPE  H12A14961   3.388   2.044  10.691 -0.7145  1.7252 -3.7218
  138SAPE  H12B14962   3.262   2.015  10.813 -0.6218  0.0923 -0.1873
  138SAPE   C1114963   3.200   2.025  10.593 -0.4715  0.2165  0.0553
  138SAPE  H11A14964   3.243   1.992  10.496  1.1834  2.1465  0.0947
  138SAPE  H11B14965   3.187   2.133  10.570  1.8118  0.2048 -1.4440
  138SAPE     P14966   2.961   2.007  10.703 -0.2580  0.0691  0.1048
  138SAPE   O1314967   2.842   1.920  10.688 -0.0783 -0.0521  0.9461
  138SAPE   O1414968   3.014   2.015  10.842 -0.6879  0.0790 -0.1118
  138SAPE   O1214969   3.072   1.968  10.606  0.4004 -0.4040  0.3628
  138SAPE   O1114970   2.923   2.149  10.660 -0.2559  0.3610 -0.0194
  138SAPE    C114971   2.833   2.177  10.547 -0.1501  0.7726 -0.4405
  138SAPE    HA14972   2.736   2.124  10.554  0.7355 -0.9345 -0.8991
  138SAPE    HB14973   2.813   2.286  10.553 -0.0671  0.7122  1.2485
  138SAPE    C214974   2.898   2.144  10.403  0.2289  0.1387  0.0115
  138SAPE    HS14975   2.902   2.033  10.404 -0.2685  0.1189  2.3294
  138SAPE   O2114976   3.023   2.218  10.392 -0.0197 -0.1721 -0.4320
  138SAPE   C2114977   3.104   2.154  10.305  0.2264 -0.4820  0.0890
  138SAPE   O2214978   3.079   2.047  10.247  0.1805 -0.2656 -0.0396
  138SAPE   C2214979   3.235   2.234  10.290  0.3585  0.0575 -0.1283
  138SAPE   H2R14980   3.252   2.318  10.361 -0.7871 -0.0877  0.3287
  138SAPE   H2S14981   3.322   2.167  10.309 -1.8521 -2.1940  2.4934
  138SAPE    C314982   2.792   2.194  10.298  0.0550  0.1633  0.0464
  138SAPE    HX14983   2.789   2.304  10.305  0.9877  0.2100 -0.2688
  138SAPE    HY14984   2.694   2.150  10.329  1.1523 -2.4619 -0.0344
  138SAPE   O3114985   2.822   2.161  10.159  0.6041 -0.1937 -0.0179
  138SAPE   C3114986   2.797   2.035  10.119 -0.5076  0.8330 -0.0052
  138SAPE   O3214987   2.750   1.946  10.189 -0.0114 -0.0293 -0.1414
  138SAPE   C3214988   2.851   2.018   9.979 -0.6168  0.4894 -0.8685
  138SAPE   H2X14989   2.937   1.948   9.988 -0.0531  1.2491 -0.2276
  138SAPE   H2Y14990   2.892   2.112   9.937 -0.9820  1.4244  0.8105
  138SAPE   C2314991   3.249   2.269  10.142 -0.2963  1.1294 -0.0641
  138SAPE   H3R14992   3.170   2.347  10.128 -1.0529  0.3693 -0.0785
  138SAPE   H3S14993   3.235   2.184  10.071 -0.1130  1.0298  0.0193
  138SAPE   C2414994   3.386   2.337  10.112  0.2932  0.2771 -0.7293
  138SAPE   H4R14995   3.469   2.266  10.135 -0.7192 -1.0059 -0.9482
  138SAPE   H4S14996   3.403   2.423  10.180  3.7131 -0.1759 -0.9150
  138SAPE   C2514997   3.401   2.382   9.972 -0.3987 -0.4641 -0.0654
  138SAPE   H5R14998   3.307   2.423   9.931 -0.9316  1.2020  2.6664
  138SAPE   C2614999   3.516   2.368   9.892  0.4343  0.7362  0.2401
  138SAPE   H6R15000   3.513   2.404   9.788  0.1368  0.4933  0.1639
  138SAPE   C2715001   3.643   2.306   9.929 -0.1434  0.3890 -0.0608
  138SAPE   H7R15002   3.678   2.333  10.031 -1.0411  0.2199  0.3003
  138SAPE   H7S15003   3.719   2.335   9.854  0.8801  1.4174  1.3583
  138SAPE   C2815004   3.629   2.154   9.915  0.0319  0.4038 -0.5501
  138SAPE   H8R15005   3.560   2.123   9.835  0.1115 -0.1391 -0.4149
  138SAPE   C2915006   3.706   2.063   9.981 -1.1001 -0.3130 -1.0059
  138SAPE   H9R15007   3.674   1.958   9.977  2.0529 -1.2812 -2.4968
  138SAPE  C21015008   3.801   2.101  10.094 -0.2021 -0.0158 -0.4651
  138SAPE  H10R15009   3.781   2.195  10.150  0.1514 -1.7380  2.6659
  138SAPE  H10S15010   3.900   2.115  10.044  1.7506 -2.0536  2.6541
  138SAPE  C21115011   3.815   1.996  10.199 -0.2398  0.3809 -0.1660
  138SAPE  H11R15012   3.877   1.912  10.165  0.7695 -0.0641  2.5995
  138SAPE  C21215013   3.754   2.002  10.324  0.0209 -0.4704 -0.7458
  138SAPE  H12R15014   3.774   1.918  10.393  0.2514  0.4402  0.3162
  138SAPE  C21315015   3.662   2.101  10.388 -0.3222  0.6598 -0.0195
  138SAPE  H13R15016   3.585   2.037  10.435  1.0443  1.4096  3.3589
  138SAPE  H13S15017   3.606   2.158  10.311 -0.1555  0.0929 -0.5666
  138SAPE  C21415018   3.728   2.192  10.486  0.5357  0.0819  0.1958
  138SAPE  H14R15019   3.752   2.142  10.581 -1.6298  0.4652  0.9844
  138SAPE  C21515020   3.751   2.322  10.469 -0.5862 -0.2297 -0.0868
  138SAPE  H15R15021   3.806   2.372  10.550 -1.0281  3.8711 -2.1785
  138SAPE  C21615022   3.733   2.400  10.347 -0.4674  0.0778 -0.9515
  138SAPE  H16R15023   3.661   2.480  10.377  0.7860  1.2393 -0.9728
  138SAPE  H16S15024   3.677   2.344  10.270 -1.4853  1.8183 -1.5232
  138SAPE  C21715025   3.866   2.439  10.287 -0.1517  0.2380  0.3074
  138SAPE  H17R15026   3.904   2.345  10.242  0.1463  1.3531 -1.8535
  138SAPE  H17S15027   3.936   2.475  10.366 -0.0572  2.2505 -0.6594
  138SAPE  C21815028   3.863   2.556  10.186 -0.2598 -0.2325  0.5008
  138SAPE  H18R15029   3.834   2.645  10.245 -0.5558  0.6968 -1.0071
  138SAPE  H18S15030   3.771   2.542  10.125 -0.9275  0.4471  1.3405
  138SAPE  C21915031   3.982   2.585  10.099  0.3464  0.2914 -0.1363
  138SAPE  H19R15032   4.068   2.580  10.169 -0.9698  3.6792  1.8122
  138SAPE  H19S15033   3.985   2.691  10.067 -1.3570  0.0881 -1.0284
  138SAPE  C22015034   4.009   2.492   9.980  0.5265  0.2138 -0.2459
  138SAPE  H20R15035   4.114   2.501   9.947  0.4882  1.4805 -0.0506
  138SAPE  H20S15036   3.955   2.522   9.888 -0.0793  1.8556  0.6104
  138SAPE  H20T15037   3.987   2.386  10.006 -1.7230  1.1119  1.7617
  138SAPE   C3315038   2.738   1.957   9.886  0.5035  0.2928  0.1636
  138SAPE   H3X15039   2.657   2.031   9.870  0.6648  0.4662  0.1585
  138SAPE   H3Y15040   2.678   1.877   9.935 -1.7734  1.3026 -0.9260
  138SAPE   C3415041   2.790   1.885   9.763  0.3166  0.6689 -0.0262
  138SAPE   H4X15042   2.863   1.805   9.790 -0.7849 -0.8240 -1.3262
  138SAPE   H4Y15043   2.844   1.957   9.697 -0.3684  1.1656 -0.0383
  138SAPE   C3515044   2.681   1.812   9.680  0.2126  0.4687 -0.2010
  138SAPE   H5X15045   2.619   1.895   9.639  0.3540 -1.1513 -3.8228
  138SAPE   H5Y15046   2.615   1.741   9.735  2.0577 -0.1539  1.2704
  138SAPE   C3615047   2.731   1.733   9.556 -0.3385 -0.0076 -0.4645
  138SAPE   H6X15048   2.648   1.674   9.513  0.7482 -1.3644 -0.7480
  138SAPE   H6Y15049   2.788   1.644   9.592 -1.1170  0.0230  0.8804
  138SAPE   C3715050   2.794   1.827   9.449 -0.2019 -0.2205 -0.6762
  138SAPE   H7X15051   2.901   1.838   9.477 -0.0028 -0.6393 -1.2822
  138SAPE   H7Y15052   2.748   1.927   9.433 -1.3538 -0.6463 -0.0528
  138SAPE   C3815053   2.789   1.760   9.313 -0.0521 -0.2894  0.1767
  138SAPE   H8X15054   2.799   1.650   9.326 -0.3140 -0.7841 -3.4631
  138SAPE   H8Y15055   2.875   1.786   9.247  0.3653 -1.4954  0.2415
  138SAPE   C3915056   2.665   1.802   9.243 -0.0304  0.9822  0.1095
  138SAPE   H9X15057   2.684   1.902   9.199 -0.4568  1.0250  0.0192
  138SAPE   H9Y15058   2.582   1.798   9.317 -1.4468  1.5745 -1.4119
  138SAPE  C31015059   2.642   1.703   9.131  0.3036  0.2841 -0.0654
  138SAPE  H10X15060   2.608   1.609   9.178  0.1728  0.4716  0.2182
  138SAPE  H10Y15061   2.740   1.682   9.085  0.9215 -0.3643  1.5330
  138SAPE  C31115062   2.535   1.745   9.032  0.1530  0.1714  0.5448
  138SAPE  H11X15063   2.561   1.839   8.979 -2.3317  0.4381 -0.2710
  138SAPE  H11Y15064   2.442   1.754   9.094 -0.3200 -0.9819  0.0280
  138SAPE  C31215065   2.492   1.641   8.930  0.0712 -0.6494 -0.2417
  138SAPE  H12X15066   2.467   1.547   8.984 -2.3688  0.7553  1.1466
  138SAPE  H12Y15067   2.576   1.617   8.861  2.8097 -0.4141  2.8450
  138SAPE  C31315068   2.381   1.688   8.828 -0.0925 -0.0964  0.0756
  138SAPE  H13X15069   2.426   1.770   8.769 -2.3634  1.7034  0.7671
  138SAPE  H13Y15070   2.310   1.740   8.897 -0.6140  0.0147 -0.5415
  138SAPE  C31415071   2.345   1.566   8.741  0.1794  0.8772 -0.3329
  138SAPE  H14X15072   2.325   1.479   8.806  1.8544  1.0780  0.4627
  138SAPE  H14Y15073   2.431   1.546   8.673  0.8533  0.2423  0.7044
  138SAPE  C31515074   2.219   1.607   8.669 -0.7634  0.0814 -0.3503
  138SAPE  H15X15075   2.255   1.670   8.586  1.8168 -1.3762 -0.3843
  138SAPE  H15Y15076   2.150   1.673   8.726 -2.2680 -1.1179 -0.7450
  138SAPE  C31615077   2.145   1.488   8.604  0.3672 -0.6115  0.7830
  138SAPE  H16X15078   2.052   1.523   8.554  2.1659  0.0856 -2.2328
  138SAPE  H16Y15079   2.109   1.414   8.679 -3.1862  0.9961  0.7864
  138SAPE  C31715080   2.240   1.415   8.503  0.1548 -0.4014  0.0852
  138SAPE  H17X15081   2.336   1.396   8.557 -0.9258 -4.0461  0.8877
  138SAPE  H17Y15082   2.263   1.487   8.422 -0.9616  0.5497  0.5986
  138SAPE  C31815083   2.177   1.287   8.441 -0.0807  0.0502  0.2640
  138SAPE  H18X15084   2.168   1.202   8.513  1.7608  0.2313  0.7417
  138SAPE  H18Y15085   2.229   1.244   8.353 -1.0786 -0.8085  0.0841
  138SAPE  H18Z15086   2.076   1.322   8.411  0.4347  2.1103  0.8933
  139SAPE     N15087   2.388   0.498  10.733  0.3307  0.7862 -0.4178
  139SAPE   HN115088   2.485   0.524  10.760  0.8865  1.4517 -2.9569
  139SAPE   HN215089   2.326   0.575  10.765 -1.5359 -0.7296 -0.3106
  139SAPE   HN315090   2.352   0.419  10.791  1.1975  0.6529 -0.0530
  139SAPE   C1215091   2.374   0.476  10.591 -0.4615  0.3568 -0.2446
  139SAPE  H12A15092   2.342   0.571  10.542 -0.3589 -1.1248 -3.2782
  139SAPE  H12B15093   2.288   0.408  10.578 -0.4123  0.1876  0.2997
  139SAPE   C1115094   2.505   0.430  10.523 -0.6271 -0.2149 -0.0619
  139SAPE  H11A15095   2.576   0.515  10.515  0.6039 -1.3521 -1.9572
  139SAPE  H11B15096   2.476   0.398  10.420  1.4901  2.0393 -1.4085
  139SAPE     P15097   2.533   0.171  10.581  0.1698 -0.0807  0.2874
  139SAPE   O1315098   2.577   0.100  10.704  0.5055 -0.1161 -0.6590
  139SAPE   O1415099   2.390   0.161  10.542 -0.1904  0.2256  0.3496
  139SAPE   O1215100   2.569   0.326  10.598 -0.4376 -0.4630  0.1605
  139SAPE   O1115101   2.625   0.126  10.463 -0.5100  0.9268 -0.4574
  139SAPE    C115102   2.764   0.161  10.467 -0.0759 -0.4805 -0.1747
  139SAPE    HA15103   2.768   0.272  10.477 -0.0053 -0.3004 -1.9923
  139SAPE    HB15104   2.816   0.109  10.550 -0.3891 -0.4501  0.0428
  139SAPE    C215105   2.825   0.113  10.337 -0.0999  0.1027  0.7076
  139SAPE    HS15106   2.926   0.071  10.353 -0.1641 -0.2757  0.1153
  139SAPE   O2115107   2.822   0.208  10.232 -0.7849 -0.4536 -0.4652
  139SAPE   C2115108   2.912   0.299  10.246  0.4677  0.2520  1.1553
  139SAPE   O2215109   3.003   0.298  10.329 -0.0629 -0.1057  0.4847
  139SAPE   C2215110   2.882   0.416  10.153  0.1736  0.3730 -0.0062
  139SAPE   H2R15111   2.975   0.475  10.169  1.1967 -1.0917 -0.4926
  139SAPE   H2S15112   2.872   0.391  10.045  2.0158  1.7111 -0.5129
  139SAPE    C315113   2.741  -0.003  10.285 -0.0544 -0.0995  0.2882
  139SAPE    HX15114   2.641   0.035  10.255  0.8571  2.8198  0.7298
  139SAPE    HY15115   2.715  -0.073  10.367 -0.3679 -0.5905 -0.2268
  139SAPE   O3115116   2.814  -0.078  10.177 -0.5307 -0.7702 -0.5584
  139SAPE   C3115117   2.914  -0.168  10.216  0.0161  0.1190  0.5229
  139SAPE   O3215118   2.945  -0.196  10.328  0.9560 -0.1700 -0.1721
  139SAPE   C3215119   2.987  -0.206  10.081 -0.1568  0.1318  0.4498
  139SAPE   H2X15120   3.067  -0.277  10.110  0.4021 -0.7646 -3.0368
  139SAPE   H2Y15121   3.030  -0.110  10.044  0.4474 -0.9381 -1.6810
  139SAPE   C2315122   2.757   0.489  10.190  0.0790  0.0712 -0.3777
  139SAPE   H3R15123   2.759   0.527  10.294  0.6479  0.1886 -0.4321
  139SAPE   H3S15124   2.669   0.421  10.197  1.0784 -1.3018 -0.9197
  139SAPE   C2415125   2.725   0.613  10.103  0.2663  0.6279 -0.4769
  139SAPE   H4R15126   2.633   0.663  10.140 -0.3657  0.2280 -1.4998
  139SAPE   H4S15127   2.693   0.581  10.002 -0.0841 -3.4455  0.8497
  139SAPE   C2515128   2.836   0.710  10.077 -0.4936 -0.3861  0.4502
  139SAPE   H5R15129   2.902   0.722  10.164 -0.7737 -1.9444  0.8906
  139SAPE   C2615130   2.869   0.784   9.964  0.1531 -0.2155  0.0492
  139SAPE   H6R15131   2.954   0.853   9.967 -0.1168  0.3363 -3.0212
  139SAPE   C2715132   2.800   0.800   9.832  0.0870 -0.1589 -0.0329
  139SAPE   H7R15133   2.783   0.909   9.825  1.0715  0.3284  4.0137
  139SAPE   H7S15134   2.702   0.747   9.833 -0.6873  1.2332 -1.6156
  139SAPE   C2815135   2.867   0.746   9.707 -0.7172 -0.4849 -0.2594
  139SAPE   H8R15136   2.945   0.674   9.736 -0.0806  0.8930  1.5245
  139SAPE   C2915137   2.840   0.766   9.582 -0.6183 -0.3777  0.5335
  139SAPE   H9R15138   2.907   0.720   9.509 -0.8663  2.4103 -1.5474
  139SAPE  C21015139   2.727   0.854   9.531  0.1369  0.8091 -0.0476
  139SAPE  H10R15140   2.752   0.961   9.549  1.2699  0.3332  1.2340
  139SAPE  H10S15141   2.636   0.832   9.590  0.9714 -0.5826  0.7296
  139SAPE  C21115142   2.682   0.838   9.384  0.1097 -0.1347 -0.4106
  139SAPE  H11R15143   2.588   0.781   9.372 -0.3776  0.6224 -0.2076
  139SAPE  C21215144   2.757   0.861   9.270  0.3362 -0.2775 -0.0500
  139SAPE  H12R15145   2.701   0.862   9.175  1.3168  3.1799 -0.6302
  139SAPE  C21315146   2.891   0.924   9.279 -0.0330  0.7909 -0.3078
  139SAPE  H13R15147   2.968   0.845   9.292 -0.4753  0.5292  0.7558
  139SAPE  H13S15148   2.902   0.996   9.363 -1.5393  0.4045  0.2432
  139SAPE  C21415149   2.927   0.995   9.152 -0.8039 -0.2073  0.3930
  139SAPE  H14R15150   2.840   1.020   9.088 -0.6295 -0.2595  0.1357
  139SAPE  C21515151   3.051   1.024   9.115  0.0553 -0.3073 -0.9175
  139SAPE  H15R15152   3.074   1.071   9.019  3.3886  1.2239  0.5359
  139SAPE  C21615153   3.177   0.988   9.195 -1.0420 -0.0676  0.1891
  139SAPE  H16R15154   3.156   0.984   9.304  0.2101  2.8088  0.5658
  139SAPE  H16S15155   3.243   1.074   9.173 -0.8401 -0.8015 -2.2565
  139SAPE  C21715156   3.256   0.862   9.160  0.2696 -0.2089 -0.4108
  139SAPE  H17R15157   3.208   0.780   9.218 -1.7310  1.2192 -0.0198
  139SAPE  H17S15158   3.359   0.879   9.199  0.7724  4.7703 -3.5083
  139SAPE  C21815159   3.269   0.821   9.012  0.4600  1.0637 -0.1702
  139SAPE  H18R15160   3.166   0.815   8.971  1.5182  1.4907 -2.9807
  139SAPE  H18S15161   3.315   0.720   9.002  0.0885  0.6372  2.0698
  139SAPE  C21915162   3.336   0.922   8.921 -0.4270 -0.2145  0.0100
  139SAPE  H19R15163   3.306   1.028   8.938  0.8762  0.1207  0.2904
  139SAPE  H19S15164   3.310   0.900   8.815  1.0445  0.3361 -0.4825
  139SAPE  C22015165   3.491   0.911   8.920  0.0136  0.6844 -0.3283
  139SAPE  H20R15166   3.543   0.964   8.837  1.5434  0.4751  0.4947
  139SAPE  H20S15167   3.532   0.808   8.915  0.6550  0.7108  3.3566
  139SAPE  H20T15168   3.531   0.956   9.013 -0.4809  2.1732 -0.8230
  139SAPE   C3315169   2.893  -0.283   9.979  0.1956 -0.3365  0.0749
  139SAPE   H3X15170   2.801  -0.223   9.964  1.9190  2.2298 -0.6149
  139SAPE   H3Y15171   2.862  -0.380  10.025  0.1563  0.3571  1.5389
  139SAPE   C3415172   2.948  -0.308   9.843 -0.7806 -0.4630  0.0441
  139SAPE   H4X15173   2.895  -0.399   9.809  1.1724 -2.2780  1.7128
  139SAPE   H4Y15174   3.055  -0.337   9.842 -1.5116 -3.2514 -1.1171
  139SAPE   C3515175   2.932  -0.206   9.741 -0.7338 -0.2438 -0.8380
  139SAPE   H5X15176   2.839  -0.147   9.757 -1.9177 -2.0263 -0.9694
  139SAPE   H5Y15177   2.913  -0.255   9.643 -0.4415 -0.1098 -0.9590
  139SAPE   C3615178   3.037  -0.099   9.731  0.6855 -0.0051 -0.0337
  139SAPE   H6X15179   3.135  -0.147   9.711  1.7652  2.3338 -0.5368
  139SAPE   H6Y15180   3.047  -0.049   9.830 -1.5130  2.7414 -1.1283
  139SAPE   C3715181   3.021   0.003   9.617 -0.0499  0.5843 -0.3208
  139SAPE   H7X15182   3.122   0.047   9.607  0.7541 -0.8230  1.3563
  139SAPE   H7Y15183   2.951   0.085   9.646 -0.4974 -0.3138  1.2230
  139SAPE   C3815184   2.977  -0.060   9.483  0.2538 -0.2841  0.5576
  139SAPE   H8X15185   2.874  -0.101   9.492  1.5494 -3.4205  1.8062
  139SAPE   H8Y15186   3.035  -0.149   9.451  0.9668  0.7152 -1.0089
  139SAPE   C3915187   2.969   0.042   9.363 -0.1025 -0.9754 -0.6574
  139SAPE   H9X15188   3.071   0.087   9.363 -0.5525  0.0877 -2.7235
  139SAPE   H9Y15189   2.905   0.130   9.385 -0.4110 -1.6625  1.3062
  139SAPE  C31015190   2.954  -0.027   9.230  0.0552  0.2023  0.0817
  139SAPE  H10X15191   2.896  -0.119   9.252 -0.1567  0.3686  0.2184
  139SAPE  H10Y15192   3.055  -0.054   9.190 -0.2042  0.0691 -0.4904
  139SAPE  C31115193   2.854   0.041   9.121 -0.1435 -0.5626 -0.0727
  139SAPE  H11X15194   2.896   0.140   9.093  0.0248 -0.4236  0.6600
  139SAPE  H11Y15195   2.763   0.051   9.184 -0.0797  3.4347 -0.5361
  139SAPE  C31215196   2.825  -0.049   8.998  0.3616  0.2867 -0.4059
  139SAPE  H12X15197   2.733  -0.019   8.944 -0.7840 -3.1342 -0.4809
  139SAPE  H12Y15198   2.817  -0.154   9.033 -0.9608  0.9040  1.1931
  139SAPE  C31315199   2.934  -0.052   8.879  0.6093 -0.3669  0.2318
  139SAPE  H13X15200   2.999  -0.137   8.908  1.8199  0.3556 -0.3485
  139SAPE  H13Y15201   2.984   0.047   8.880 -1.0308  0.4894 -1.0121
  139SAPE  C31415202   2.869  -0.078   8.750  0.0171  0.2281 -0.4775
  139SAPE  H14X15203   2.804   0.003   8.711  0.5605  1.3055  0.8288
  139SAPE  H14Y15204   2.804  -0.169   8.749  0.5000 -0.1372  0.8270
  139SAPE  C31515205   2.975  -0.091   8.641 -0.6163  0.2432 -0.1121
  139SAPE  H15X15206   3.023  -0.188   8.666 -2.4400 -0.5125  0.5847
  139SAPE  H15Y15207   3.046  -0.007   8.626 -0.2130  0.1448  1.2125
  139SAPE  C31615208   2.913  -0.108   8.509  0.5360 -0.1964 -0.1433
  139SAPE  H16X15209   2.834  -0.186   8.505 -1.2183  1.4343  1.0935
  139SAPE  H16Y15210   2.870  -0.012   8.473  1.7265  0.7625  0.9456
  139SAPE  C31715211   3.013  -0.155   8.404 -0.2304  0.5687  0.2516
  139SAPE  H17X15212   3.068  -0.238   8.452 -0.7570 -0.4739 -0.9379
  139SAPE  H17Y15213   3.078  -0.066   8.393  0.0084  0.3054 -0.5076
  139SAPE  C31815214   2.942  -0.193   8.276 -0.2715  0.1980 -0.4437
  139SAPE  H18X15215   3.008  -0.231   8.195 -0.7769  2.1895 -1.8358
  139SAPE  H18Y15216   2.876  -0.111   8.239  0.6783  0.9659 -0.4540
  139SAPE  H18Z15217   2.870  -0.274   8.300 -0.2102  0.0499 -0.7532
  140SAPE     N15218   5.468   4.437  10.979 -0.5869 -0.5822  0.0903
  140SAPE   HN115219   5.500   4.345  10.943  0.5632 -0.8547  1.7236
  140SAPE   HN215220   5.553   4.497  10.985 -1.4069  1.1599 -4.1563
  140SAPE   HN315221   5.428   4.422  11.074 -1.1307  1.3278  0.1852
  140SAPE   C1215222   5.365   4.515  10.905  0.2476  0.1003 -0.7933
  140SAPE  H12A15223   5.406   4.550  10.808  1.6894  0.4665 -0.0707
  140SAPE  H12B15224   5.336   4.606  10.962 -2.3500 -0.6301 -0.8878
  140SAPE   C1115225   5.238   4.440  10.888  0.3223  0.3832  0.0592
  140SAPE  H11A15226   5.259   4.338  10.850  1.4175 -0.2258  2.2019
  140SAPE  H11B15227   5.186   4.485  10.801 -0.5150  0.4540  0.5891
  140SAPE     P15228   5.056   4.335  11.056 -0.2041 -0.1520 -0.2019
  140SAPE   O1315229   5.116   4.220  11.125  0.3673 -0.1614 -0.5793
  140SAPE   O1415230   4.943   4.394  11.130 -0.1276  0.0310 -0.5232
  140SAPE   O1215231   5.165   4.441  11.012  0.4193  0.2507  0.1522
  140SAPE   O1115232   4.991   4.271  10.927  0.6183  0.0261  0.3892
  140SAPE    C115233   4.915   4.361  10.848  0.1844 -0.7479 -0.6298
  140SAPE    HA15234   4.812   4.376  10.886 -0.1210 -1.4696 -1.1680
  140SAPE    HB15235   4.963   4.461  10.841  0.6761 -0.8380  1.1367
  140SAPE    C215236   4.905   4.317  10.703  0.0502  0.2321  0.6648
  140SAPE    HS15237   4.845   4.224  10.696 -0.7221  0.6974  0.8901
  140SAPE   O2115238   5.037   4.295  10.653 -0.1948  0.2213 -0.4494
  140SAPE   C2115239   5.049   4.210  10.555 -0.2202 -0.2670 -0.0099
  140SAPE   O2215240   4.949   4.152  10.502  0.2840  0.0116  0.0219
  140SAPE   C2215241   5.196   4.198  10.532 -0.5822 -0.4027 -0.1424
  140SAPE   H2R15242   5.236   4.299  10.558  0.0695 -1.2578  2.3705
  140SAPE   H2S15243   5.240   4.126  10.605 -2.6136 -0.0446  1.4845
  140SAPE    C315244   4.828   4.422  10.622 -0.3590  0.0497 -0.2408
  140SAPE    HX15245   4.900   4.506  10.620  1.5250 -1.4770  1.1475
  140SAPE    HY15246   4.732   4.442  10.675 -0.3376 -0.3225 -0.0600
  140SAPE   O3115247   4.801   4.386  10.485  0.5529  0.1392  0.4667
  140SAPE   C3115248   4.681   4.347  10.447 -0.1523  0.1596  0.2216
  140SAPE   O3215249   4.597   4.307  10.525 -0.1811 -0.2614 -0.1529
  140SAPE   C3215250   4.667   4.333  10.294  0.2195 -0.0323 -0.1217
  140SAPE   H2X15251   4.740   4.401  10.244 -1.1697 -0.5082 -2.9412
  140SAPE   H2Y15252   4.562   4.345  10.259  0.1220  0.2567  0.2642
  140SAPE   C2315253   5.235   4.157  10.391  0.1481  0.9078  0.6419
  140SAPE   H3R15254   5.199   4.224  10.310  0.6550 -0.1127 -0.4319
  140SAPE   H3S15255   5.189   4.057  10.375  1.0288  0.1369  2.6487
  140SAPE   C2415256   5.388   4.148  10.389 -0.7415 -0.3454  0.1654
  140SAPE   H4R15257   5.429   4.083  10.308  1.1100 -4.0154  3.8907
  140SAPE   H4S15258   5.412   4.085  10.477  1.5627 -0.5565 -0.5665
  140SAPE   C2515259   5.473   4.275  10.386  0.3813  0.0302 -0.4684
  140SAPE   H5R15260   5.425   4.347  10.454  1.7869 -0.3638  0.9551
  140SAPE   C2615261   5.588   4.308  10.320 -0.3153  0.2043 -0.0320
  140SAPE   H6R15262   5.638   4.404  10.339 -0.0545 -0.2080  1.3621
  140SAPE   C2715263   5.665   4.217  10.223  0.0764 -0.3792 -0.7234
  140SAPE   H7R15264   5.601   4.131  10.194  0.4776 -1.2224  0.8506
  140SAPE   H7S15265   5.753   4.175  10.276 -0.1405  0.0311 -0.0354
  140SAPE   C2815266   5.723   4.283  10.098  0.5924 -0.2957  0.2697
  140SAPE   H8R15267   5.733   4.391  10.114  0.9934 -0.2336 -0.3818
  140SAPE   C2915268   5.755   4.226   9.981 -0.3864  0.1136  0.2361
  140SAPE   H9R15269   5.802   4.293   9.908 -1.0649  0.3311 -0.0093
  140SAPE  C21015270   5.738   4.085   9.946 -0.3517  0.4864  0.7738
  140SAPE  H10R15271   5.658   4.080   9.870 -0.2956  1.9491  0.6062
  140SAPE  H10S15272   5.694   4.018  10.023 -0.6496  1.4144  1.4209
  140SAPE  C21115273   5.860   4.025   9.884 -0.5780 -0.2362  1.0857
  140SAPE  H11R15274   5.937   3.985   9.951  1.0120 -1.6522 -1.5025
  140SAPE  C21215275   5.883   4.007   9.753 -0.3305  0.1114  0.1845
  140SAPE  H12R15276   5.969   3.944   9.726 -1.3567 -1.1827 -0.1183
  140SAPE  C21315277   5.803   4.037   9.632 -0.5470 -0.5016 -0.0852
  140SAPE  H13R15278   5.797   4.147   9.617  1.6912 -0.6165 -2.0232
  140SAPE  H13S15279   5.701   4.008   9.666 -1.8092  2.2636 -1.3833
  140SAPE  C21415280   5.832   3.964   9.507 -0.1686  0.1056 -0.7266
  140SAPE  H14R15281   5.751   3.900   9.470  1.7273 -2.8342  0.1073
  140SAPE  C21515282   5.954   3.962   9.445 -0.0721 -0.1667 -0.7173
  140SAPE  H15R15283   5.963   3.880   9.372  1.7590 -0.1184 -0.5688
  140SAPE  C21615284   6.082   4.028   9.485  0.0729  0.6562 -0.0337
  140SAPE  H16R15285   6.168   3.959   9.498  0.9617  1.5645 -0.9637
  140SAPE  H16S15286   6.070   4.086   9.579  3.3929 -0.3318  1.0920
  140SAPE  C21715287   6.114   4.123   9.375 -0.4625  0.1028 -0.2352
  140SAPE  H17R15288   6.206   4.181   9.397 -0.1847 -0.2070 -0.5808
  140SAPE  H17S15289   6.043   4.207   9.392  3.0823  3.4146 -1.2343
  140SAPE  C21815290   6.141   4.080   9.229  0.4037  0.5697 -0.1691
  140SAPE  H18R15291   6.050   4.023   9.198 -0.9155  2.1547  0.7172
  140SAPE  H18S15292   6.223   4.005   9.231  0.1570  0.2716 -0.9407
  140SAPE  C21915293   6.174   4.198   9.146 -0.4750  0.3294  0.7899
  140SAPE  H19R15294   6.271   4.237   9.184  0.3068 -0.2044 -0.6030
  140SAPE  H19S15295   6.110   4.288   9.157  0.1573  1.0070 -0.7971
  140SAPE  C22015296   6.167   4.174   8.991  0.1114 -0.3893 -0.1460
  140SAPE  H20R15297   6.177   4.269   8.935 -0.0585 -1.1941 -1.5720
  140SAPE  H20S15298   6.077   4.123   8.950  0.5416 -0.2626 -1.2605
  140SAPE  H20T15299   6.251   4.110   8.958  0.7548  0.3289  0.0994
  140SAPE   C3315300   4.709   4.182  10.258  0.3800 -0.1197  0.9411
  140SAPE   H3X15301   4.638   4.133  10.187  0.0691 -0.8083  1.7233
  140SAPE   H3Y15302   4.705   4.117  10.348  2.0937 -2.4429 -0.5990
  140SAPE   C3415303   4.845   4.176  10.187  0.4666 -0.1289  0.3856
  140SAPE   H4X15304   4.919   4.232  10.247  1.5304 -1.6608  0.5399
  140SAPE   H4Y15305   4.842   4.230  10.090 -0.4775 -0.2643  0.3370
  140SAPE   C3515306   4.891   4.035  10.164 -0.0558  0.1220  0.1823
  140SAPE   H5X15307   4.811   3.960  10.146 -2.5822  2.7388  0.0701
  140SAPE   H5Y15308   4.930   3.995  10.260  1.4878  1.7543  0.2669
  140SAPE   C3615309   4.997   4.028  10.049 -0.1329  0.8219  0.4425
  140SAPE   H6X15310   5.015   3.918  10.049 -0.6772  0.7219  1.5737
  140SAPE   H6Y15311   5.082   4.096  10.068  2.6563 -2.2938 -0.4521
  140SAPE   C3715312   4.933   4.072   9.914 -0.1362  0.5958  0.5023
  140SAPE   H7X15313   4.931   4.181   9.893 -3.9603  0.1401 -1.9364
  140SAPE   H7Y15314   4.830   4.031   9.912  0.6963 -1.5811  1.2210
  140SAPE   C3815315   5.008   4.012   9.795 -0.2695 -0.1516  0.0573
  140SAPE   H8X15316   5.022   3.903   9.813 -1.1491 -0.4137 -0.7967
  140SAPE   H8Y15317   5.112   4.047   9.779  0.1792 -1.0053  0.9882
  140SAPE   C3915318   4.937   4.017   9.655 -0.6280  0.0323 -0.1970
  140SAPE   H9X15319   4.954   4.119   9.615 -0.4428  0.6587  1.4304
  140SAPE   H9Y15320   4.829   4.027   9.679 -0.3845  2.2107  0.1376
  140SAPE  C31015321   4.971   3.905   9.564 -0.4912  0.8146  0.5895
  140SAPE  H10X15322   4.934   3.810   9.607 -0.5310  0.7252  0.3583
  140SAPE  H10Y15323   5.079   3.896   9.537 -1.2262 -0.3138 -2.1619
  140SAPE  C31115324   4.888   3.906   9.434  0.4174  0.0280  0.5144
  140SAPE  H11X15325   4.782   3.940   9.439  0.5426  0.5793 -0.4197
  140SAPE  H11Y15326   4.881   3.801   9.398 -0.4238 -0.0383  0.8508
  140SAPE  C31215327   4.954   3.977   9.313 -0.6383  0.2095 -0.2980
  140SAPE  H12X15328   5.058   3.938   9.311 -0.0277  1.8322 -1.3227
  140SAPE  H12Y15329   4.964   4.087   9.312 -0.8368  0.2248 -1.0947
  140SAPE  C31315330   4.893   3.933   9.182  0.2655 -0.0479 -0.3010
  140SAPE  H13X15331   4.796   3.987   9.176 -0.5644 -1.2579  1.7869
  140SAPE  H13Y15332   4.864   3.827   9.197 -1.0251  0.5116  1.3050
  140SAPE  C31415333   4.970   3.971   9.046 -0.7999 -0.0099  0.0380
  140SAPE  H14X15334   5.007   4.075   9.057 -0.0619 -0.2429 -0.1924
  140SAPE  H14Y15335   4.897   3.974   8.963 -0.0001  0.6086 -0.6424
  140SAPE  C31515336   5.094   3.878   9.016 -0.3697 -0.8677  0.2490
  140SAPE  H15X15337   5.039   3.782   9.007 -1.5395 -0.1142 -0.8106
  140SAPE  H15Y15338   5.168   3.868   9.098 -1.3386 -2.9169  0.9016
  140SAPE  C31615339   5.174   3.918   8.893  0.0243  0.5365  0.2346
  140SAPE  H16X15340   5.255   3.991   8.911  0.8233 -0.3964  0.4387
  140SAPE  H16Y15341   5.094   3.949   8.822  0.6183  1.6911  0.0622
  140SAPE  C31715342   5.229   3.795   8.812 -0.2381  0.1375 -0.7256
  140SAPE  H17X15343   5.148   3.749   8.752 -2.4346  1.1805  1.3100
  140SAPE  H17Y15344   5.259   3.720   8.888 -2.0692  0.3209  0.2144
  140SAPE  C31815345   5.342   3.835   8.722 -0.5008  0.0987  0.6630
  140SAPE  H18X15346   5.386   3.742   8.680  2.0101  0.6754  1.9204
  140SAPE  H18Y15347   5.434   3.869   8.774  1.5436  0.3464 -2.9174
  140SAPE  H18Z15348   5.314   3.901   8.637 -0.1458 -0.8528 -0.2123
  141SAPE     N15349   6.675   5.210  10.736 -0.2922  0.2901 -0.0488
  141SAPE   HN115350   6.753   5.277  10.721 -0.6502  0.3979 -1.3992
  141SAPE   HN215351   6.597   5.231  10.671 -1.3083  0.4125  1.1670
  141SAPE   HN315352   6.639   5.230  10.832  1.1663  1.2533  0.3193
  141SAPE   C1215353   6.714   5.070  10.737  0.2692 -0.0693 -0.3926
  141SAPE  H12A15354   6.811   5.049  10.787  0.2718 -0.8469 -0.7181
  141SAPE  H12B15355   6.734   5.037  10.633 -1.8485  0.4149 -0.9754
  141SAPE   C1115356   6.587   4.991  10.793 -0.2099  0.1936 -0.0327
  141SAPE  H11A15357   6.599   4.882  10.781  1.1172  0.3468 -0.2298
  141SAPE  H11B15358   6.508   5.016  10.719 -0.7206  0.3361  0.5607
  141SAPE     P15359   6.559   4.925  11.041  0.0967  0.0873 -0.4075
  141SAPE   O1315360   6.705   4.904  11.057 -0.2317 -0.5163  0.0454
  141SAPE   O1415361   6.486   4.966  11.164 -0.4665 -0.4535 -0.0167
  141SAPE   O1215362   6.544   5.035  10.921  0.1360 -0.5340 -0.1004
  141SAPE   O1115363   6.502   4.783  10.983  0.5796  0.3270 -0.6312
  141SAPE    C115364   6.365   4.752  10.949 -0.9699  0.8213 -0.5760
  141SAPE    HA15365   6.331   4.681  11.028  2.2312  1.1710  1.2066
  141SAPE    HB15366   6.301   4.843  10.949 -1.0690  0.7568 -2.0109
  141SAPE    C215367   6.337   4.681  10.816  0.1418  0.4580  1.0147
  141SAPE    HS15368   6.405   4.594  10.813  1.6254  1.6206  0.4840
  141SAPE   O2115369   6.375   4.778  10.710  0.1389  0.5551  0.0894
  141SAPE   C2115370   6.421   4.716  10.600  0.8658 -0.0691 -0.1650
  141SAPE   O2215371   6.430   4.595  10.583 -0.2516 -0.2303 -0.4543
  141SAPE   C2215372   6.451   4.818  10.492 -0.2375  0.3274  0.3644
  141SAPE   H2R15373   6.352   4.846  10.451  0.9226  0.2739 -2.6366
  141SAPE   H2S15374   6.478   4.918  10.533  0.1228  0.1706  0.5121
  141SAPE    C315375   6.192   4.634  10.802  0.1880  0.3482 -0.1584
  141SAPE    HX15376   6.120   4.719  10.808 -1.3856 -0.9835  0.3689
  141SAPE    HY15377   6.176   4.586  10.901 -1.3902  3.2443  1.0778
  141SAPE   O3115378   6.155   4.548  10.695 -0.1833  0.2672 -0.0173
  141SAPE   C3115379   6.103   4.606  10.599  0.5386 -0.8325 -0.3820
  141SAPE   O3215380   6.085   4.731  10.584  0.0696 -0.2364  0.4207
  141SAPE   C3215381   6.054   4.505  10.496 -0.2976 -0.0841  0.2058
  141SAPE   H2X15382   6.092   4.533  10.396 -0.3570  0.8515  0.4396
  141SAPE   H2Y15383   5.942   4.505  10.494 -0.3041  1.2371  0.6046
  141SAPE   C2315384   6.560   4.772  10.387 -0.1447  0.3301 -0.0402
  141SAPE   H3R15385   6.643   4.738  10.453  0.9838 -1.9500 -2.5461
  141SAPE   H3S15386   6.605   4.857  10.331 -1.2762  0.3277 -0.9690
  141SAPE   C2415387   6.531   4.646  10.302  0.1457  0.2790  0.1940
  141SAPE   H4R15388   6.510   4.555  10.362  2.2292  0.0931  0.6782
  141SAPE   H4S15389   6.622   4.619  10.244  0.0402 -2.3124  1.1811
  141SAPE   C2515390   6.414   4.668  10.207  0.2146  0.4007  0.0468
  141SAPE   H5R15391   6.320   4.689  10.260  1.9657  1.3031  2.8913
  141SAPE   C2615392   6.415   4.656  10.073 -0.0436  0.3763 -0.7642
  141SAPE   H6R15393   6.321   4.658  10.015  0.1501  1.0826 -1.0596
  141SAPE   C2715394   6.539   4.638   9.987 -0.4040 -0.4859  0.0773
  141SAPE   H7R15395   6.636   4.644  10.040 -1.1305  0.7131  1.3149
  141SAPE   H7S15396   6.540   4.724   9.916 -1.5473  0.2376  0.9053
  141SAPE   C2815397   6.522   4.504   9.923  0.8043  0.1369 -0.3623
  141SAPE   H8R15398   6.518   4.416   9.989  0.7755  1.2221  1.0954
  141SAPE   C2915399   6.476   4.488   9.804  0.5247 -0.3571  0.6064
  141SAPE   H9R15400   6.450   4.386   9.772 -3.0382  1.1788 -1.8377
  141SAPE  C21015401   6.436   4.602   9.710  0.4451 -0.2083  0.4057
  141SAPE  H10R15402   6.523   4.653   9.664 -0.1866 -0.7838 -1.4854
  141SAPE  H10S15403   6.389   4.685   9.766 -0.9015  0.1150 -1.1966
  141SAPE  C21115404   6.340   4.550   9.609 -0.5032  0.1772 -0.6358
  141SAPE  H11R15405   6.286   4.458   9.637  0.9709 -0.9543 -1.4460
  141SAPE  C21215406   6.291   4.613   9.502 -0.0870 -0.1663 -0.2829
  141SAPE  H12R15407   6.223   4.561   9.433 -0.0541  1.1937 -1.3580
  141SAPE  C21315408   6.332   4.752   9.457 -0.1130 -0.8811  0.4970
  141SAPE  H13R15409   6.386   4.798   9.543  0.0797  0.1145 -0.1464
  141SAPE  H13S15410   6.241   4.816   9.453 -1.2234 -2.0425  4.4543
  141SAPE  C21415411   6.425   4.762   9.337 -0.8628 -0.2006 -0.4538
  141SAPE  H14R15412   6.529   4.729   9.351 -0.8744 -0.0767 -0.0789
  141SAPE  C21515413   6.390   4.793   9.209 -0.0974  0.0381  0.1907
  141SAPE  H15R15414   6.467   4.795   9.130  0.3001 -1.8538  0.5162
  141SAPE  C21615415   6.253   4.832   9.155  0.8563  0.1600  0.2712
  141SAPE  H16R15416   6.186   4.875   9.232 -1.3138  0.9515 -1.9939
  141SAPE  H16S15417   6.199   4.745   9.113 -1.5742  2.2682 -1.0923
  141SAPE  C21715418   6.258   4.936   9.042 -0.9325  0.5629 -0.0830
  141SAPE  H17R15419   6.359   4.942   8.995 -1.2818 -0.5280 -1.0102
  141SAPE  H17S15420   6.242   5.040   9.076  0.1519  1.1150 -1.2146
  141SAPE  C21815421   6.166   4.912   8.920  1.0824  0.0637 -0.6296
  141SAPE  H18R15422   6.063   4.932   8.956  1.1622  0.0632 -0.3998
  141SAPE  H18S15423   6.170   4.806   8.886 -2.0533  0.3207 -1.9961
  141SAPE  C21915424   6.196   5.001   8.793 -0.0784 -0.1676 -0.3068
  141SAPE  H19R15425   6.120   4.983   8.713  0.5998 -0.3029 -0.9207
  141SAPE  H19S15426   6.290   4.954   8.759  0.0453 -0.0870 -0.0726
  141SAPE  C22015427   6.205   5.153   8.808 -0.1292  0.0151 -0.2517
  141SAPE  H20R15428   6.122   5.192   8.870 -0.3747 -1.3435  0.3039
  141SAPE  H20S15429   6.204   5.205   8.710  1.3517  1.1888  0.3415
  141SAPE  H20T15430   6.302   5.173   8.859 -0.4867 -2.2510  1.4014
  141SAPE   C3315431   6.105   4.362  10.532 -0.0038  0.4085  0.0559
  141SAPE   H3X15432   6.050   4.334  10.625  0.2722  0.1837  0.1488
  141SAPE   H3Y15433   6.215   4.374  10.527 -0.1530  0.9099 -3.4086
  141SAPE   C3415434   6.061   4.256  10.430  0.1359 -0.3086 -0.0852
  141SAPE   H4X15435   5.951   4.246  10.423  0.0442  1.4176 -1.4338
  141SAPE   H4Y15436   6.106   4.161  10.467  0.1354  0.1071  1.0240
  141SAPE   C3515437   6.116   4.292  10.287  0.0420 -0.1583 -0.2026
  141SAPE   H5X15438   6.212   4.346  10.278  0.7966 -1.3725  0.4198
  141SAPE   H5Y15439   6.030   4.349  10.245  0.6827 -0.2083 -1.6053
  141SAPE   C3615440   6.144   4.157  10.212  0.1748  0.0425  0.0528
  141SAPE   H6X15441   6.058   4.089  10.228 -0.9029  1.6414  1.2550
  141SAPE   H6Y15442   6.233   4.112  10.261  0.0710 -1.3875 -1.0581
  141SAPE   C3715443   6.187   4.179  10.073 -0.0699 -0.7562 -0.2801
  141SAPE   H7X15444   6.271   4.251  10.069  0.5063 -1.4597 -1.0897
  141SAPE   H7Y15445   6.105   4.235  10.023 -0.8044  0.6876  2.4411
  141SAPE   C3815446   6.224   4.063   9.980 -0.5009 -0.2996  0.0089
  141SAPE   H8X15447   6.141   3.991   9.968 -0.0518 -0.5016 -1.9697
  141SAPE   H8Y15448   6.315   4.016  10.024 -0.2268 -0.8144 -1.1015
  141SAPE   C3915449   6.253   4.111   9.834 -0.8954  0.8422  0.3735
  141SAPE   H9X15450   6.294   4.213   9.850  0.3345 -0.0165  2.8457
  141SAPE   H9Y15451   6.155   4.123   9.783 -0.7328  1.7613  0.2608
  141SAPE  C31015452   6.352   4.015   9.765 -0.0948  0.0388  0.1269
  141SAPE  H10X15453   6.298   3.920   9.742  0.9710 -0.5174 -0.1146
  141SAPE  H10Y15454   6.438   4.004   9.834  0.5289 -0.0817 -0.6621
  141SAPE  C31115455   6.410   4.084   9.642  0.4957  0.2673  0.1738
  141SAPE  H11X15456   6.482   4.168   9.654 -0.5662  1.5194 -1.9129
  141SAPE  H11Y15457   6.326   4.123   9.580  0.7080 -0.3530 -0.5146
  141SAPE  C31215458   6.477   3.975   9.557  0.3145 -0.2673 -0.2456
  141SAPE  H12X15459   6.403   3.896   9.534  0.0465 -0.7537  2.1894
  141SAPE  H12Y15460   6.553   3.923   9.619  0.5404 -1.4662 -1.5068
  141SAPE  C31315461   6.533   4.034   9.425  0.5185  0.6782  0.3486
  141SAPE  H13X15462   6.614   4.109   9.442  2.9551 -1.6252 -0.7440
  141SAPE  H13Y15463   6.451   4.094   9.380  0.0768 -0.9536 -1.0910
  141SAPE  C31415464   6.579   3.930   9.321 -0.2192 -0.5009  0.5017
  141SAPE  H14X15465   6.501   3.853   9.300 -2.6684  2.6529 -2.7071
  141SAPE  H14Y15466   6.654   3.867   9.372 -0.9431 -1.4188  0.4601
  141SAPE  C31515467   6.640   3.986   9.188  0.4123  0.1545 -0.5490
  141SAPE  H15X15468   6.713   3.906   9.166 -1.8235 -1.8011 -1.0062
  141SAPE  H15Y15469   6.703   4.076   9.206  1.4827 -1.0540  2.0356
  141SAPE  C31615470   6.545   4.016   9.079 -0.3624 -0.3859  1.0587
  141SAPE  H16X15471   6.490   4.110   9.103 -0.3920 -0.5587  1.6837
  141SAPE  H16Y15472   6.474   3.933   9.063 -1.0559  0.6317 -1.3010
  141SAPE  C31715473   6.619   4.032   8.945 -0.1163 -0.3742  0.0098
  141SAPE  H17X15474   6.687   3.944   8.935  0.9273  0.3396  0.7934
  141SAPE  H17Y15475   6.681   4.124   8.937  0.2720 -0.8618 -3.1601
  141SAPE  C31815476   6.515   4.032   8.829 -0.1791  0.0295  0.3457
  141SAPE  H18X15477   6.469   3.933   8.812 -3.0969  1.5003 -0.5487
  141SAPE  H18Y15478   6.560   4.068   8.734 -3.5588  2.2143 -0.5157
  141SAPE  H18Z15479   6.436   4.107   8.849  0.0997  0.5186 -0.3425
  142SAPE     N15480   6.254   4.059  11.296  0.2041 -0.0054  0.1275
  142SAPE   HN115481   6.153   4.048  11.272  0.5646 -2.5613 -0.4428
  142SAPE   HN215482   6.249   4.094  11.394  1.4757 -0.2805  0.2885
  142SAPE   HN315483   6.296   4.130  11.234  2.2907 -0.7807  0.6115
  142SAPE   C1215484   6.304   3.920  11.269  0.4295 -0.1120  0.8045
  142SAPE  H12A15485   6.228   3.839  11.277  1.2982 -1.0719 -0.5302
  142SAPE  H12B15486   6.392   3.908  11.336 -0.7671 -1.0404  2.2528
  142SAPE   C1115487   6.344   3.922  11.121 -0.6679  0.1083 -0.3496
  142SAPE  H11A15488   6.258   3.948  11.056 -3.1614 -2.6811  1.7243
  142SAPE  H11B15489   6.361   3.818  11.086 -0.6692  0.3469 -1.0582
  142SAPE     P15490   6.449   4.142  11.019  0.0925  0.2590 -0.1215
  142SAPE   O1315491   6.369   4.230  11.104  0.0148 -0.1036  0.0055
  142SAPE   O1415492   6.587   4.181  10.985 -0.3912 -0.3516  0.2549
  142SAPE   O1215493   6.456   4.003  11.094 -0.1078  0.5046  0.0561
  142SAPE   O1115494   6.373   4.109  10.888  0.1594 -0.1632 -0.0797
  142SAPE    C115495   6.413   4.013  10.794  0.3637  0.0926 -0.8613
  142SAPE    HA15496   6.512   3.964  10.813 -0.4068 -0.8410  0.8359
  142SAPE    HB15497   6.340   3.930  10.788 -0.4398  0.7226  0.1085
  142SAPE    C215498   6.403   4.074  10.649 -0.1298 -0.2098 -0.2864
  142SAPE    HS15499   6.303   4.116  10.625 -0.3085  0.1405  1.0283
  142SAPE   O2115500   6.455   3.983  10.545 -0.5334  0.0327 -0.3111
  142SAPE   C2115501   6.359   3.904  10.510  0.2496 -0.4370 -0.3365
  142SAPE   O2215502   6.243   3.910  10.552 -0.7099 -0.1782  0.0635
  142SAPE   C2215503   6.399   3.811  10.391 -0.0520 -0.6073 -0.2759
  142SAPE   H2R15504   6.438   3.871  10.306 -1.8728 -0.7008 -1.2041
  142SAPE   H2S15505   6.484   3.749  10.427  1.1601  1.8255  1.1781
  142SAPE    C315506   6.494   4.197  10.640  0.3426 -0.1793 -0.1328
  142SAPE    HX15507   6.591   4.160  10.682  0.3828 -1.1623 -1.0712
  142SAPE    HY15508   6.460   4.277  10.709 -0.3813 -0.7447  0.1618
  142SAPE   O3115509   6.494   4.248  10.501  0.1189  0.0224  0.2548
  142SAPE   C3115510   6.599   4.219  10.430 -0.1535 -0.5269 -0.1360
  142SAPE   O3215511   6.693   4.140  10.458  0.1266 -0.1199 -0.7136
  142SAPE   C3215512   6.606   4.304  10.302  0.2153 -0.7743  0.1254
  142SAPE   H2X15513   6.668   4.395  10.313  1.2080 -1.2713 -1.2537
  142SAPE   H2Y15514   6.503   4.333  10.270  0.3145 -1.7007 -1.0858
  142SAPE   C2315515   6.279   3.727  10.346  0.0485 -0.0012 -0.0016
  142SAPE   H3R15516   6.188   3.790  10.335  1.4514  1.6921 -2.4925
  142SAPE   H3S15517   6.248   3.656  10.425 -3.1346  0.2031 -0.9859
  142SAPE   C2415518   6.300   3.634  10.228  0.4514 -0.1663  0.0716
  142SAPE   H4R15519   6.196   3.593  10.229 -0.6178  2.3295 -1.4874
  142SAPE   H4S15520   6.381   3.562  10.248  0.4180 -0.5022 -0.9676
  142SAPE   C2515521   6.334   3.714  10.106  0.3123  0.3742  0.0195
  142SAPE   H5R15522   6.299   3.818  10.101  2.6396  1.2863  1.6950
  142SAPE   C2615523   6.391   3.668   9.993 -0.2471 -0.6932 -0.7074
  142SAPE   H6R15524   6.397   3.735   9.906  0.3168  0.9460  0.5645
  142SAPE   C2715525   6.437   3.526   9.963 -0.2737 -0.5353  0.4388
  142SAPE   H7R15526   6.398   3.470   9.875 -1.1044 -0.1709  0.5719
  142SAPE   H7S15527   6.419   3.461  10.051  0.0408 -0.5381  0.5033
  142SAPE   C2815528   6.585   3.544   9.950  0.3060 -0.4500  0.1903
  142SAPE   H8R15529   6.644   3.543  10.042  0.0975  2.6934  0.4007
  142SAPE   C2915530   6.651   3.556   9.834 -0.5997 -0.1720  0.3437
  142SAPE   H9R15531   6.761   3.563   9.832 -0.5635  0.0248  2.1903
  142SAPE  C21015532   6.592   3.565   9.700 -0.0079  0.3823  0.7867
  142SAPE  H10R15533   6.641   3.644   9.640  1.2871  0.0057  1.3320
  142SAPE  H10S15534   6.483   3.587   9.704 -0.0766  0.3593 -0.6502
  142SAPE  C21115535   6.605   3.434   9.635  0.0806  0.1536  0.1017
  142SAPE  H11R15536   6.613   3.350   9.706  1.7521 -1.3856 -1.8381
  142SAPE  C21215537   6.637   3.411   9.508  1.1929  0.0777 -0.2765
  142SAPE  H12R15538   6.634   3.305   9.480 -2.4645 -0.5831  2.1421
  142SAPE  C21315539   6.655   3.505   9.396  0.0291 -0.2272  1.2299
  142SAPE  H13R15540   6.644   3.611   9.430  1.9578  0.3501  0.0950
  142SAPE  H13S15541   6.567   3.491   9.329 -0.5307  0.3041  1.8354
  142SAPE  C21415542   6.786   3.476   9.315 -0.3562 -0.0658 -0.2011
  142SAPE  H14R15543   6.864   3.419   9.368 -0.4320  1.3552  1.5022
  142SAPE  C21515544   6.802   3.508   9.184  0.9859 -0.2434  0.6112
  142SAPE  H15R15545   6.892   3.472   9.133 -0.0002 -2.2640  0.2441
  142SAPE  C21615546   6.697   3.575   9.102 -0.1158 -0.4027  0.1634
  142SAPE  H16R15547   6.634   3.640   9.166  0.5112  0.0387  0.3279
  142SAPE  H16S15548   6.642   3.492   9.052 -0.2035 -0.3434  0.1601
  142SAPE  C21715549   6.756   3.661   8.985  0.0169 -0.4556 -0.4255
  142SAPE  H17R15550   6.826   3.737   9.025  1.6323 -2.0588 -0.0998
  142SAPE  H17S15551   6.667   3.709   8.939  1.0670  0.3518 -1.6494
  142SAPE  C21815552   6.833   3.579   8.876  0.1746  0.0982 -0.6622
  142SAPE  H18R15553   6.769   3.509   8.817 -1.1060 -1.0567  1.9818
  142SAPE  H18S15554   6.911   3.519   8.927 -1.2643  0.0638  1.5884
  142SAPE  C21915555   6.890   3.679   8.771 -0.1772 -0.2125  0.1754
  142SAPE  H19R15556   6.951   3.762   8.811  1.8631 -1.9050  0.6594
  142SAPE  H19S15557   6.797   3.719   8.724  0.4793  1.5666  0.3737
  142SAPE  C22015558   6.967   3.605   8.657 -0.5752 -0.3474 -0.3238
  142SAPE  H20R15559   6.963   3.670   8.567 -0.8293 -0.0820 -0.1204
  142SAPE  H20S15560   6.917   3.510   8.628 -1.7964  0.7220 -1.7373
  142SAPE  H20T15561   7.076   3.596   8.679 -0.5721 -2.1968 -1.0297
  142SAPE   C3315562   6.668   4.232  10.170 -0.7600 -0.0729 -0.5348
  142SAPE   H3X15563   6.773   4.197  10.178 -0.1424  0.4580 -5.0150
  142SAPE   H3Y15564   6.670   4.297  10.080  0.3311  0.8060  0.1162
  142SAPE   C3415565   6.586   4.108  10.138 -0.4936  1.1809 -0.1142
  142SAPE   H4X15566   6.490   4.144  10.094  0.2572  3.0922 -0.2507
  142SAPE   H4Y15567   6.564   4.047  10.228  0.4427  0.3668 -0.4247
  142SAPE   C3515568   6.648   4.009  10.036  0.7125  0.0521  0.2595
  142SAPE   H5X15569   6.572   3.945   9.986  0.7276  0.4393 -0.2712
  142SAPE   H5Y15570   6.717   3.939  10.087 -0.1946  0.5871  2.2323
  142SAPE   C3615571   6.741   4.064   9.924 -0.7454 -0.2606  0.2745
  142SAPE   H6X15572   6.806   4.143   9.965 -0.8466  0.2925 -0.6273
  142SAPE   H6Y15573   6.671   4.112   9.852 -2.6808 -1.4846  1.2896
  142SAPE   C3715574   6.807   3.951   9.848  0.0707 -0.7267 -0.0214
  142SAPE   H7X15575   6.731   3.875   9.819  0.4678 -0.9982 -0.3598
  142SAPE   H7Y15576   6.877   3.895   9.915  0.6816 -0.0054 -0.0494
  142SAPE   C3815577   6.874   4.016   9.725  0.1860  0.5901 -0.2314
  142SAPE   H8X15578   6.968   4.069   9.750 -0.9452  1.9222  1.2565
  142SAPE   H8Y15579   6.810   4.094   9.680 -0.2686  1.0391  1.1633
  142SAPE   C3915580   6.909   3.916   9.613  0.4384  0.1580  0.2945
  142SAPE   H9X15581   6.812   3.866   9.592  0.4201  0.3774 -0.1547
  142SAPE   H9Y15582   6.988   3.847   9.652 -0.8679  0.2684  3.2373
  142SAPE  C31015583   6.959   3.975   9.480  0.3277  0.9917  0.6155
  142SAPE  H10X15584   7.044   4.042   9.504  0.5875  1.1308 -0.6734
  142SAPE  H10Y15585   6.884   4.046   9.441  0.0218 -0.0362 -0.6952
  142SAPE  C31115586   6.994   3.866   9.377  0.7619  0.2422 -0.4417
  142SAPE  H11X15587   6.890   3.834   9.350  1.1714 -3.5052  2.0226
  142SAPE  H11Y15588   7.044   3.780   9.426  0.9939  0.9389  0.5523
  142SAPE  C31215589   7.075   3.917   9.265  0.0416 -0.0989  0.5659
  142SAPE  H12X15590   7.159   3.974   9.309 -0.0818  0.8646 -0.4320
  142SAPE  H12Y15591   7.012   3.979   9.198 -0.1044 -0.6258  0.2077
  142SAPE  C31315592   7.135   3.803   9.187 -0.6006  0.6074  0.5941
  142SAPE  H13X15593   7.060   3.741   9.133 -0.0001 -1.1275  1.6834
  142SAPE  H13Y15594   7.188   3.740   9.261 -0.6176  1.3372  1.2318
  142SAPE  C31415595   7.233   3.866   9.085 -0.2084  0.1125 -0.0963
  142SAPE  H14X15596   7.303   3.940   9.128  0.6257 -1.1359  0.6995
  142SAPE  H14Y15597   7.175   3.927   9.011 -1.1407 -0.0429  0.4973
  142SAPE  C31515598   7.302   3.757   8.996  0.8131  0.6483 -0.1129
  142SAPE  H15X15599   7.224   3.682   8.971  1.6283 -0.9398  2.0304
  142SAPE  H15Y15600   7.368   3.699   9.064  0.1720 -0.5873 -0.5414
  142SAPE  C31615601   7.386   3.805   8.870 -0.9055  0.2027 -0.1760
  142SAPE  H16X15602   7.463   3.879   8.901 -1.1229 -0.0642  1.0084
  142SAPE  H16Y15603   7.317   3.863   8.805 -1.0669 -3.3277 -3.2696
  142SAPE  C31715604   7.453   3.695   8.790 -0.1483 -0.3543  0.2624
  142SAPE  H17X15605   7.482   3.723   8.687  1.2795 -0.2904  0.6740
  142SAPE  H17Y15606   7.379   3.614   8.772  1.7780 -1.6703 -1.9698
  142SAPE  C31815607   7.572   3.640   8.873  0.9345  0.3525  0.0372
  142SAPE  H18X15608   7.615   3.545   8.835 -2.3797 -0.4243 -2.0017
  142SAPE  H18Y15609   7.535   3.609   8.973  0.1949 -0.6443 -0.5433
  142SAPE  H18Z15610   7.656   3.713   8.879  1.5595 -0.4812  1.6987
  143SAPE     N15611   1.616   3.164  10.778  0.1860 -0.1445  0.2135
  143SAPE   HN115612   1.536   3.097  10.779  0.2851 -0.2672  2.3101
  143SAPE   HN215613   1.582   3.262  10.778 -1.5179 -0.7068 -0.9550
  143SAPE   HN315614   1.658   3.147  10.684 -1.3413  0.3650 -0.5810
  143SAPE   C1215615   1.715   3.117  10.878 -0.1925 -0.2589  0.6993
  143SAPE  H12A15616   1.754   3.026  10.827  0.2829  1.2812 -1.7566
  143SAPE  H12B15617   1.660   3.096  10.972  0.8304 -0.6118  1.2378
  143SAPE   C1115618   1.821   3.229  10.897 -0.8839 -0.4651 -0.7503
  143SAPE  H11A15619   1.847   3.261  10.794  0.2194 -1.2246 -0.7190
  143SAPE  H11B15620   1.897   3.165  10.946 -0.2189 -0.1775 -1.4012
  143SAPE     P15621   1.880   3.429  11.048  0.2587  0.1813  0.3932
  143SAPE   O1315622   1.843   3.426  11.191 -0.2676 -0.0085  0.2591
  143SAPE   O1415623   2.022   3.395  11.028 -0.4107  0.2413  0.2702
  143SAPE   O1215624   1.779   3.336  10.971 -0.2660 -0.2926  0.0331
  143SAPE   O1115625   1.857   3.576  10.989  0.6679  0.5041 -0.0478
  143SAPE    C115626   1.737   3.594  10.909 -0.2738 -0.4689  0.0311
  143SAPE    HA15627   1.645   3.540  10.941 -0.0065  0.2421  2.0761
  143SAPE    HB15628   1.711   3.700  10.928 -2.3320 -1.4255  3.0142
  143SAPE    C215629   1.760   3.578  10.750  1.0414 -0.3511 -0.6199
  143SAPE    HS15630   1.804   3.477  10.744 -0.8744 -1.4726  2.8795
  143SAPE   O2115631   1.851   3.678  10.704 -0.3698  0.0593 -0.4733
  143SAPE   C2115632   1.939   3.645  10.610 -0.6353  0.6221  0.3191
  143SAPE   O2215633   1.977   3.532  10.580  0.7119 -0.6474 -0.2561
  143SAPE   C2215634   2.007   3.764  10.542  0.6035 -0.2680  0.0266
  143SAPE   H2R15635   1.928   3.828  10.497 -0.9802 -1.3530  1.1764
  143SAPE   H2S15636   2.053   3.829  10.619  3.1660  0.4100 -2.0405
  143SAPE    C315637   1.624   3.581  10.672  0.4016  0.8090 -0.0519
  143SAPE    HX15638   1.576   3.677  10.701 -2.0286 -0.5846  0.6874
  143SAPE    HY15639   1.570   3.504  10.730 -0.5570  1.0150 -0.6644
  143SAPE   O3115640   1.635   3.551  10.531 -0.0946 -0.6846  0.8364
  143SAPE   C3115641   1.629   3.421  10.488 -1.3373 -0.4076 -0.2936
  143SAPE   O3215642   1.588   3.330  10.556 -0.0587 -0.3858  0.3163
  143SAPE   C3215643   1.687   3.408  10.346 -0.1491  0.0356  0.3932
  143SAPE   H2X15644   1.732   3.508  10.331 -2.3383  1.4369  2.6445
  143SAPE   H2Y15645   1.602   3.393  10.277 -0.7571  0.7187  0.9827
  143SAPE   C2315646   2.110   3.738  10.435  0.4356 -0.2056  0.5245
  143SAPE   H3R15647   2.159   3.639  10.442  0.7473 -0.0543  0.5028
  143SAPE   H3S15648   2.187   3.813  10.461 -0.4918  0.7964  0.4308
  143SAPE   C2415649   2.069   3.763  10.291  1.4277 -0.4255 -0.5728
  143SAPE   H4R15650   2.158   3.754  10.225  2.6915  0.1298  1.0330
  143SAPE   H4S15651   2.031   3.867  10.274  0.5524 -0.1766  2.5940
  143SAPE   C2515652   1.969   3.663  10.247  0.1149  0.3238 -0.1069
  143SAPE   H5R15653   1.968   3.583  10.323 -0.6169 -0.4769 -0.9356
  143SAPE   C2615654   1.901   3.652  10.134  0.4927 -0.0856  0.3238
  143SAPE   H6R15655   1.843   3.560  10.116  1.0355 -0.2466 -0.6177
  143SAPE   C2715656   1.904   3.750  10.022 -0.4117 -0.4579 -0.4040
  143SAPE   H7R15657   1.926   3.701   9.925 -1.7163  0.8312 -1.3699
  143SAPE   H7S15658   1.981   3.827  10.042 -0.8317 -0.2095  0.2960
  143SAPE   C2815659   1.779   3.832  10.037 -0.4061  0.2995 -0.2491
  143SAPE   H8R15660   1.754   3.854  10.142  0.8303 -0.6746  0.2561
  143SAPE   C2915661   1.700   3.875   9.941 -1.1674 -0.3008 -0.1993
  143SAPE   H9R15662   1.622   3.946   9.973  1.1860  0.5683  3.9613
  143SAPE  C21015663   1.719   3.852   9.798 -0.4313 -0.0404 -0.8525
  143SAPE  H10R15664   1.650   3.772   9.765  1.9181 -2.1247 -0.8333
  143SAPE  H10S15665   1.820   3.813   9.773 -0.3462 -1.2226  1.2489
  143SAPE  C21115666   1.683   3.970   9.712  0.0546 -0.3174  0.3403
  143SAPE  H11R15667   1.574   3.987   9.710  0.1111  0.2056  1.4137
  143SAPE  C21215668   1.758   4.046   9.637  0.5411 -0.3454 -0.6941
  143SAPE  H12R15669   1.704   4.113   9.568 -1.1613 -0.0409  0.8745
  143SAPE  C21315670   1.910   4.051   9.617  0.1249  0.6621 -0.3558
  143SAPE  H13R15671   1.953   4.038   9.719  3.4886  1.8643 -1.5583
  143SAPE  H13S15672   1.935   4.157   9.595  0.7290  0.6043  0.0361
  143SAPE  C21415673   1.969   3.945   9.530  0.0292  0.2046  0.3604
  143SAPE  H14R15674   1.960   3.842   9.568 -1.4119 -0.0337 -0.5941
  143SAPE  C21515675   2.048   3.967   9.416  0.2381  0.2284 -0.2872
  143SAPE  H15R15676   2.080   3.879   9.358  0.1030  0.1569 -0.2552
  143SAPE  C21615677   2.079   4.105   9.355  0.2549  0.0741  0.2966
  143SAPE  H16R15678   2.189   4.119   9.365  0.0636  2.7163 -1.0649
  143SAPE  H16S15679   2.044   4.189   9.419 -0.0203 -0.2333  0.5501
  143SAPE  C21715680   2.034   4.130   9.210 -0.6621  0.4432  0.3841
  143SAPE  H17R15681   2.034   4.241   9.200 -1.5425  0.2202 -2.7295
  143SAPE  H17S15682   1.930   4.100   9.184  0.2882 -2.9601  0.3864
  143SAPE  C21815683   2.135   4.080   9.108 -0.0544  0.6338 -0.0391
  143SAPE  H18R15684   2.142   3.970   9.113  0.1312  0.6981  1.5056
  143SAPE  H18S15685   2.237   4.099   9.149 -0.0040 -1.6768  0.9624
  143SAPE  C21915686   2.122   4.138   8.966  0.0597  1.1415  0.0854
  143SAPE  H19R15687   2.134   4.248   8.972  0.0529  1.2381 -1.3300
  143SAPE  H19S15688   2.026   4.108   8.918 -0.1926  1.1746  0.5699
  143SAPE  C22015689   2.229   4.083   8.874 -0.1398  0.6998  0.1391
  143SAPE  H20R15690   2.329   4.111   8.915  0.5609 -1.0232 -0.3293
  143SAPE  H20S15691   2.222   4.127   8.772 -0.3486  1.5577  0.5198
  143SAPE  H20T15692   2.232   3.972   8.870 -0.1474  0.7595 -2.8994
  143SAPE   C3315693   1.794   3.295  10.336  0.0289 -0.5052  0.3416
  143SAPE   H3X15694   1.736   3.201  10.324  0.1619 -0.2221 -3.1891
  143SAPE   H3Y15695   1.868   3.284  10.417 -0.5313 -1.5052  0.7337
  143SAPE   C3415696   1.882   3.295  10.208  0.3522 -0.4878  0.3055
  143SAPE   H4X15697   1.958   3.215  10.216  2.0288  1.1807  1.6715
  143SAPE   H4Y15698   1.950   3.383  10.199 -0.8108  0.3572 -0.3171
  143SAPE   C3515699   1.798   3.307  10.081 -0.0475 -0.0802  0.0907
  143SAPE   H5X15700   1.720   3.385  10.088 -0.7504 -0.8148  0.5626
  143SAPE   H5Y15701   1.736   3.216  10.064 -2.8146  1.5308  1.2283
  143SAPE   C3615702   1.870   3.352   9.952  0.5250  0.3701 -0.4394
  143SAPE   H6X15703   1.958   3.284   9.948 -0.2742 -0.7859  0.8245
  143SAPE   H6Y15704   1.921   3.450   9.965  2.4635 -0.9106  2.1856
  143SAPE   C3715705   1.787   3.339   9.823 -0.8234  0.5666 -0.2430
  143SAPE   H7X15706   1.698   3.406   9.826 -0.9578  0.3857 -0.1983
  143SAPE   H7Y15707   1.746   3.237   9.809 -0.4639  0.1769  1.4486
  143SAPE   C3815708   1.882   3.374   9.706 -0.2394 -0.9878  0.4204
  143SAPE   H8X15709   1.939   3.285   9.670  0.6394 -0.7139  1.1237
  143SAPE   H8Y15710   1.956   3.450   9.739 -0.8374  0.4459 -1.4578
  143SAPE   C3915711   1.819   3.445   9.581  0.2288 -0.5255  0.2579
  143SAPE   H9X15712   1.762   3.534   9.614  1.7380 -0.2280  2.1605
  143SAPE   H9Y15713   1.745   3.381   9.528  0.1497  0.4347 -0.8155
  143SAPE  C31015714   1.923   3.485   9.478 -0.2879  0.0110  0.3460
  143SAPE  H10X15715   1.990   3.399   9.458 -2.0850 -0.8671 -2.0911
  143SAPE  H10Y15716   1.997   3.554   9.523  0.5942 -1.9445  1.9889
  143SAPE  C31115717   1.865   3.530   9.348 -0.3271  0.6234  0.6448
  143SAPE  H11X15718   1.796   3.617   9.354  0.0879  1.0736 -0.8514
  143SAPE  H11Y15719   1.806   3.455   9.290  2.4026 -1.0793 -0.0309
  143SAPE  C31215720   1.974   3.571   9.249  0.0861 -0.3552  0.1947
  143SAPE  H12X15721   2.046   3.486   9.241 -0.5151 -0.7602 -1.0534
  143SAPE  H12Y15722   2.035   3.651   9.297  0.2433 -1.0010  1.0851
  143SAPE  C31315723   1.914   3.618   9.116  0.1782 -0.2284  0.3461
  143SAPE  H13X15724   1.867   3.718   9.131  2.2037  0.6897  0.7792
  143SAPE  H13Y15725   1.833   3.551   9.082 -0.1246 -0.0375  0.6806
  143SAPE  C31415726   2.018   3.632   9.003  0.2374 -0.5454  0.2105
  143SAPE  H14X15727   2.006   3.538   8.944 -1.2299  0.9018 -1.8649
  143SAPE  H14Y15728   2.119   3.634   9.049  1.0374 -0.0289 -1.5052
  143SAPE  C31515729   2.006   3.754   8.907 -0.2936  0.5323 -0.8564
  143SAPE  H15X15730   2.097   3.771   8.845  0.7255 -1.1020  0.1508
  143SAPE  H15Y15731   1.999   3.844   8.971 -2.8764  0.9402 -1.6510
  143SAPE  C31615732   1.881   3.748   8.818  0.7136  0.6351 -0.3435
  143SAPE  H16X15733   1.793   3.718   8.879  0.6456  2.2308  0.3611
  143SAPE  H16Y15734   1.901   3.657   8.756  1.0017 -0.4092  1.2521
  143SAPE  C31715735   1.859   3.876   8.738  0.0642  0.0812 -0.0568
  143SAPE  H17X15736   1.951   3.899   8.679  1.6247 -0.4678  2.1008
  143SAPE  H17Y15737   1.841   3.953   8.815 -1.2918 -1.5594  1.2906
  143SAPE  C31815738   1.740   3.890   8.646  0.5100 -0.4441 -0.4069
  143SAPE  H18X15739   1.752   3.985   8.590  0.2351  0.3164  0.8039
  143SAPE  H18Y15740   1.656   3.895   8.719  0.5907 -2.2874 -0.1738
  143SAPE  H18Z15741   1.719   3.802   8.581 -0.6761  0.2602 -1.0026
  144SAPE     N15742   3.608   1.801  11.242 -0.0753 -0.0779 -0.4006
  144SAPE   HN115743   3.620   1.814  11.345  0.8103  0.3109 -0.5512
  144SAPE   HN215744   3.629   1.895  11.203  0.8526 -0.1230 -0.0003
  144SAPE   HN315745   3.507   1.777  11.231 -0.7595  1.2956  2.4781
  144SAPE   C1215746   3.710   1.709  11.188  0.0414 -0.2226  0.2499
  144SAPE  H12A15747   3.671   1.605  11.192  1.1723 -0.7756 -1.8577
  144SAPE  H12B15748   3.806   1.730  11.240  1.1008  1.1873 -2.1707
  144SAPE   C1115749   3.713   1.728  11.033 -0.1371 -0.1253  0.2275
  144SAPE  H11A15750   3.620   1.686  10.988  0.6615 -0.4385 -1.1727
  144SAPE  H11B15751   3.794   1.661  10.997  0.3700  0.1735  0.8104
  144SAPE     P15752   3.703   1.920  10.857 -0.1073  0.1173 -0.1013
  144SAPE   O1315753   3.566   1.869  10.822  0.6660 -0.8279  0.3791
  144SAPE   O1415754   3.723   2.062  10.871  0.1050 -0.4080 -0.1163
  144SAPE   O1215755   3.752   1.864  10.996 -0.1200  0.7311 -0.1525
  144SAPE   O1115756   3.802   1.861  10.748 -0.0417  0.8557  0.5169
  144SAPE    C115757   3.943   1.877  10.762 -0.4534  0.5439 -0.8522
  144SAPE    HA15758   3.966   1.918  10.863 -0.3519 -0.2008 -0.5684
  144SAPE    HB15759   3.996   1.779  10.760 -1.4203 -0.0918  1.6199
  144SAPE    C215760   3.989   1.982  10.658 -0.0974  0.2089  0.3007
  144SAPE    HS15761   3.924   2.072  10.667 -1.5037 -0.9087  1.4793
  144SAPE   O2115762   3.980   1.929  10.521  0.5491  0.4748 -0.5032
  144SAPE   C2115763   4.066   1.838  10.487  0.6836 -0.6902  0.7452
  144SAPE   O2215764   4.148   1.779  10.552  0.0450  0.0684  0.1501
  144SAPE   C2215765   4.053   1.802  10.338  0.4899  0.4023  0.8301
  144SAPE   H2R15766   3.950   1.763  10.325  0.1184  1.2601  1.2107
  144SAPE   H2S15767   4.056   1.901  10.288 -0.8747  0.5475  1.0108
  144SAPE    C315768   4.139   2.020  10.693  0.6964  0.3911  0.3276
  144SAPE    HX15769   4.192   1.925  10.719  0.6550  0.6030  1.2224
  144SAPE    HY15770   4.138   2.082  10.786 -2.0118 -1.2377  1.4294
  144SAPE   O3115771   4.205   2.092  10.589 -0.1859 -0.3644 -0.1669
  144SAPE   C3115772   4.169   2.216  10.575 -0.1041  0.4563 -0.6146
  144SAPE   O3215773   4.086   2.285  10.637 -0.6039 -0.4839 -0.1547
  144SAPE   C3215774   4.219   2.256  10.436 -0.1813  0.9419  0.3627
  144SAPE   H2X15775   4.329   2.269  10.440  0.2096 -2.0712  0.8160
  144SAPE   H2Y15776   4.175   2.356  10.417 -1.9945  0.2581  0.8927
  144SAPE   C2315777   4.153   1.702  10.289 -0.4844  0.0346  0.2344
  144SAPE   H3R15778   4.131   1.598  10.322  0.6862  0.0579  1.1325
  144SAPE   H3S15779   4.255   1.730  10.323 -1.6424  2.0411  2.1196
  144SAPE   C2415780   4.168   1.689  10.133  0.2013  0.3756 -0.2154
  144SAPE   H4R15781   4.249   1.616  10.112  0.9478  1.0994  0.1290
  144SAPE   H4S15782   4.211   1.779  10.084  1.6879 -0.3862 -0.3077
  144SAPE   C2515783   4.035   1.654  10.075  0.2431 -0.2167 -0.9981
  144SAPE   H5R15784   3.988   1.566  10.123 -2.2000  0.2196 -2.4765
  144SAPE   C2615785   3.971   1.715   9.971 -0.7588  0.0454  0.3886
  144SAPE   H6R15786   3.878   1.670   9.934  0.6545  0.3688 -3.7587
  144SAPE   C2715787   4.014   1.830   9.883  0.5501 -0.3076 -0.3753
  144SAPE   H7R15788   4.087   1.897   9.933 -0.9962  0.0302  1.4975
  144SAPE   H7S15789   3.924   1.889   9.856 -0.5708 -0.9783  1.8168
  144SAPE   C2815790   4.075   1.778   9.758  0.4035 -0.2272 -0.4654
  144SAPE   H8R15791   4.147   1.697   9.772 -1.1530 -1.4431  0.7452
  144SAPE   C2915792   4.054   1.831   9.634  0.0695  0.6004 -1.2459
  144SAPE   H9R15793   4.087   1.773   9.547 -1.3693 -0.1473 -1.2912
  144SAPE  C21015794   3.975   1.952   9.593  0.3312 -0.3970  0.9560
  144SAPE  H10R15795   4.041   2.041   9.606  2.4476 -2.0859  1.9691
  144SAPE  H10S15796   3.888   1.965   9.662  0.5861  0.4316  1.1297
  144SAPE  C21115797   3.918   1.939   9.453  0.7016 -0.1777 -0.1927
  144SAPE  H11R15798   3.837   1.864   9.452  2.1227 -1.7357 -1.2607
  144SAPE  C21215799   3.940   2.002   9.336 -1.1245  0.4772  0.4927
  144SAPE  H12R15800   3.896   1.952   9.248  1.7831 -0.9231 -0.2545
  144SAPE  C21315801   4.042   2.106   9.309  0.5089 -0.3927  0.1542
  144SAPE  H13R15802   4.119   2.119   9.388  0.6313  0.5811 -0.1258
  144SAPE  H13S15803   3.990   2.203   9.297  1.9763  0.0908 -3.0377
  144SAPE  C21415804   4.119   2.075   9.185 -0.1707  0.1511 -0.0859
  144SAPE  H14R15805   4.197   1.999   9.202 -0.0490  0.2838 -0.0470
  144SAPE  C21515806   4.109   2.132   9.067  0.0844  0.5700  0.3712
  144SAPE  H15R15807   4.177   2.089   8.992 -2.5269 -1.9469 -0.6465
  144SAPE  C21615808   4.008   2.236   9.028 -0.2379  0.0082  0.0607
  144SAPE  H16R15809   4.022   2.321   9.097  0.3829 -0.2217  0.2200
  144SAPE  H16S15810   3.906   2.193   9.036  0.0880 -0.9928 -0.9098
  144SAPE  C21715811   4.020   2.286   8.888  0.2769 -0.7140 -0.5397
  144SAPE  H17R15812   3.992   2.205   8.817  1.0039 -1.6226  0.1934
  144SAPE  H17S15813   4.122   2.328   8.875  0.6067  0.4228  4.5287
  144SAPE  C21815814   3.923   2.401   8.858 -0.2973 -0.1230  0.1359
  144SAPE  H18R15815   3.945   2.437   8.756  3.2697  3.8268  2.1543
  144SAPE  H18S15816   3.937   2.474   8.941  0.0968 -0.2368  0.1742
  144SAPE  C21915817   3.775   2.360   8.855 -0.7230  0.3965 -0.0930
  144SAPE  H19R15818   3.731   2.321   8.949 -0.2519 -0.0884 -0.0705
  144SAPE  H19S15819   3.772   2.276   8.782 -1.2548 -1.5763  2.1247
  144SAPE  C22015820   3.680   2.457   8.790 -0.1266  0.8984  0.4007
  144SAPE  H20R15821   3.726   2.492   8.695  0.0429  0.5882  0.3672
  144SAPE  H20S15822   3.658   2.547   8.852  0.4690  0.6618  0.9633
  144SAPE  H20T15823   3.585   2.404   8.765  0.3388 -0.8619  2.2324
  144SAPE   C3315824   4.192   2.160  10.317  0.1956 -0.1779  0.4022
  144SAPE   H3X15825   4.085   2.166  10.288  0.1299  0.4394  0.7721
  144SAPE   H3Y15826   4.207   2.051  10.329  2.3172 -0.1728 -1.7738
  144SAPE   C3415827   4.281   2.199  10.193  0.1402  0.3368  0.1210
  144SAPE   H4X15828   4.383   2.158  10.213  0.1821  0.7584  0.7740
  144SAPE   H4Y15829   4.285   2.310  10.191  0.2696  0.3136 -0.8206
  144SAPE   C3515830   4.236   2.136  10.060  0.1266  0.1935 -0.1364
  144SAPE   H5X15831   4.128   2.157  10.046 -0.6588 -1.2730  3.3327
  144SAPE   H5Y15832   4.243   2.026  10.060  2.5829  0.3312 -1.0522
  144SAPE   C3615833   4.309   2.204   9.942  0.2651 -0.3541 -0.5060
  144SAPE   H6X15834   4.417   2.178   9.946 -0.6125 -4.1535  0.2117
  144SAPE   H6Y15835   4.289   2.311   9.967  1.2037  0.0048 -1.2477
  144SAPE   C3715836   4.251   2.180   9.800  0.9508  0.1521  0.1620
  144SAPE   H7X15837   4.143   2.157   9.809  0.6297  1.2975 -0.6534
  144SAPE   H7Y15838   4.303   2.094   9.754  0.8468 -0.9539  2.0724
  144SAPE   C3815839   4.271   2.301   9.713  0.3901  0.9809 -0.1016
  144SAPE   H8X15840   4.372   2.346   9.726  1.1939 -0.7423 -0.2306
  144SAPE   H8Y15841   4.204   2.378   9.754 -3.1352 -1.7467 -0.4929
  144SAPE   C3915842   4.242   2.273   9.560 -0.7836  0.8460 -0.1507
  144SAPE   H9X15843   4.132   2.276   9.544 -0.6147 -0.1973 -1.5668
  144SAPE   H9Y15844   4.284   2.174   9.534 -0.9188  0.8675 -0.4536
  144SAPE  C31015845   4.292   2.397   9.490 -1.3264 -0.6905 -0.2648
  144SAPE  H10X15846   4.402   2.413   9.497 -1.3866  0.4067 -1.5629
  144SAPE  H10Y15847   4.265   2.486   9.551 -0.0842 -1.3613  1.3029
  144SAPE  C31115848   4.250   2.410   9.343 -0.3717  0.6077  0.3174
  144SAPE  H11X15849   4.143   2.433   9.324 -0.6306 -0.0308  0.9813
  144SAPE  H11Y15850   4.270   2.311   9.296  1.2867 -0.1256  2.4740
  144SAPE  C31215851   4.328   2.517   9.259 -0.0202  0.9853  0.0751
  144SAPE  H12X15852   4.437   2.498   9.258 -0.4990 -2.0002 -1.8873
  144SAPE  H12Y15853   4.311   2.618   9.302  0.8986  1.3807 -0.4603
  144SAPE  C31315854   4.294   2.510   9.105  0.1125  0.6164 -0.7214
  144SAPE  H13X15855   4.184   2.520   9.090 -0.4163 -0.9891  1.8768
  144SAPE  H13Y15856   4.314   2.414   9.053  0.0914  0.8722 -1.2133
  144SAPE  C31415857   4.366   2.620   9.018  0.3124 -0.4874  0.2032
  144SAPE  H14X15858   4.477   2.612   9.018  0.3377 -0.3118  1.6232
  144SAPE  H14Y15859   4.330   2.720   9.049  0.3002 -0.4311  0.0108
  144SAPE  C31515860   4.325   2.616   8.868 -0.2121  0.0745  0.7044
  144SAPE  H15X15861   4.214   2.614   8.876 -0.5296  1.4010 -2.5914
  144SAPE  H15Y15862   4.362   2.531   8.808 -1.6423  0.4841 -0.7899
  144SAPE  C31615863   4.357   2.742   8.784  0.1181  0.3132 -0.6971
  144SAPE  H16X15864   4.347   2.826   8.856  2.7451 -1.9859  2.5206
  144SAPE  H16Y15865   4.284   2.739   8.700 -2.8776 -0.5510  1.8264
  144SAPE  C31715866   4.499   2.739   8.723  0.4140  0.7292 -0.8046
  144SAPE  H17X15867   4.505   2.639   8.677 -3.7917 -1.1293  2.3181
  144SAPE  H17Y15868   4.570   2.743   8.809  1.9238  0.4561 -2.0180
  144SAPE  C31815869   4.517   2.849   8.621 -0.4258  0.0786  0.2524
  144SAPE  H18X15870   4.612   2.848   8.565  0.0059 -1.1136  0.9628
  144SAPE  H18Y15871   4.511   2.941   8.683 -1.5707 -0.0410  0.3248
  144SAPE  H18Z15872   4.436   2.838   8.546 -1.4644 -1.1112  1.5070
  145SAPE     N15873   0.795   3.018  11.289 -0.4782  0.1535  0.1415
  145SAPE   HN115874   0.843   2.931  11.258 -1.2657  0.1468 -1.0854
  145SAPE   HN215875   0.849   3.081  11.352  1.9194 -0.8539 -0.8354
  145SAPE   HN315876   0.706   2.999  11.339 -1.1301 -0.8017 -1.3573
  145SAPE   C1215877   0.773   3.100  11.163  0.2336 -0.8271  0.1066
  145SAPE  H12A15878   0.723   3.039  11.085 -0.0961 -0.4288  0.0075
  145SAPE  H12B15879   0.870   3.133  11.118 -0.6604  0.1901 -1.1133
  145SAPE   C1115880   0.681   3.222  11.195  0.6779 -0.6176 -0.4402
  145SAPE  H11A15881   0.588   3.175  11.233 -0.4211  3.0904  1.7284
  145SAPE  H11B15882   0.662   3.276  11.100  0.0997  0.0269  0.0361
  145SAPE     P15883   0.814   3.428  11.271  0.5398  0.3385  0.0367
  145SAPE   O1315884   0.714   3.544  11.243 -0.1448  0.0199 -0.1997
  145SAPE   O1415885   0.902   3.452  11.385  0.1923 -0.2746 -0.4431
  145SAPE   O1215886   0.728   3.302  11.303  0.6384 -0.7118  0.0809
  145SAPE   O1115887   0.894   3.378  11.147 -0.0867 -0.1295  1.4831
  145SAPE    C115888   0.947   3.457  11.043 -0.3562 -0.5980  0.4931
  145SAPE    HA15889   0.978   3.560  11.071  0.1818 -0.9883  1.3424
  145SAPE    HB15890   1.033   3.410  10.992 -0.1370  0.8632 -0.5339
  145SAPE    C215891   0.834   3.466  10.932  0.0150  0.6665 -0.4850
  145SAPE    HS15892   0.740   3.511  10.970 -0.6496 -1.0025 -0.1339
  145SAPE   O2115893   0.803   3.333  10.883 -0.3933  0.0053 -0.2646
  145SAPE   C2115894   0.701   3.327  10.804  0.0320 -0.0949  0.7114
  145SAPE   O2215895   0.623   3.418  10.798 -0.0662  0.3618  0.7168
  145SAPE   C2215896   0.675   3.192  10.746  0.0775 -0.0106  0.2826
  145SAPE   H2R15897   0.775   3.147  10.725  0.1767 -0.9569  2.6735
  145SAPE   H2S15898   0.632   3.123  10.822  0.4318  1.5546  1.9315
  145SAPE    C315899   0.890   3.569  10.825  0.7707  0.3605 -0.3436
  145SAPE    HX15900   0.918   3.663  10.877 -1.2477 -0.0501  1.6003
  145SAPE    HY15901   0.807   3.591  10.755  1.4263  1.6431 -0.7298
  145SAPE   O3115902   1.010   3.529  10.762  0.2342 -0.2818 -0.3499
  145SAPE   C3115903   1.020   3.511  10.633  0.2348  0.1662  0.3632
  145SAPE   O3215904   0.933   3.533  10.550 -0.3651 -0.6440  0.1062
  145SAPE   C3215905   1.149   3.440  10.609  0.0067 -0.2390  0.5266
  145SAPE   H2X15906   1.158   3.374  10.698  1.8559 -0.0270  0.5225
  145SAPE   H2Y15907   1.236   3.508  10.622 -0.6236 -0.0559  4.5733
  145SAPE   C2315908   0.585   3.209  10.627 -0.0817 -0.1872 -0.6267
  145SAPE   H3R15909   0.609   3.303  10.573 -1.6471  0.7738  0.3049
  145SAPE   H3S15910   0.480   3.222  10.661 -0.3680  2.9169 -2.5394
  145SAPE   C2415911   0.578   3.098  10.517  0.7544 -0.2730 -0.2483
  145SAPE   H4R15912   0.511   3.130  10.434  0.6335 -1.3841 -0.5878
  145SAPE   H4S15913   0.539   3.003  10.557 -0.4805  0.6736  0.8313
  145SAPE   C2515914   0.716   3.077  10.453 -0.6749 -0.4500 -0.3273
  145SAPE   H5R15915   0.783   3.012  10.512  1.9796  1.0225 -1.6176
  145SAPE   C2615916   0.772   3.130  10.341  0.0163 -0.0396 -0.5144
  145SAPE   H6R15917   0.880   3.117  10.328 -0.3249 -1.0737 -2.5598
  145SAPE   C2715918   0.711   3.228  10.244  0.0206  0.1712 -1.1292
  145SAPE   H7R15919   0.602   3.240  10.263  0.0228 -0.6035 -0.6141
  145SAPE   H7S15920   0.716   3.189  10.140 -0.6473 -1.5853 -0.5121
  145SAPE   C2815921   0.770   3.366  10.250  0.4806  0.3678 -0.7226
  145SAPE   H8R15922   0.797   3.400  10.352  0.0449  1.1112 -0.8496
  145SAPE   C2915923   0.802   3.439  10.145 -0.0760  0.0691 -0.0746
  145SAPE   H9R15924   0.851   3.535  10.165  2.5580 -1.6634  2.1435
  145SAPE  C21015925   0.783   3.409   9.992 -0.5543 -0.1293  0.4928
  145SAPE  H10R15926   0.765   3.300   9.983  1.7474 -0.3517 -1.8942
  145SAPE  H10S15927   0.878   3.420   9.935  0.1231 -0.5636  1.5245
  145SAPE  C21115928   0.678   3.494   9.930  0.8073  0.9062  0.1048
  145SAPE  H11R15929   0.640   3.585   9.978  0.3767  0.4600  0.6145
  145SAPE  C21215930   0.630   3.468   9.810  0.0513  0.7637  0.0435
  145SAPE  H12R15931   0.576   3.551   9.762 -1.6025 -0.6178 -0.5401
  145SAPE  C21315932   0.666   3.355   9.712  0.2403 -0.3810  0.2167
  145SAPE  H13R15933   0.637   3.382   9.608  1.9842 -1.1294 -0.4779
  145SAPE  H13S15934   0.597   3.272   9.738  0.9116 -0.7563  0.7975
  145SAPE  C21415935   0.796   3.286   9.704 -0.9221  0.5348  0.0251
  145SAPE  H14R15936   0.804   3.201   9.774  1.5420  1.9564  1.5508
  145SAPE  C21515937   0.905   3.312   9.625 -1.2035  0.2760 -0.2977
  145SAPE  H15R15938   0.995   3.249   9.615 -2.8626 -2.1715 -0.3144
  145SAPE  C21615939   0.904   3.428   9.528  0.4005 -0.0216 -0.0538
  145SAPE  H16R15940   0.962   3.507   9.579 -1.5002  1.8092 -0.6337
  145SAPE  H16S15941   0.807   3.482   9.516  1.4684  2.5054  2.0205
  145SAPE  C21715942   0.945   3.399   9.387  0.6901  0.7380  0.6432
  145SAPE  H17R15943   1.038   3.339   9.390 -0.0476 -0.8932 -3.9609
  145SAPE  H17S15944   0.964   3.490   9.326  1.2464 -0.3747 -0.8785
  145SAPE  C21815945   0.845   3.299   9.314 -0.4299  0.3365 -0.4201
  145SAPE  H18R15946   0.737   3.315   9.335 -0.5654  2.7310 -2.7258
  145SAPE  H18S15947   0.873   3.195   9.342 -0.1315  0.5343  0.0327
  145SAPE  C21915948   0.853   3.303   9.162  0.6479 -0.4351  0.5412
  145SAPE  H19R15949   0.822   3.406   9.134 -0.4278 -0.5969  1.1050
  145SAPE  H19S15950   0.785   3.225   9.122 -0.0780  0.3860  0.1617
  145SAPE  C22015951   0.990   3.283   9.108 -0.3223 -0.2097  0.1670
  145SAPE  H20R15952   1.043   3.196   9.154  1.2483  1.1377  0.9469
  145SAPE  H20S15953   1.042   3.376   9.138 -0.2820 -0.1006 -0.2466
  145SAPE  H20T15954   0.987   3.274   8.998 -1.7012  2.9609 -0.0983
  145SAPE   C3315955   1.140   3.344  10.491  0.0558  0.2934  0.3220
  145SAPE   H3X15956   1.113   3.400  10.399  2.3706  1.0532  0.0725
  145SAPE   H3Y15957   1.057   3.272  10.507 -0.9904  1.3816 -0.1124
  145SAPE   C3415958   1.267   3.265  10.463 -0.5605  0.5978 -0.5045
  145SAPE   H4X15959   1.275   3.197  10.550 -1.5684 -0.3244 -1.1174
  145SAPE   H4Y15960   1.348   3.335  10.493 -1.1181 -0.4651  3.7669
  145SAPE   C3515961   1.297   3.210  10.331 -0.8685 -0.0596  0.0206
  145SAPE   H5X15962   1.403   3.180  10.339 -0.7378 -0.2059 -1.8594
  145SAPE   H5Y15963   1.281   3.274  10.241 -0.9451  2.3003  1.6576
  145SAPE   C3615964   1.220   3.082  10.311  0.0367  0.5345 -0.1577
  145SAPE   H6X15965   1.116   3.111  10.336 -1.2292 -3.6461 -0.1948
  145SAPE   H6Y15966   1.255   3.003  10.381 -0.7557 -0.3656 -0.7607
  145SAPE   C3715967   1.234   3.030  10.162 -0.0418 -0.1913  0.4614
  145SAPE   H7X15968   1.332   2.980  10.158  0.7704  1.2057  2.1645
  145SAPE   H7Y15969   1.228   3.119  10.095  0.6068  0.8847  1.8083
  145SAPE   C3815970   1.126   2.925  10.109  0.4019 -0.2407  0.1264
  145SAPE   H8X15971   1.026   2.973  10.110 -0.0905 -1.2467  1.0439
  145SAPE   H8Y15972   1.129   2.853  10.194  0.6380  0.1819  0.4776
  145SAPE   C3915973   1.172   2.850   9.983  1.0437 -0.2610  0.4278
  145SAPE   H9X15974   1.123   2.751   9.978  0.5290 -0.0947  2.0082
  145SAPE   H9Y15975   1.281   2.835  10.000  1.7551  1.2689 -2.4256
  145SAPE  C31015976   1.150   2.935   9.858  0.3240 -0.3422  0.1836
  145SAPE  H10X15977   1.218   3.022   9.857  2.1161 -1.7110 -0.0867
  145SAPE  H10Y15978   1.047   2.975   9.855  0.4560  0.1743  1.8627
  145SAPE  C31115979   1.165   2.857   9.729 -0.4839  0.8621 -0.5586
  145SAPE  H11X15980   1.094   2.773   9.715  0.2327  0.3914 -1.3960
  145SAPE  H11Y15981   1.270   2.819   9.732 -0.2877  1.4698  0.6063
  145SAPE  C31215982   1.144   2.953   9.609 -0.7979 -0.1043 -0.0856
  145SAPE  H12X15983   1.206   3.045   9.622 -1.3858  0.0517  1.7533
  145SAPE  H12Y15984   1.042   2.994   9.596 -0.8666 -0.2256  0.0735
  145SAPE  C31315985   1.188   2.890   9.478 -0.5802 -0.2953  0.7372
  145SAPE  H13X15986   1.133   2.797   9.452  1.2657 -0.6593 -2.0010
  145SAPE  H13Y15987   1.294   2.862   9.495 -0.8650 -1.5353  0.5233
  145SAPE  C31415988   1.182   2.994   9.360  1.1857 -0.4334  0.2127
  145SAPE  H14X15989   1.240   3.083   9.393 -0.8998  0.5156  1.4342
  145SAPE  H14Y15990   1.077   3.031   9.361  1.6757  0.9575  0.9926
  145SAPE  C31515991   1.217   2.947   9.218 -0.1492  0.2074  0.1600
  145SAPE  H15X15992   1.320   2.905   9.227 -0.8479 -2.6285 -3.7035
  145SAPE  H15Y15993   1.232   3.039   9.157  0.8886 -0.1505 -0.1473
  145SAPE  C31615994   1.138   2.837   9.149  0.3635 -0.1599  0.6869
  145SAPE  H16X15995   1.142   2.754   9.223  0.3745  1.5336  2.6181
  145SAPE  H16Y15996   1.198   2.808   9.060  2.0190  1.7111  1.1514
  145SAPE  C31715997   0.995   2.873   9.127 -0.9688 -0.3559 -0.5155
  145SAPE  H17X15998   0.979   2.964   9.067 -1.2299  0.3317  0.5786
  145SAPE  H17Y15999   0.972   2.906   9.231  1.4737  0.3974 -0.1709
  145SAPE  C31816000   0.927   2.749   9.081  0.1744  0.3695 -0.4307
  145SAPE  H18X16001   0.954   2.719   8.977 -0.8551 -2.1401 -0.0131
  145SAPE  H18Y16002   0.818   2.768   9.070  0.4519  2.3515  0.0381
  145SAPE  H18Z16003   0.938   2.658   9.143  0.7759  1.4088  1.0139
  146SAPE     N16004   6.595   2.965  10.823 -0.1450  0.4298  0.2554
  146SAPE   HN116005   6.525   2.910  10.877  0.6037 -1.4419 -0.6613
  146SAPE   HN216006   6.625   2.899  10.749 -3.1845  0.4750 -1.1018
  146SAPE   HN316007   6.681   2.984  10.878 -0.0566 -0.4798  0.4385
  146SAPE   C1216008   6.532   3.093  10.772 -0.1928 -0.0965  0.4133
  146SAPE  H12A16009   6.597   3.120  10.686 -4.2477  2.0894 -2.1341
  146SAPE  H12B16010   6.534   3.176  10.846 -1.3883 -0.6083  1.0357
  146SAPE   C1116011   6.388   3.077  10.708 -0.2935 -0.1503  0.0391
  146SAPE  H11A16012   6.382   3.008  10.622 -2.7924  0.4381 -0.2839
  146SAPE  H11B16013   6.373   3.176  10.658 -1.9112 -1.6916 -2.6475
  146SAPE     P16014   6.245   2.913  10.865  0.1854 -0.1167  0.3032
  146SAPE   O1316015   6.368   2.844  10.913  0.3897 -0.6699 -0.3938
  146SAPE   O1416016   6.143   2.937  10.972  0.0840  0.3526 -0.0062
  146SAPE   O1216017   6.290   3.052  10.800  0.6958 -0.2558 -0.0413
  146SAPE   O1116018   6.173   2.835  10.750 -0.5024 -0.0540  0.1017
  146SAPE    C116019   6.174   2.693  10.745  0.5579  0.1139 -0.1908
  146SAPE    HA16020   6.212   2.639  10.834 -0.4817 -0.8859 -0.3501
  146SAPE    HB16021   6.069   2.662  10.724  0.2506 -0.5395  2.1492
  146SAPE    C216022   6.275   2.639  10.634 -0.0843  0.4147 -0.3167
  146SAPE    HS16023   6.363   2.697  10.669 -0.2854  0.8664 -0.5535
  146SAPE   O2116024   6.232   2.696  10.506 -0.0510  0.7616  0.4586
  146SAPE   C2116025   6.342   2.729  10.422 -0.2287 -1.2265  0.1352
  146SAPE   O2216026   6.457   2.733  10.452 -0.1064 -0.0142 -0.2592
  146SAPE   C2216027   6.283   2.748  10.284  0.3634  0.0046  0.1269
  146SAPE   H2R16028   6.185   2.697  10.279  1.3933 -1.8866 -1.5412
  146SAPE   H2S16029   6.258   2.856  10.279 -0.0191 -0.1492 -1.6741
  146SAPE    C316030   6.298   2.485  10.633 -0.0339  0.0168 -0.1972
  146SAPE    HX16031   6.348   2.461  10.729  2.5077 -1.7038 -1.8846
  146SAPE    HY16032   6.372   2.455  10.556  0.6506  0.4631  0.2851
  146SAPE   O3116033   6.176   2.412  10.597 -0.0697 -0.1463  0.0114
  146SAPE   C3116034   6.117   2.348  10.697 -0.3109 -0.4062 -0.2217
  146SAPE   O3216035   6.151   2.350  10.815  0.2822  0.2454 -0.7283
  146SAPE   C3216036   5.993   2.289  10.648  0.4834  0.1946 -0.1088
  146SAPE   H2X16037   5.917   2.370  10.638 -0.5258 -0.6910  0.2610
  146SAPE   H2Y16038   5.956   2.218  10.725  1.4547 -1.0969 -0.8152
  146SAPE   C2316039   6.384   2.712  10.169 -0.1269 -0.0976 -0.1491
  146SAPE   H3R16040   6.484   2.759  10.182 -1.0915  1.8096  0.4627
  146SAPE   H3S16041   6.345   2.735  10.068  2.0322  0.5410 -0.8757
  146SAPE   C2416042   6.406   2.559  10.159  0.3498 -0.5820 -1.0253
  146SAPE   H4R16043   6.305   2.514  10.167 -0.0933  0.4742 -0.6030
  146SAPE   H4S16044   6.466   2.531  10.249 -0.7228 -0.1520 -0.1670
  146SAPE   C2516045   6.493   2.524  10.035  0.2145  0.7885 -0.0408
  146SAPE   H5R16046   6.600   2.542  10.057  0.4773 -0.2921 -0.4286
  146SAPE   C2616047   6.450   2.477   9.917  0.0378  0.1418  0.7841
  146SAPE   H6R16048   6.518   2.469   9.831 -0.9126  2.2243 -0.2116
  146SAPE   C2716049   6.307   2.446   9.886 -0.2694 -0.7510  0.2255
  146SAPE   H7R16050   6.283   2.392   9.981  1.4798  0.1264  1.1951
  146SAPE   H7S16051   6.279   2.375   9.805 -0.0230 -1.7484  1.0058
  146SAPE   C2816052   6.214   2.568   9.874  0.6243 -0.8210 -0.9035
  146SAPE   H8R16053   6.162   2.597   9.967 -1.0621 -1.5030 -1.6225
  146SAPE   C2916054   6.187   2.634   9.758  0.3640 -0.1951 -0.4040
  146SAPE   H9R16055   6.109   2.711   9.753 -0.6820 -1.0200  2.3696
  146SAPE  C21016056   6.252   2.595   9.626 -0.6701  0.0808  0.3637
  146SAPE  H10R16057   6.354   2.557   9.647  0.5683  2.0321 -1.8094
  146SAPE  H10S16058   6.274   2.685   9.565  0.6565  0.3200  1.1937
  146SAPE  C21116059   6.174   2.478   9.562 -0.8375 -0.4782 -0.2807
  146SAPE  H11R16060   6.132   2.402   9.631 -2.6176  0.6452 -0.1021
  146SAPE  C21216061   6.168   2.457   9.434 -0.2747  0.4907 -0.0153
  146SAPE  H12R16062   6.106   2.371   9.405  2.4890 -0.8753 -2.0645
  146SAPE  C21316063   6.223   2.552   9.331  0.7081 -0.4117  0.4200
  146SAPE  H13R16064   6.333   2.559   9.346  0.5011  0.8077  1.4604
  146SAPE  H13S16065   6.174   2.649   9.356  1.5794  0.2313 -0.3054
  146SAPE  C21416066   6.225   2.529   9.186 -0.4242  0.6004 -0.6167
  146SAPE  H14R16067   6.184   2.433   9.153 -1.7733  1.1372 -0.5445
  146SAPE  C21516068   6.263   2.620   9.096  0.2485  0.0730 -0.6828
  146SAPE  H15R16069   6.255   2.582   8.993 -0.8186  0.6981 -0.8310
  146SAPE  C21616070   6.310   2.764   9.110  0.2782  0.5905  0.0127
  146SAPE  H16R16071   6.279   2.808   9.207 -1.0714 -1.4716  0.5495
  146SAPE  H16S16072   6.260   2.823   9.030 -0.8164 -0.0266  0.2244
  146SAPE  C21716073   6.467   2.787   9.103 -0.0223  0.0177 -0.5209
  146SAPE  H17R16074   6.511   2.768   9.203 -2.1210  1.0491  0.6536
  146SAPE  H17S16075   6.482   2.895   9.081  0.6161  0.0280 -0.0317
  146SAPE  C21816076   6.531   2.698   8.989  0.3590 -0.1716 -0.6396
  146SAPE  H18R16077   6.453   2.666   8.916  0.8386 -1.5140 -0.5859
  146SAPE  H18S16078   6.571   2.601   9.028  3.2958  1.2510  0.0191
  146SAPE  C21916079   6.640   2.779   8.909  0.2350 -0.0657  0.2912
  146SAPE  H19R16080   6.714   2.811   8.985  0.2916 -2.5172  1.2974
  146SAPE  H19S16081   6.592   2.872   8.870 -0.2223 -1.4703 -2.6498
  146SAPE  C22016082   6.694   2.708   8.790 -0.4482 -0.2311 -0.1808
  146SAPE  H20R16083   6.623   2.678   8.710  1.6743 -3.0031 -1.1036
  146SAPE  H20S16084   6.750   2.620   8.828  1.3939  1.8441  2.0664
  146SAPE  H20T16085   6.774   2.754   8.728  0.1293 -1.0949 -0.0874
  146SAPE   C3316086   6.001   2.202  10.515 -0.1102 -0.6444  0.0273
  146SAPE   H3X16087   5.933   2.114  10.518 -1.2089  0.1728 -0.8420
  146SAPE   H3Y16088   6.106   2.165  10.513  1.1715  2.7933 -0.0246
  146SAPE   C3416089   5.976   2.288  10.385  0.3774 -0.5647  0.0259
  146SAPE   H4X16090   6.020   2.388  10.403  0.0725 -0.3857 -0.2177
  146SAPE   H4Y16091   5.865   2.290  10.379  0.4945  2.4983 -2.9190
  146SAPE   C3516092   6.011   2.207  10.258  0.7969 -0.2551 -0.2442
  146SAPE   H5X16093   5.965   2.108  10.279 -0.8351  0.2297 -1.4370
  146SAPE   H5Y16094   6.118   2.189  10.237  0.9887  0.9154 -0.3103
  146SAPE   C3616095   5.956   2.266  10.132 -0.2439  0.6079  0.1921
  146SAPE   H6X16096   5.993   2.370  10.114  2.0967 -0.4093 -1.0133
  146SAPE   H6Y16097   5.847   2.282  10.145 -0.4867 -1.7048  1.0860
  146SAPE   C3716098   5.994   2.183  10.010 -0.1378 -0.3998  0.1229
  146SAPE   H7X16099   5.952   2.083  10.033  3.4328 -2.0278 -0.0806
  146SAPE   H7Y16100   6.099   2.181   9.974 -0.3531 -0.8319 -0.4895
  146SAPE   C3816101   5.929   2.243   9.887 -0.3539  0.5104  0.0163
  146SAPE   H8X16102   5.960   2.348   9.871 -0.0880  0.4982  0.4325
  146SAPE   H8Y16103   5.819   2.232   9.889 -0.2461 -0.7996 -0.7593
  146SAPE   C3916104   5.966   2.159   9.761  0.4870 -0.7075 -0.3915
  146SAPE   H9X16105   5.963   2.049   9.780  0.6534 -0.2676  2.4138
  146SAPE   H9Y16106   6.071   2.186   9.734  0.3305  3.4199  2.6664
  146SAPE  C31016107   5.879   2.200   9.643 -0.2433  0.0512  0.0664
  146SAPE  H10X16108   5.906   2.307   9.626  2.6850 -0.4379  1.3687
  146SAPE  H10Y16109   5.769   2.205   9.659 -0.1149  1.8283  0.5564
  146SAPE  C31116110   5.916   2.113   9.527  0.7703  0.2775 -0.3560
  146SAPE  H11X16111   5.879   2.013   9.558  0.1625  0.9678  1.1594
  146SAPE  H11Y16112   6.025   2.104   9.507  0.7193  1.1283 -1.0503
  146SAPE  C31216113   5.861   2.148   9.392 -0.4567  0.0801  0.1630
  146SAPE  H12X16114   5.894   2.245   9.350  0.2561 -0.2311 -0.0153
  146SAPE  H12Y16115   5.750   2.150   9.394 -0.5555 -2.4305 -0.9475
  146SAPE  C31316116   5.895   2.039   9.292  0.0209 -0.1625  0.1319
  146SAPE  H13X16117   5.840   1.942   9.292  1.5381 -1.0435 -0.0950
  146SAPE  H13Y16118   6.003   2.017   9.299 -0.0981 -0.6883  0.4112
  146SAPE  C31416119   5.875   2.088   9.151  0.5742 -0.1233  0.3202
  146SAPE  H14X16120   5.921   2.185   9.125 -1.2253  0.1084 -2.2468
  146SAPE  H14Y16121   5.767   2.114   9.140  0.9738  1.2541 -0.3291
  146SAPE  C31516122   5.892   1.989   9.041  0.1781  0.1163 -0.3375
  146SAPE  H15X16123   5.843   1.893   9.066  0.3038  0.1644  0.1098
  146SAPE  H15Y16124   6.001   1.966   9.037  0.6649  2.0890  0.7437
  146SAPE  C31616125   5.865   2.053   8.894 -0.0621  0.5667  0.1355
  146SAPE  H16X16126   5.938   2.001   8.829  0.6016  0.5693  0.8732
  146SAPE  H16Y16127   5.896   2.160   8.895  0.1488  0.5146  1.7464
  146SAPE  C31716128   5.721   2.046   8.834  0.2403  0.3855  0.0490
  146SAPE  H17X16129   5.718   2.107   8.742 -0.1147 -0.8735 -0.7910
  146SAPE  H17Y16130   5.654   2.108   8.897  1.5145  1.5150  0.3091
  146SAPE  C31816131   5.657   1.909   8.816 -0.1207  0.9427  0.4154
  146SAPE  H18X16132   5.715   1.845   8.746  0.0795  1.7201 -0.1430
  146SAPE  H18Y16133   5.552   1.932   8.787 -0.0429  1.8660  0.8505
  146SAPE  H18Z16134   5.660   1.861   8.916  0.4449 -1.0157 -0.5226
  147SAPE     N16135   2.916   6.720   6.197 -0.3844 -0.0581  0.1733
  147SAPE   HN116136   2.826   6.688   6.156  0.1614 -1.4978  0.0584
  147SAPE   HN216137   2.965   6.792   6.141 -0.1275 -1.2402 -1.1413
  147SAPE   HN316138   2.978   6.636   6.204 -0.3269  0.0896  1.6849
  147SAPE   C1216139   2.884   6.765   6.340  0.4568 -0.5275  0.2214
  147SAPE  H12A16140   2.981   6.775   6.393  1.5829 -0.6683 -1.7744
  147SAPE  H12B16141   2.823   6.681   6.381 -1.3435  0.9588  0.6612
  147SAPE   C1116142   2.809   6.903   6.345 -0.0857 -0.5889  0.1342
  147SAPE  H11A16143   2.869   6.979   6.291 -0.6279 -1.2490 -1.4498
  147SAPE  H11B16144   2.800   6.948   6.446 -2.2986  2.5827 -1.3488
  147SAPE     P16145   2.559   6.824   6.367  0.4315 -0.0418  0.1237
  147SAPE   O1316146   2.435   6.909   6.370  0.7531  0.1459 -0.3197
  147SAPE   O1416147   2.545   6.691   6.302  0.4244 -0.0816 -0.0765
  147SAPE   O1216148   2.680   6.897   6.296  0.9842 -0.2856  0.4547
  147SAPE   O1116149   2.612   6.802   6.516  0.5336  0.2587 -0.3104
  147SAPE    C116150   2.545   6.710   6.605  0.1454 -0.0102  0.9334
  147SAPE    HA16151   2.526   6.766   6.699 -3.2753 -0.5756  0.6193
  147SAPE    HB16152   2.440   6.689   6.577 -0.0483  2.1053 -0.0352
  147SAPE    C216153   2.637   6.591   6.650 -0.0666  0.8608 -0.0648
  147SAPE    HS16154   2.655   6.523   6.564  1.6984  1.6343 -0.3293
  147SAPE   O2116155   2.569   6.526   6.758 -0.4568  0.3748  0.1936
  147SAPE   C2116156   2.474   6.447   6.714  0.5354  0.3344 -0.0590
  147SAPE   O2216157   2.449   6.427   6.594  0.5190  0.0889  0.4836
  147SAPE   C2216158   2.391   6.400   6.827  0.0028 -0.4045  0.5187
  147SAPE   H2R16159   2.447   6.325   6.888 -0.5299 -0.8954  0.4062
  147SAPE   H2S16160   2.368   6.488   6.890 -1.1879 -0.2192 -0.1576
  147SAPE    C316161   2.776   6.649   6.694  0.1228  0.1595 -0.5083
  147SAPE    HX16162   2.755   6.698   6.791 -1.0388  0.7006 -1.0157
  147SAPE    HY16163   2.803   6.727   6.621 -0.8441  2.0353  1.0954
  147SAPE   O3116164   2.869   6.538   6.711  0.0712 -0.1044 -0.1368
  147SAPE   C3116165   2.995   6.581   6.713  0.7176  0.2155 -0.0616
  147SAPE   O3216166   3.032   6.698   6.707 -0.3311  0.8739  0.5950
  147SAPE   C3216167   3.106   6.466   6.712 -0.4265  0.1598  1.2243
  147SAPE   H2X16168   3.172   6.478   6.623 -0.4726 -0.3768  1.1188
  147SAPE   H2Y16169   3.056   6.368   6.698 -1.7845  0.5725  3.1014
  147SAPE   C2316170   2.256   6.339   6.788  0.0674  0.2718  0.4207
  147SAPE   H3R16171   2.280   6.251   6.724 -1.2280 -1.5628  2.3744
  147SAPE   H3S16172   2.200   6.417   6.734  0.4050 -0.1792 -0.5845
  147SAPE   C2416173   2.175   6.283   6.905 -0.2971  0.3942 -1.2227
  147SAPE   H4R16174   2.230   6.194   6.943 -0.4152  1.5242  1.7505
  147SAPE   H4S16175   2.083   6.234   6.867  0.5959 -0.2241 -2.6037
  147SAPE   C2516176   2.146   6.388   7.008 -0.3535 -0.0598 -0.1121
  147SAPE   H5R16177   2.121   6.483   6.959  0.9158  0.7391  0.7440
  147SAPE   C2616178   2.152   6.362   7.144 -0.3339 -0.6184 -0.4004
  147SAPE   H6R16179   2.152   6.447   7.215  0.8004 -3.0239  2.5738
  147SAPE   C2716180   2.177   6.231   7.222 -0.2384  0.7167  0.3816
  147SAPE   H7R16181   2.117   6.159   7.162  1.3772  0.0470 -0.4504
  147SAPE   H7S16182   2.134   6.225   7.324 -4.1918  0.6864 -1.1992
  147SAPE   C2816183   2.324   6.188   7.205  0.4125  0.3949 -0.4685
  147SAPE   H8R16184   2.381   6.234   7.123  1.6988 -0.4820 -0.0888
  147SAPE   C2916185   2.384   6.105   7.301 -0.0600 -0.7580 -0.3460
  147SAPE   H9R16186   2.489   6.078   7.288 -0.2070 -2.0105  0.9636
  147SAPE  C21016187   2.331   6.038   7.431  0.3786 -0.1005  0.6075
  147SAPE  H10R16188   2.353   5.931   7.448 -0.9512 -0.6265 -0.8077
  147SAPE  H10S16189   2.221   6.049   7.436  0.2979 -0.4543 -0.2430
  147SAPE  C21116190   2.372   6.110   7.556 -0.0797  0.2640  0.3537
  147SAPE  H11R16191   2.380   6.219   7.545 -0.4836  0.3327  0.7068
  147SAPE  C21216192   2.382   6.051   7.676 -0.1575 -0.9674  0.4286
  147SAPE  H12R16193   2.408   6.123   7.754 -1.7505 -0.6121  0.6400
  147SAPE  C21316194   2.367   5.907   7.720 -0.2813  0.6441  0.6568
  147SAPE  H13R16195   2.465   5.860   7.745  1.1648  2.6826 -0.9553
  147SAPE  H13S16196   2.319   5.860   7.631 -0.5667  0.2612  1.0130
  147SAPE  C21416197   2.263   5.892   7.840 -0.5615  0.6807 -0.6382
  147SAPE  H14R16198   2.164   5.931   7.814 -0.2576  1.9344  0.0602
  147SAPE  C21516199   2.295   5.855   7.968  0.3048 -0.3419  0.4386
  147SAPE  H15R16200   2.214   5.845   8.042 -2.2125  2.2836 -1.8544
  147SAPE  C21616201   2.433   5.822   8.023 -0.2214 -0.2120 -0.1739
  147SAPE  H16R16202   2.508   5.852   7.947 -0.2242 -1.2974 -0.6081
  147SAPE  H16S16203   2.431   5.712   8.039 -1.6151 -0.0048  1.2467
  147SAPE  C21716204   2.463   5.888   8.159 -0.4097  0.6407  0.2314
  147SAPE  H17R16205   2.393   5.840   8.231 -0.2431 -1.5729 -1.0415
  147SAPE  H17S16206   2.442   5.997   8.153 -0.1778  0.7825  1.7754
  147SAPE  C21816207   2.603   5.870   8.216 -0.0254 -0.7385  0.2844
  147SAPE  H18R16208   2.627   5.762   8.203  1.2021 -0.3391 -0.8792
  147SAPE  H18S16209   2.603   5.902   8.322  0.7495 -0.0417  0.0772
  147SAPE  C21916210   2.717   5.939   8.138 -0.3295  0.5970 -0.3912
  147SAPE  H19R16211   2.699   6.049   8.142 -1.9549  0.3267 -0.1271
  147SAPE  H19S16212   2.712   5.913   8.030  1.5844  1.5953 -0.7562
  147SAPE  C22016213   2.865   5.916   8.179 -0.1513 -0.3395 -0.0523
  147SAPE  H20R16214   2.894   5.809   8.172  0.7669 -0.2082  1.4132
  147SAPE  H20S16215   2.867   5.950   8.285 -3.1636 -0.1788  0.0189
  147SAPE  H20T16216   2.933   5.976   8.116  1.3166 -0.7967  1.0813
  147SAPE   C3316217   3.204   6.465   6.830  0.1015 -0.2870 -0.3570
  147SAPE   H3X16218   3.256   6.560   6.855 -1.3682  0.1199  1.2595
  147SAPE   H3Y16219   3.281   6.386   6.819 -2.8269 -3.1662 -0.9431
  147SAPE   C3416220   3.134   6.428   6.963  0.3968  0.1014  0.5536
  147SAPE   H4X16221   3.068   6.339   6.955 -1.0556  1.1674  0.3391
  147SAPE   H4Y16222   3.081   6.520   6.996  0.3843  0.9620 -1.7406
  147SAPE   C3516223   3.243   6.406   7.074  0.3852 -0.3733 -0.1340
  147SAPE   H5X16224   3.213   6.456   7.169 -3.5053  1.8017 -2.3807
  147SAPE   H5Y16225   3.347   6.436   7.050  0.5561 -1.6288 -0.9715
  147SAPE   C3616226   3.263   6.255   7.103  0.4719  1.0512  0.2303
  147SAPE   H6X16227   3.357   6.240   7.161  1.0061  0.4019 -0.8007
  147SAPE   H6Y16228   3.277   6.195   7.011 -1.8435 -0.6159  0.9203
  147SAPE   C3716229   3.166   6.180   7.198  0.0221 -0.4476 -0.0473
  147SAPE   H7X16230   3.212   6.085   7.233  0.2053  0.2752  1.7301
  147SAPE   H7Y16231   3.075   6.149   7.141 -0.6823  0.8449  0.3559
  147SAPE   C3816232   3.108   6.257   7.321 -0.4773  0.0685 -0.0775
  147SAPE   H8X16233   3.022   6.204   7.367  0.0206 -0.1951  0.5591
  147SAPE   H8Y16234   3.070   6.348   7.269 -0.8945 -0.1894 -0.2265
  147SAPE   C3916235   3.212   6.294   7.424 -0.0712 -0.7776  0.7303
  147SAPE   H9X16236   3.299   6.351   7.384 -1.2587 -0.1282 -0.9948
  147SAPE   H9Y16237   3.252   6.195   7.456 -0.6688 -1.7226 -1.3794
  147SAPE  C31016238   3.160   6.387   7.536 -0.0542 -0.5991  0.2596
  147SAPE  H10X16239   3.081   6.337   7.596 -0.3636 -1.5890 -0.9661
  147SAPE  H10Y16240   3.113   6.476   7.488 -0.2738 -2.1313 -2.4811
  147SAPE  C31116241   3.270   6.410   7.633 -0.9407 -0.5175 -0.2291
  147SAPE  H11X16242   3.251   6.512   7.670  0.6415 -0.1691 -0.3346
  147SAPE  H11Y16243   3.365   6.405   7.574 -0.0402  0.2214  1.1447
  147SAPE  C31216244   3.274   6.302   7.746  0.2624 -0.5454 -0.1497
  147SAPE  H12X16245   3.367   6.318   7.803  1.4284  0.4774 -2.2747
  147SAPE  H12Y16246   3.274   6.199   7.704  0.2865 -1.5139  2.2001
  147SAPE  C31316247   3.162   6.322   7.851  0.3336 -0.5723  0.4301
  147SAPE  H13X16248   3.064   6.305   7.801 -0.1715  1.2699  0.7578
  147SAPE  H13Y16249   3.175   6.428   7.882  1.4732 -0.8616  0.9769
  147SAPE  C31416250   3.176   6.225   7.969  0.2189  0.1078 -0.0078
  147SAPE  H14X16251   3.279   6.238   8.007  0.3635 -1.1141  0.0425
  147SAPE  H14Y16252   3.173   6.122   7.929 -0.5545  0.4855 -0.9644
  147SAPE  C31516253   3.079   6.249   8.082 -0.2002  0.8574 -0.4220
  147SAPE  H15X16254   2.984   6.207   8.043  0.3389 -0.1485 -0.6826
  147SAPE  H15Y16255   3.038   6.350   8.100 -1.9378 -0.4025  3.0295
  147SAPE  C31616256   3.121   6.189   8.219 -0.1893 -0.3626  0.6057
  147SAPE  H16X16257   3.226   6.222   8.228 -0.5143  0.5096  1.2572
  147SAPE  H16Y16258   3.105   6.079   8.223  1.0657 -0.5149  1.5759
  147SAPE  C31716259   3.057   6.250   8.349  0.8084  0.1961 -0.8537
  147SAPE  H17X16260   2.970   6.185   8.371  2.0248 -1.2505 -0.2432
  147SAPE  H17Y16261   3.025   6.356   8.336  2.2364  0.6282 -0.9307
  147SAPE  C31816262   3.133   6.261   8.479  0.1729  0.2019  0.7495
  147SAPE  H18X16263   3.220   6.331   8.479  0.4180 -0.0993  1.9815
  147SAPE  H18Y16264   3.178   6.162   8.499  1.5086  0.4043 -1.1278
  147SAPE  H18Z16265   3.064   6.295   8.559  0.3655 -1.7325  1.7689
  148SAPE     N16266   3.345   4.586   6.546  0.1438  0.4637 -0.1788
  148SAPE   HN116267   3.283   4.574   6.464  0.8228 -0.0932 -0.6178
  148SAPE   HN216268   3.335   4.687   6.569 -0.8926  0.5808 -1.1227
  148SAPE   HN316269   3.438   4.555   6.512 -0.6694 -1.7284 -0.4449
  148SAPE   C1216270   3.282   4.523   6.656 -0.3117 -0.3566 -0.4923
  148SAPE  H12A16271   3.355   4.485   6.730 -2.5719 -4.0718 -0.0458
  148SAPE  H12B16272   3.217   4.442   6.615  0.2660 -1.0130 -0.1296
  148SAPE   C1116273   3.186   4.626   6.721  0.7113 -0.4680  0.3832
  148SAPE  H11A16274   3.240   4.709   6.771 -2.2312  2.5575 -1.3333
  148SAPE  H11B16275   3.124   4.568   6.792 -0.9671  1.1425  0.2657
  148SAPE     P16276   2.945   4.679   6.634  0.4225 -0.3159 -0.0021
  148SAPE   O1316277   2.885   4.772   6.540  0.0037  0.5667 -0.0534
  148SAPE   O1416278   2.911   4.535   6.619  0.5634 -0.6666 -0.5477
  148SAPE   O1216279   3.106   4.689   6.619  0.5571 -0.2345 -0.0416
  148SAPE   O1116280   2.917   4.727   6.782 -0.2162  0.9473  0.1675
  148SAPE    C116281   2.938   4.861   6.827 -0.3569 -0.6583 -0.4762
  148SAPE    HA16282   3.037   4.872   6.877  0.0329 -0.7971 -1.2078
  148SAPE    HB16283   2.929   4.938   6.748  0.5645 -1.6351 -1.5506
  148SAPE    C216284   2.823   4.915   6.912  0.3447 -0.0837 -0.2559
  148SAPE    HS16285   2.860   5.003   6.969  1.0989 -0.4439 -0.1869
  148SAPE   O2116286   2.770   4.817   7.009 -0.5184 -0.2038 -0.1732
  148SAPE   C2116287   2.852   4.792   7.108  0.3130 -0.0962  0.3916
  148SAPE   O2216288   2.951   4.857   7.136  0.1398 -0.0152  0.8621
  148SAPE   C2216289   2.795   4.683   7.203 -0.2554  0.2446 -0.7225
  148SAPE   H2R16290   2.725   4.739   7.268  1.3262  0.6808  0.6451
  148SAPE   H2S16291   2.738   4.619   7.133 -2.3712  0.2940  0.9206
  148SAPE    C316292   2.706   4.958   6.824 -0.1257 -0.9857 -0.1331
  148SAPE    HX16293   2.674   4.867   6.768  1.0619 -0.7689 -1.1760
  148SAPE    HY16294   2.733   5.040   6.754 -1.6618 -0.7643 -0.5001
  148SAPE   O3116295   2.604   5.017   6.908  0.3136 -0.7201 -0.6121
  148SAPE   C3116296   2.503   4.941   6.946  0.4615 -0.9864 -0.1763
  148SAPE   O3216297   2.490   4.824   6.922  0.1458  0.5498 -0.5935
  148SAPE   C3216298   2.410   5.026   7.035  0.2560  0.2609  0.8657
  148SAPE   H2X16299   2.308   4.996   7.002  0.0050  3.8887 -2.0249
  148SAPE   H2Y16300   2.439   5.132   7.019  1.4786 -0.0670  0.9065
  148SAPE   C2316301   2.905   4.594   7.273  0.2337  0.4639  0.5294
  148SAPE   H3R16302   2.869   4.541   7.364  1.4270 -2.2779 -0.5372
  148SAPE   H3S16303   2.983   4.665   7.308  0.4294  0.7781 -0.5473
  148SAPE   C2416304   2.980   4.494   7.190 -0.1332 -0.3186  0.5081
  148SAPE   H4R16305   2.905   4.432   7.136 -0.7471  1.2758 -0.5000
  148SAPE   H4S16306   3.038   4.425   7.256  2.6217  0.6210 -0.8521
  148SAPE   C2516307   3.075   4.566   7.096  0.8281 -0.0829 -0.5084
  148SAPE   H5R16308   3.025   4.601   7.004 -0.2236 -0.9882 -0.2875
  148SAPE   C2616309   3.208   4.580   7.122  0.3678  0.3395 -0.7872
  148SAPE   H6R16310   3.267   4.644   7.056  0.2086  2.5900  1.2125
  148SAPE   C2716311   3.289   4.526   7.243 -0.2348  0.0845  0.2990
  148SAPE   H7R16312   3.235   4.546   7.337 -0.8953 -0.5146  0.0509
  148SAPE   H7S16313   3.375   4.595   7.254 -1.1759  1.5547 -1.2533
  148SAPE   C2816314   3.329   4.377   7.241 -0.8352  0.1085  0.5840
  148SAPE   H8R16315   3.376   4.356   7.144 -2.0920 -2.3213  0.4681
  148SAPE   C2916316   3.311   4.275   7.326  0.0566 -0.1467 -0.4914
  148SAPE   H9R16317   3.353   4.180   7.290  1.7508  0.9384 -1.4205
  148SAPE  C21016318   3.244   4.268   7.465 -0.0876 -0.3816  0.1824
  148SAPE  H10R16319   3.232   4.370   7.507 -1.2854 -1.5606  2.8695
  148SAPE  H10S16320   3.301   4.204   7.536 -1.2790 -1.7970 -0.0976
  148SAPE  C21116321   3.104   4.213   7.461  0.1110 -0.4941 -0.4317
  148SAPE  H11R16322   3.075   4.152   7.375 -2.9514 -2.9632  2.2066
  148SAPE  C21216323   3.008   4.222   7.553 -0.7407 -0.1457 -0.6560
  148SAPE  H12R16324   2.912   4.174   7.529  0.0558 -2.0248 -0.1759
  148SAPE  C21316325   3.016   4.300   7.686 -0.2873 -0.3854 -0.0806
  148SAPE  H13R16326   3.109   4.276   7.742 -0.0148 -1.4491 -0.9710
  148SAPE  H13S16327   2.930   4.274   7.750  0.3534 -0.1643  0.8797
  148SAPE  C21416328   3.014   4.452   7.679  0.3251 -0.2945  0.0175
  148SAPE  H14R16329   2.954   4.492   7.596  0.1474 -0.0133  0.2796
  148SAPE  C21516330   3.060   4.548   7.750 -0.0601  0.1957 -0.5845
  148SAPE  H15R16331   3.034   4.651   7.720 -0.0627  0.9714  1.9724
  148SAPE  C21616332   3.141   4.525   7.879 -0.1837 -0.3666 -0.1988
  148SAPE  H16R16333   3.233   4.583   7.855  0.0547 -0.4094  0.6248
  148SAPE  H16S16334   3.168   4.420   7.901 -0.5312 -0.9273 -2.3294
  148SAPE  C21716335   3.083   4.584   8.004 -0.1846  0.7283  0.3737
  148SAPE  H17R16336   3.001   4.512   8.027 -0.2451 -0.1223 -2.2714
  148SAPE  H17S16337   3.041   4.687   8.003 -2.5011 -0.1928 -0.3990
  148SAPE  C21816338   3.181   4.578   8.121 -0.1222 -0.0461  0.0774
  148SAPE  H18R16339   3.271   4.642   8.130  0.0771 -0.4358  0.9343
  148SAPE  H18S16340   3.229   4.478   8.117  2.0893  1.0104 -0.4550
  148SAPE  C21916341   3.114   4.584   8.259  0.1578 -0.5191 -0.1796
  148SAPE  H19R16342   3.014   4.538   8.244  0.1308 -0.2466 -0.8802
  148SAPE  H19S16343   3.098   4.690   8.288 -0.1384 -0.8989  1.0630
  148SAPE  C22016344   3.188   4.503   8.362  0.1225  0.3233  0.0258
  148SAPE  H20R16345   3.225   4.411   8.312  0.4467 -0.6224  1.9765
  148SAPE  H20S16346   3.123   4.472   8.447  0.7762 -1.0973  0.0096
  148SAPE  H20T16347   3.280   4.551   8.403 -0.4870 -0.0527  1.8691
  148SAPE   C3316348   2.424   4.997   7.186  0.4173 -0.4061  0.3022
  148SAPE   H3X16349   2.399   4.890   7.202 -0.9147 -0.1175  0.2173
  148SAPE   H3Y16350   2.338   5.053   7.229  1.8576 -0.0093  2.7718
  148SAPE   C3416351   2.551   5.035   7.260 -0.5720  0.5975 -0.6104
  148SAPE   H4X16352   2.556   5.146   7.271 -4.1464  0.8060 -0.6674
  148SAPE   H4Y16353   2.639   5.006   7.198  0.9922  0.2623  1.6990
  148SAPE   C3516354   2.569   4.982   7.404 -0.0414 -0.4088  0.4283
  148SAPE   H5X16355   2.668   4.987   7.455 -0.5887 -1.7298  1.6395
  148SAPE   H5Y16356   2.554   4.872   7.399 -0.9957 -0.3080  1.0528
  148SAPE   C3616357   2.466   5.043   7.501  0.5073 -0.4547  0.0169
  148SAPE   H6X16358   2.364   5.015   7.469  0.3255  1.9757 -1.6536
  148SAPE   H6Y16359   2.491   5.151   7.491  0.6684 -0.4810  0.1267
  148SAPE   C3716360   2.496   5.002   7.645  0.8497  0.8606 -0.0618
  148SAPE   H7X16361   2.602   5.005   7.675  1.1816 -0.4425 -1.0600
  148SAPE   H7Y16362   2.469   4.894   7.642  1.4373  0.7452 -2.0793
  148SAPE   C3816363   2.399   5.048   7.751 -0.4323 -0.0258 -0.0664
  148SAPE   H8X16364   2.295   5.057   7.713 -0.8387 -1.1032  0.7657
  148SAPE   H8Y16365   2.428   5.154   7.764 -2.3512  0.1957  2.6339
  148SAPE   C3916366   2.404   4.971   7.886 -0.3571  0.7068 -0.3075
  148SAPE   H9X16367   2.508   4.972   7.926 -0.9734  0.9880  1.3494
  148SAPE   H9Y16368   2.377   4.864   7.870  0.3344  0.7416 -1.7243
  148SAPE  C31016369   2.314   5.026   7.997  0.4534 -0.5692  0.2995
  148SAPE  H10X16370   2.209   5.000   7.971 -0.7999  2.5574  2.0083
  148SAPE  H10Y16371   2.307   5.136   7.984  0.1765 -0.6328 -0.1228
  148SAPE  C31116372   2.333   4.971   8.134  0.4155  0.3977  0.0348
  148SAPE  H11X16373   2.253   5.008   8.201  1.3440  1.9594  0.3137
  148SAPE  H11Y16374   2.417   5.025   8.183  0.5806  1.8697 -1.8057
  148SAPE  C31216375   2.349   4.819   8.148  0.4665  0.4733 -0.1230
  148SAPE  H12X16376   2.436   4.781   8.090  0.1180 -1.5628  0.6183
  148SAPE  H12Y16377   2.249   4.783   8.116  1.5482 -2.3561 -0.4590
  148SAPE  C31316378   2.354   4.787   8.301 -0.1577  0.3364 -0.7345
  148SAPE  H13X16379   2.306   4.689   8.324 -1.9986  1.6808  1.3101
  148SAPE  H13Y16380   2.321   4.870   8.366 -2.0626 -0.3591 -0.7708
  148SAPE  C31416381   2.499   4.765   8.327 -0.1222  0.0635  0.1364
  148SAPE  H14X16382   2.565   4.852   8.308 -0.8004  0.7116  0.7194
  148SAPE  H14Y16383   2.538   4.696   8.250 -0.1168  0.9804 -0.6859
  148SAPE  C31516384   2.517   4.718   8.468  0.6884 -0.6342  0.3605
  148SAPE  H15X16385   2.425   4.664   8.502  0.5302 -1.5285 -1.4150
  148SAPE  H15Y16386   2.510   4.815   8.522 -0.4399  0.0687 -1.0052
  148SAPE  C31616387   2.644   4.647   8.505 -0.9621  0.7694  1.0548
  148SAPE  H16X16388   2.656   4.555   8.443  0.5198  1.3781  0.4196
  148SAPE  H16Y16389   2.640   4.608   8.609  0.4996  0.6833  1.0899
  148SAPE  C31716390   2.777   4.724   8.486 -0.4167 -0.3730  0.3272
  148SAPE  H17X16391   2.793   4.746   8.378  0.9538  0.8408  0.7632
  148SAPE  H17Y16392   2.856   4.658   8.528 -1.1265 -0.6665  1.2173
  148SAPE  C31816393   2.787   4.859   8.559  0.4667 -0.5804 -0.0082
  148SAPE  H18X16394   2.877   4.909   8.517 -1.8856  1.6438 -2.4978
  148SAPE  H18Y16395   2.793   4.850   8.670 -1.7059 -1.0664  0.0958
  148SAPE  H18Z16396   2.710   4.931   8.525 -1.2307 -2.1547  0.4424
  149SAPE     N16397   1.210   5.633   6.519 -0.4055  0.4899 -0.1994
  149SAPE   HN116398   1.203   5.577   6.606  0.7636 -1.4485 -1.2971
  149SAPE   HN216399   1.113   5.636   6.480  0.0630  2.8023 -1.3164
  149SAPE   HN316400   1.278   5.586   6.455 -1.5139  0.7462 -1.5892
  149SAPE   C1216401   1.239   5.780   6.550  0.3108  1.0256  1.0033
  149SAPE  H12A16402   1.338   5.781   6.600 -0.5108  2.6564  2.6733
  149SAPE  H12B16403   1.167   5.818   6.627  0.7040  0.3393  1.7102
  149SAPE   C1116404   1.239   5.859   6.413 -0.1160  0.4199 -0.5742
  149SAPE  H11A16405   1.279   5.962   6.420  0.2661  0.3436 -1.5665
  149SAPE  H11B16406   1.133   5.874   6.381 -0.1340 -0.7892 -1.1374
  149SAPE     P16407   1.464   5.751   6.307 -0.0955 -0.3434  0.4910
  149SAPE   O1316408   1.494   5.700   6.170 -0.1197 -0.2441 -0.1230
  149SAPE   O1416409   1.539   5.870   6.352  0.3269  0.2013  0.2829
  149SAPE   O1216410   1.307   5.793   6.310  0.8866  0.4371 -0.1007
  149SAPE   O1116411   1.475   5.633   6.412  0.4385  0.0305  0.3927
  149SAPE    C116412   1.600   5.584   6.468  0.3715  0.1268  0.4265
  149SAPE    HA16413   1.657   5.552   6.378 -0.2501  0.4154 -0.0784
  149SAPE    HB16414   1.659   5.671   6.504 -1.8484  0.7322  2.8026
  149SAPE    C216415   1.576   5.471   6.569  0.6393  0.3153  0.6477
  149SAPE    HS16416   1.523   5.388   6.518  1.4089 -1.1684  2.1958
  149SAPE   O2116417   1.488   5.524   6.670 -0.0772 -0.0877 -0.2355
  149SAPE   C2116418   1.446   5.449   6.762 -0.7018 -0.3867 -0.3339
  149SAPE   O2216419   1.456   5.326   6.767  0.1660  0.6479 -0.3910
  149SAPE   C2216420   1.385   5.521   6.879  0.0478 -0.1499  0.2804
  149SAPE   H2R16421   1.314   5.591   6.831  1.2353  0.9924  0.1583
  149SAPE   H2S16422   1.327   5.449   6.942  0.8415 -0.3434  0.8061
  149SAPE    C316423   1.711   5.408   6.625  0.3239 -0.1463  0.2541
  149SAPE    HX16424   1.778   5.373   6.543  1.8583  0.2697  1.3204
  149SAPE    HY16425   1.673   5.315   6.674 -0.6657 -0.6928 -1.4853
  149SAPE   O3116426   1.778   5.507   6.710  0.8200 -0.2080 -0.1907
  149SAPE   C3116427   1.886   5.444   6.759 -0.2304  0.3973  0.2865
  149SAPE   O3216428   1.927   5.335   6.721 -0.0108  0.1577 -0.5391
  149SAPE   C3216429   1.930   5.520   6.880  0.3762  0.1551 -0.5958
  149SAPE   H2X16430   1.848   5.584   6.919 -0.4373 -1.7466  0.9265
  149SAPE   H2Y16431   2.021   5.580   6.859  0.1525  0.4563 -0.7034
  149SAPE   C2316432   1.493   5.590   6.974  0.4532  0.1035  0.0963
  149SAPE   H3R16433   1.434   5.644   7.051 -1.5395  1.7469 -2.5191
  149SAPE   H3S16434   1.553   5.663   6.916  1.1714 -1.2055 -0.8477
  149SAPE   C2416435   1.580   5.487   7.049  0.2642  0.0839 -0.0673
  149SAPE   H4R16436   1.664   5.538   7.101  2.1638 -0.6270 -2.3131
  149SAPE   H4S16437   1.644   5.427   6.981 -2.0192  0.8081 -2.9514
  149SAPE   C2516438   1.516   5.401   7.156 -0.0583 -0.0565 -0.5186
  149SAPE   H5R16439   1.428   5.346   7.121  1.3986 -0.9150 -2.9743
  149SAPE   C2616440   1.544   5.397   7.286  0.2200 -0.5357  0.2149
  149SAPE   H6R16441   1.479   5.332   7.346  0.3745  1.0566  2.1501
  149SAPE   C2716442   1.655   5.472   7.363  0.3388  0.4944 -0.1190
  149SAPE   H7R16443   1.625   5.579   7.366  2.0836  0.9938 -0.3767
  149SAPE   H7S16444   1.750   5.461   7.307 -0.3846 -1.1576 -1.0970
  149SAPE   C2816445   1.676   5.410   7.498  0.3165  0.7652  0.2315
  149SAPE   H8R16446   1.680   5.300   7.490 -2.3135  0.7369 -1.3268
  149SAPE   C2916447   1.666   5.469   7.619  0.5078 -0.5062  0.2928
  149SAPE   H9R16448   1.684   5.420   7.716  1.2109  1.2891  1.0877
  149SAPE  C21016449   1.651   5.618   7.645  0.2664 -0.1609  0.8036
  149SAPE  H10R16450   1.621   5.675   7.555 -1.1112  0.0658  1.4028
  149SAPE  H10S16451   1.744   5.678   7.653  2.1065 -3.0531  1.8706
  149SAPE  C21116452   1.557   5.655   7.764  0.2710  0.3393 -0.9164
  149SAPE  H11R16453   1.453   5.660   7.729 -0.6942 -0.5741  1.7177
  149SAPE  C21216454   1.595   5.682   7.889  0.2283  0.2561  0.0953
  149SAPE  H12R16455   1.520   5.707   7.966 -0.6087 -2.1930  0.1287
  149SAPE  C21316456   1.739   5.667   7.930  0.2591  0.2713  0.1823
  149SAPE  H13R16457   1.798   5.647   7.838 -0.5158  0.9684 -0.4781
  149SAPE  H13S16458   1.756   5.577   7.994 -0.1156  0.7993  1.0300
  149SAPE  C21416459   1.784   5.788   8.007 -0.1949  0.3174  0.0921
  149SAPE  H14R16460   1.814   5.874   7.945  2.0075  0.1632  0.9014
  149SAPE  C21516461   1.788   5.801   8.142 -0.0295 -0.2883 -0.4123
  149SAPE  H15R16462   1.828   5.894   8.185 -1.7927  0.9623 -1.3594
  149SAPE  C21616463   1.767   5.700   8.251  0.2747 -0.0421 -0.1558
  149SAPE  H16R16464   1.793   5.600   8.211 -0.2673 -0.7064  1.1412
  149SAPE  H16S16465   1.661   5.700   8.285  0.9880  2.9102  2.2618
  149SAPE  C21716466   1.853   5.725   8.381  0.4595  0.2619  0.6989
  149SAPE  H17R16467   1.834   5.648   8.458  2.8160 -1.3347 -0.2591
  149SAPE  H17S16468   1.829   5.822   8.430 -1.8147 -0.5028  1.1567
  149SAPE  C21816469   2.006   5.717   8.356  0.0549  0.7323 -0.1050
  149SAPE  H18R16470   2.039   5.794   8.283  2.1199 -1.1369 -1.2060
  149SAPE  H18S16471   2.015   5.613   8.316  0.9279  1.0864 -0.8393
  149SAPE  C21916472   2.093   5.728   8.481 -0.4430  0.1614 -0.3128
  149SAPE  H19R16473   2.074   5.649   8.557  0.2983  1.3578  1.1550
  149SAPE  H19S16474   2.078   5.829   8.526 -0.9902 -0.1211  0.1573
  149SAPE  C22016475   2.248   5.725   8.450 -0.0203 -0.2592 -0.2698
  149SAPE  H20R16476   2.323   5.687   8.522  0.1099  2.4889  1.1448
  149SAPE  H20S16477   2.277   5.827   8.416 -1.1833  0.7911  1.7371
  149SAPE  H20T16478   2.260   5.673   8.353 -0.1391  0.1758 -0.5199
  149SAPE   C3316479   1.976   5.421   6.994  0.5776 -0.2140  0.3079
  149SAPE   H3X16480   2.023   5.330   6.950 -1.0627 -1.2337  0.6336
  149SAPE   H3Y16481   1.885   5.386   7.046 -0.7716  1.4077 -0.9332
  149SAPE   C3416482   2.072   5.488   7.088  0.4091  0.6529 -0.4760
  149SAPE   H4X16483   2.032   5.590   7.102 -0.4161  0.6386 -2.4700
  149SAPE   H4Y16484   2.175   5.504   7.048  0.7063  0.9757  0.4293
  149SAPE   C3516485   2.079   5.431   7.227 -0.1580 -0.0431 -0.3257
  149SAPE   H5X16486   1.983   5.454   7.279 -0.1848 -1.2277  0.1434
  149SAPE   H5Y16487   2.161   5.476   7.286  1.0941 -0.1050 -1.9633
  149SAPE   C3616488   2.094   5.280   7.228 -0.0824 -0.0266 -0.6586
  149SAPE   H6X16489   2.181   5.257   7.163 -0.0064 -0.1736 -0.5046
  149SAPE   H6Y16490   2.013   5.231   7.170 -1.2010  1.1674 -0.1349
  149SAPE   C3716491   2.117   5.217   7.367 -0.0911  0.2343  0.0454
  149SAPE   H7X16492   2.209   5.264   7.410  0.9713 -2.5057  0.8313
  149SAPE   H7Y16493   2.135   5.109   7.354  1.7687  0.3161  1.5920
  149SAPE   C3816494   1.997   5.227   7.460 -0.4017 -0.1771  0.3853
  149SAPE   H8X16495   1.899   5.205   7.411 -1.0992  2.3074  0.5901
  149SAPE   H8Y16496   1.981   5.334   7.487  0.2647  0.0105  0.0205
  149SAPE   C3916497   2.018   5.161   7.598  0.0032 -0.1356  0.4108
  149SAPE   H9X16498   2.113   5.209   7.628  0.5534 -2.0176  1.7606
  149SAPE   H9Y16499   2.019   5.051   7.588 -0.4579 -0.2524  1.5669
  149SAPE  C31016500   1.910   5.183   7.705 -0.2136  0.4236 -0.1171
  149SAPE  H10X16501   1.813   5.142   7.671  0.3520  0.0833 -1.3904
  149SAPE  H10Y16502   1.886   5.291   7.714  1.6779  0.7869  0.8413
  149SAPE  C31116503   1.954   5.126   7.838 -0.6673 -0.1145 -0.5088
  149SAPE  H11X16504   2.035   5.189   7.881 -2.5815  1.2985  1.1132
  149SAPE  H11Y16505   2.005   5.028   7.828 -1.2023 -0.3413 -1.0079
  149SAPE  C31216506   1.835   5.101   7.936 -0.1133 -0.1448 -0.0834
  149SAPE  H12X16507   1.776   5.017   7.895 -0.6692 -1.5071  3.3481
  149SAPE  H12Y16508   1.761   5.184   7.932  0.5943  0.4876 -0.2839
  149SAPE  C31316509   1.873   5.069   8.081 -1.2092 -0.0541  0.3597
  149SAPE  H13X16510   1.974   5.022   8.083 -0.5637  1.2870  0.6890
  149SAPE  H13Y16511   1.800   4.996   8.120 -0.2425 -1.2654 -0.0776
  149SAPE  C31416512   1.877   5.200   8.164  0.5356  0.5305  0.0308
  149SAPE  H14X16513   1.774   5.236   8.184  1.3531  1.3014  3.1200
  149SAPE  H14Y16514   1.943   5.270   8.109  1.7575 -0.3499  0.3435
  149SAPE  C31516515   1.934   5.180   8.308  0.2541 -0.1493  0.1699
  149SAPE  H15X16516   2.035   5.133   8.306  1.9926  3.3795  1.3225
  149SAPE  H15Y16517   1.863   5.108   8.354  1.8437 -1.1450  1.1330
  149SAPE  C31616518   1.938   5.310   8.395  0.4358  0.1165  0.0858
  149SAPE  H16X16519   1.840   5.361   8.380  0.3239  0.2268  1.1252
  149SAPE  H16Y16520   2.026   5.376   8.381  0.5275  0.0129  0.1707
  149SAPE  C31716521   1.936   5.269   8.543 -0.1399 -0.5742 -0.3184
  149SAPE  H17X16522   2.003   5.188   8.580  1.2868  0.0519 -1.4449
  149SAPE  H17Y16523   1.838   5.222   8.565  0.3921 -0.9719  1.3161
  149SAPE  C31816524   1.949   5.382   8.643 -0.0378  0.3513  0.3342
  149SAPE  H18X16525   1.883   5.471   8.635 -0.3601 -0.0320 -1.3460
  149SAPE  H18Y16526   2.048   5.430   8.631  0.6563 -1.0036  0.5664
  149SAPE  H18Z16527   1.942   5.345   8.748  0.7671 -0.7778 -0.0069
  150SAPE     N16528   0.350   1.041   6.402  0.2375  0.2741 -0.3146
  150SAPE   HN116529   0.325   0.993   6.314  0.9936 -0.7933  0.0305
  150SAPE   HN216530   0.261   1.064   6.452  1.2861  0.1328  1.6991
  150SAPE   HN316531   0.399   1.131   6.386  0.7873 -0.3151 -2.0253
  150SAPE   C1216532   0.444   0.958   6.486 -0.4639  0.2476  0.6109
  150SAPE  H12A16533   0.499   1.027   6.554  0.4324 -0.0750  0.2157
  150SAPE  H12B16534   0.525   0.920   6.421  0.8252  1.7539  1.3142
  150SAPE   C1116535   0.378   0.847   6.567 -0.3467 -0.0529 -0.3185
  150SAPE  H11A16536   0.287   0.869   6.627 -0.8546  0.2239 -1.1831
  150SAPE  H11B16537   0.451   0.809   6.641  0.2202  0.8335 -0.4243
  150SAPE     P16538   0.408   0.600   6.472  0.2289  0.0244 -0.0883
  150SAPE   O1316539   0.298   0.498   6.476  0.0508 -0.2579  0.4088
  150SAPE   O1416540   0.497   0.594   6.352  0.5009  0.2316 -0.1796
  150SAPE   O1216541   0.344   0.742   6.476  0.2758 -0.1934  1.0316
  150SAPE   O1116542   0.496   0.585   6.598  0.6759 -0.1448 -0.8274
  150SAPE    C116543   0.453   0.501   6.711 -0.4548  0.5019 -0.5778
  150SAPE    HA16544   0.472   0.553   6.807 -3.1989  2.8417 -1.2410
  150SAPE    HB16545   0.344   0.484   6.720 -0.5787  1.9378  0.6893
  150SAPE    C216546   0.511   0.358   6.706  0.0980 -0.2478  0.8439
  150SAPE    HS16547   0.478   0.314   6.609  1.4896 -0.1836  0.3214
  150SAPE   O2116548   0.442   0.280   6.804  0.5589  0.3966  0.3503
  150SAPE   C2116549   0.448   0.148   6.777  0.2680  0.4044  0.2352
  150SAPE   O2216550   0.479   0.094   6.668 -0.3409 -0.3205 -0.7455
  150SAPE   C2216551   0.400   0.072   6.888  0.0495  1.0326 -0.7853
  150SAPE   H2R16552   0.364   0.138   6.969  0.4370  0.2132  0.0641
  150SAPE   H2S16553   0.310   0.012   6.863 -1.4262  2.5668  0.7449
  150SAPE    C316554   0.664   0.361   6.717 -0.0190 -0.1814  0.1053
  150SAPE    HX16555   0.682   0.423   6.807 -0.4409 -0.4804  0.3967
  150SAPE    HY16556   0.703   0.412   6.626 -2.0258  0.7910 -0.2146
  150SAPE   O3116557   0.720   0.228   6.741  0.0468  0.2796  0.2311
  150SAPE   C3116558   0.845   0.213   6.706  0.2997  0.3825  0.7499
  150SAPE   O3216559   0.911   0.296   6.645 -0.4261 -0.5152 -0.8677
  150SAPE   C3216560   0.900   0.081   6.754  0.1268  0.7492 -0.1397
  150SAPE   H2X16561   0.930   0.030   6.659  0.3055  2.0924 -0.8133
  150SAPE   H2Y16562   0.816   0.019   6.790  2.4642 -2.0661  0.7060
  150SAPE   C2316563   0.511  -0.014   6.955  0.1109 -0.0316 -0.5068
  150SAPE   H3R16564   0.555  -0.075   6.873  3.0480 -1.2779  1.9055
  150SAPE   H3S16565   0.459  -0.083   7.023  0.2873 -0.6306 -0.9721
  150SAPE   C2416566   0.623   0.063   7.025  0.5767 -0.7101 -0.3186
  150SAPE   H4R16567   0.651   0.147   6.958  0.0003  0.3295  0.7176
  150SAPE   H4S16568   0.715   0.009   7.058  0.1408 -0.6658  0.9890
  150SAPE   C2516569   0.574   0.108   7.160  0.6251  0.3672  0.4222
  150SAPE   H5R16570   0.515   0.029   7.208  1.5525  0.1055  1.1250
  150SAPE   C2616571   0.598   0.226   7.223  0.1519  0.3928 -0.2960
  150SAPE   H6R16572   0.559   0.247   7.324 -0.2752 -0.0974 -0.3579
  150SAPE   C2716573   0.686   0.338   7.171 -0.3585  0.1808 -0.1823
  150SAPE   H7R16574   0.766   0.289   7.113  0.3351  1.1487 -0.0644
  150SAPE   H7S16575   0.735   0.401   7.249  0.3516  1.4241 -1.5999
  150SAPE   C2816576   0.596   0.425   7.085  0.1284 -0.1286 -0.0075
  150SAPE   H8R16577   0.507   0.380   7.039 -0.9502  1.2496  0.6932
  150SAPE   C2916578   0.625   0.554   7.048  0.1420 -0.0863  0.0254
  150SAPE   H9R16579   0.553   0.614   6.991 -0.2217 -1.0691 -0.5560
  150SAPE  C21016580   0.740   0.641   7.098  0.0300  0.6830 -1.5741
  150SAPE  H10R16581   0.801   0.585   7.172 -1.3343  0.4827 -0.5747
  150SAPE  H10S16582   0.701   0.728   7.154  0.3605  0.5070 -1.0721
  150SAPE  C21116583   0.817   0.696   6.975  0.5366  0.3602 -0.3595
  150SAPE  H11R16584   0.767   0.772   6.914  1.5414  2.3474  1.2514
  150SAPE  C21216585   0.935   0.653   6.937 -0.2850  0.0692  0.7754
  150SAPE  H12R16586   0.971   0.709   6.849 -1.2289 -1.9296 -0.9412
  150SAPE  C21316587   1.020   0.543   7.002  0.3961 -0.3751 -0.1718
  150SAPE  H13R16588   1.030   0.465   6.923 -0.5063 -1.3332  0.6442
  150SAPE  H13S16589   0.962   0.490   7.081  0.2777  2.8447  1.9775
  150SAPE  C21416590   1.151   0.599   7.053  0.1652 -0.4307  0.8661
  150SAPE  H14R16591   1.226   0.614   6.974 -0.0181  2.3205  1.1727
  150SAPE  C21516592   1.194   0.618   7.178  0.4468 -0.2365  0.5370
  150SAPE  H15R16593   1.291   0.666   7.194  1.0249 -1.6088  1.2620
  150SAPE  C21616594   1.115   0.580   7.303  1.0057  0.5192  0.3308
  150SAPE  H16R16595   1.135   0.473   7.322  1.5082  0.2383 -1.6327
  150SAPE  H16S16596   1.008   0.598   7.277  1.2714  0.1092 -1.1226
  150SAPE  C21716597   1.119   0.661   7.435  0.0033 -0.0062 -0.0435
  150SAPE  H17R16598   1.131   0.769   7.414 -0.0679 -0.1691 -0.9697
  150SAPE  H17S16599   1.209   0.637   7.495  0.2080  1.3905  0.2142
  150SAPE  C21816600   0.989   0.643   7.520 -0.8261 -0.1842 -0.1951
  150SAPE  H18R16601   0.904   0.670   7.453  0.8302  3.2528 -1.0451
  150SAPE  H18S16602   0.999   0.715   7.605  3.6052 -1.0275  0.0816
  150SAPE  C21916603   0.970   0.502   7.575  0.4732  0.1791  0.2980
  150SAPE  H19R16604   1.065   0.454   7.607 -0.5164 -1.3234  1.0535
  150SAPE  H19S16605   0.950   0.436   7.488 -1.5637  1.0116  0.1031
  150SAPE  C22016606   0.867   0.499   7.696 -0.3848 -0.4958 -0.0629
  150SAPE  H20R16607   0.833   0.398   7.725 -1.1268 -0.2396 -0.0427
  150SAPE  H20S16608   0.782   0.567   7.672  1.5101  1.8334 -0.4233
  150SAPE  H20T16609   0.920   0.532   7.788  0.6907  1.0673 -1.2127
  150SAPE   C3316610   1.020   0.100   6.857 -0.6331  0.0780  0.0820
  150SAPE   H3X16611   1.108   0.148   6.810  0.6161 -0.7501  1.5322
  150SAPE   H3Y16612   1.067   0.002   6.876 -0.4584  0.3491  1.0926
  150SAPE   C3416613   0.982   0.162   6.988  0.3635 -0.0788 -0.6828
  150SAPE   H4X16614   0.911   0.091   7.034  1.6001 -0.1083  1.2719
  150SAPE   H4Y16615   0.926   0.256   6.966  0.4657  0.5205  1.4267
  150SAPE   C3516616   1.093   0.209   7.073  0.0257 -0.1444  0.4334
  150SAPE   H5X16617   1.140   0.302   7.035 -0.7078  0.1561  0.2624
  150SAPE   H5Y16618   1.174   0.133   7.067  1.1634  1.1030 -0.1810
  150SAPE   C3616619   1.057   0.223   7.220 -0.2419  0.3271 -0.0236
  150SAPE   H6X16620   0.982   0.304   7.236  0.3579  0.8610  0.1009
  150SAPE   H6Y16621   1.149   0.246   7.278 -0.6037  0.0917  0.6493
  150SAPE   C3716622   1.013   0.091   7.284 -0.1970  0.1184 -0.5687
  150SAPE   H7X16623   1.095   0.017   7.278 -1.6785 -1.4493 -1.8180
  150SAPE   H7Y16624   0.926   0.045   7.233  0.5749 -1.0965 -0.7911
  150SAPE   C3816625   0.962   0.121   7.422  0.5727  0.5805  1.3898
  150SAPE   H8X16626   0.877   0.191   7.426 -0.6009 -0.7685  0.5137
  150SAPE   H8Y16627   1.039   0.168   7.486 -1.8621  3.7313  2.1004
  150SAPE   C3916628   0.924  -0.011   7.487  0.1047 -0.5193 -0.0985
  150SAPE   H9X16629   1.013  -0.067   7.523 -0.4863 -0.1733  1.9487
  150SAPE   H9Y16630   0.861  -0.067   7.415  0.0556  0.8970 -1.1739
  150SAPE  C31016631   0.841   0.024   7.614  0.0557 -0.0406  0.7405
  150SAPE  H10X16632   0.897   0.107   7.662  2.4169  0.6120 -2.9535
  150SAPE  H10Y16633   0.841  -0.066   7.678 -2.4474 -0.3775  0.3073
  150SAPE  C31116634   0.694   0.051   7.586  0.3431 -0.5760  0.1186
  150SAPE  H11X16635   0.650  -0.049   7.566  0.1419 -0.8000  1.6060
  150SAPE  H11Y16636   0.684   0.114   7.495  1.5833 -0.1001  0.3084
  150SAPE  C31216637   0.604   0.104   7.695 -0.7543  0.3781  0.9963
  150SAPE  H12X16638   0.510   0.144   7.652 -1.1045 -2.6528 -1.2079
  150SAPE  H12Y16639   0.656   0.192   7.740  0.7531  0.4176 -0.7519
  150SAPE  C31316640   0.560  -0.002   7.799 -0.6577  0.2037 -0.0858
  150SAPE  H13X16641   0.649  -0.057   7.835 -0.6390  1.1584  1.3531
  150SAPE  H13Y16642   0.504  -0.081   7.743  1.3704 -0.6807 -0.9190
  150SAPE  C31416643   0.491   0.051   7.924  1.0167 -0.2181  0.4148
  150SAPE  H14X16644   0.396   0.107   7.906  0.8977 -0.2026  1.0886
  150SAPE  H14Y16645   0.567   0.128   7.948 -0.4093  1.2084  0.4306
  150SAPE  C31516646   0.488  -0.048   8.041  0.7589 -0.0516 -0.5148
  150SAPE  H15X16647   0.587  -0.063   8.089 -0.8878 -0.7631  2.8029
  150SAPE  H15Y16648   0.460  -0.150   8.004 -0.5052  0.3266 -0.6152
  150SAPE  C31616649   0.392   0.003   8.147 -0.7926  0.2953  0.1760
  150SAPE  H16X16650   0.294   0.025   8.099 -1.0372  1.2992  1.1130
  150SAPE  H16Y16651   0.424   0.106   8.172  1.5093 -0.6243  1.1116
  150SAPE  C31716652   0.373  -0.085   8.270 -1.6834 -0.1907 -0.0083
  150SAPE  H17X16653   0.406  -0.185   8.235 -1.2658  0.6077 -1.9373
  150SAPE  H17Y16654   0.264  -0.102   8.283 -1.6698 -1.5433 -1.4839
  150SAPE  C31816655   0.434  -0.020   8.394 -0.1817  0.0644  0.7466
  150SAPE  H18X16656   0.416  -0.077   8.487  0.6641  0.0702  0.9177
  150SAPE  H18Y16657   0.389   0.078   8.420  2.2752  1.1411  1.0723
  150SAPE  H18Z16658   0.542  -0.007   8.372 -0.1434  1.8479  1.9302
  151SAPE     N16659   3.563   3.479   6.280  0.0462 -0.2996  0.1261
  151SAPE   HN116660   3.619   3.407   6.330  1.1820  0.4423 -0.0368
  151SAPE   HN216661   3.496   3.439   6.211 -1.5918  0.1735  1.4167
  151SAPE   HN316662   3.634   3.534   6.226  1.5614 -2.0266  0.3121
  151SAPE   C1216663   3.487   3.568   6.376 -0.6056 -0.5168 -0.1126
  151SAPE  H12A16664   3.434   3.496   6.442 -1.9175 -1.9032 -2.6004
  151SAPE  H12B16665   3.415   3.618   6.309  1.0071  0.0985 -1.4298
  151SAPE   C1116666   3.578   3.670   6.450  0.4179  0.4942 -0.3248
  151SAPE  H11A16667   3.672   3.630   6.494  0.4710  0.7544 -0.2043
  151SAPE  H11B16668   3.517   3.716   6.531  0.2453 -0.7287  0.2481
  151SAPE     P16669   3.748   3.795   6.285  0.2287 -0.1382  0.0893
  151SAPE   O1316670   3.787   3.672   6.215 -0.6150  0.1566  1.4249
  151SAPE   O1416671   3.751   3.922   6.205 -0.5387  0.3069 -0.1154
  151SAPE   O1216672   3.606   3.775   6.358 -0.1092  0.3832 -0.1531
  151SAPE   O1116673   3.854   3.801   6.405 -0.3340 -0.0251 -0.1663
  151SAPE    C116674   3.811   3.892   6.511 -0.3408 -0.6060  0.1105
  151SAPE    HA16675   3.802   3.998   6.479  1.5352  0.2305  2.1907
  151SAPE    HB16676   3.724   3.858   6.571 -2.5203  3.3118 -0.6583
  151SAPE    C216677   3.922   3.882   6.616  0.7663  0.7215  0.4001
  151SAPE    HS16678   4.022   3.893   6.569  0.7947 -0.0518  0.2778
  151SAPE   O2116679   3.905   3.747   6.672 -0.1326  0.6321  0.1087
  151SAPE   C2116680   4.013   3.681   6.707  0.1620 -0.3879 -0.4230
  151SAPE   O2216681   4.129   3.722   6.692  0.1197  0.0533  0.0019
  151SAPE   C2216682   3.979   3.545   6.775 -0.0211 -0.3600 -0.3816
  151SAPE   H2R16683   3.873   3.524   6.753  0.0996 -0.0539 -1.2643
  151SAPE   H2S16684   4.028   3.466   6.714 -1.1608 -1.7010  0.4168
  151SAPE    C316685   3.920   4.002   6.722 -0.4187  0.0035 -0.1757
  151SAPE    HX16686   3.910   4.091   6.657  0.3539 -0.2002 -0.5768
  151SAPE    HY16687   4.015   4.007   6.780  1.1235 -2.9296 -2.3237
  151SAPE   O3116688   3.802   3.990   6.807  0.3212  0.4033 -0.1038
  151SAPE   C3116689   3.818   3.946   6.929  0.4241 -0.2914 -0.0339
  151SAPE   O3216690   3.923   3.927   6.982 -0.3646  0.0678 -0.2336
  151SAPE   C3216691   3.678   3.903   6.985 -0.2863 -0.4263  0.3704
  151SAPE   H2X16692   3.632   3.838   6.907  0.3747 -1.5419  0.9043
  151SAPE   H2Y16693   3.606   3.987   6.992 -0.0697 -0.2060 -0.0250
  151SAPE   C2316694   4.025   3.537   6.920  1.0086  0.1556 -0.0465
  151SAPE   H3R16695   3.967   3.601   6.989 -0.1945 -0.5915 -0.3512
  151SAPE   H3S16696   4.128   3.577   6.919  1.8570 -1.8514  2.4769
  151SAPE   C2416697   4.048   3.389   6.957 -0.4264  0.3479  0.8076
  151SAPE   H4R16698   4.128   3.365   7.030  0.4134 -0.2680 -0.3132
  151SAPE   H4S16699   4.072   3.327   6.868 -2.2728 -1.1696  1.3184
  151SAPE   C2516700   3.914   3.339   6.993  0.1776 -0.6767 -0.3754
  151SAPE   H5R16701   3.845   3.312   6.912 -1.3692 -0.0113  0.7010
  151SAPE   C2616702   3.868   3.340   7.120  0.8482  0.5230 -0.8102
  151SAPE   H6R16703   3.761   3.322   7.137  0.9665  0.0088 -0.6013
  151SAPE   C2716704   3.930   3.390   7.246 -0.5295 -1.0097 -1.1245
  151SAPE   H7R16705   4.032   3.432   7.231 -0.3117 -1.9778 -2.3621
  151SAPE   H7S16706   3.945   3.301   7.312 -1.1116  0.6774  1.3566
  151SAPE   C2816707   3.834   3.486   7.319 -0.9891  0.2318  0.2680
  151SAPE   H8R16708   3.815   3.578   7.262 -1.6466  0.5496  0.9919
  151SAPE   C2916709   3.799   3.480   7.447 -0.1256 -0.1319 -0.1789
  151SAPE   H9R16710   3.728   3.556   7.482  0.4875 -0.1271  1.0748
  151SAPE  C21016711   3.837   3.374   7.545 -0.0360 -0.8340  0.3264
  151SAPE  H10R16712   3.922   3.417   7.602 -2.5533  3.0193  1.4064
  151SAPE  H10S16713   3.857   3.278   7.494 -2.0432 -0.6023 -0.9381
  151SAPE  C21116714   3.741   3.348   7.658  0.2482 -0.3882  0.2864
  151SAPE  H11R16715   3.678   3.433   7.687 -0.0332 -0.9496  1.3618
  151SAPE  C21216716   3.730   3.235   7.734  1.0021 -0.1079  0.0209
  151SAPE  H12R16717   3.654   3.241   7.813  1.5505  1.5041  0.4514
  151SAPE  C21316718   3.809   3.102   7.719  0.6233  0.0139  0.2586
  151SAPE  H13R16719   3.891   3.110   7.792  0.0556 -1.1082  1.0253
  151SAPE  H13S16720   3.858   3.091   7.619 -2.3110  0.1925 -1.2563
  151SAPE  C21416721   3.716   2.984   7.738  0.1765  0.0430 -0.4711
  151SAPE  H14R16722   3.683   2.986   7.843 -0.5448  1.5182 -0.7071
  151SAPE  C21516723   3.683   2.877   7.661  0.0741 -0.1966 -0.1921
  151SAPE  H15R16724   3.607   2.805   7.697  0.0200 -0.0577 -0.0282
  151SAPE  C21616725   3.735   2.865   7.522 -0.0175  0.4331  0.1929
  151SAPE  H16R16726   3.701   2.773   7.468  0.2261  0.5398 -0.1433
  151SAPE  H16S16727   3.846   2.868   7.520  0.0529 -1.5648 -1.1805
  151SAPE  C21716728   3.687   2.972   7.416  0.5259  0.0587 -0.3933
  151SAPE  H17R16729   3.667   3.068   7.468 -1.6394 -0.7496  0.2786
  151SAPE  H17S16730   3.587   2.946   7.376  0.0675 -1.5544  1.7272
  151SAPE  C21816731   3.787   2.999   7.297  0.5119 -0.1658 -0.4257
  151SAPE  H18R16732   3.878   3.045   7.340 -0.1465  0.8612 -0.1096
  151SAPE  H18S16733   3.742   3.068   7.222 -1.8485 -0.5699  0.5732
  151SAPE  C21916734   3.822   2.864   7.228  0.4588  0.1998  0.4140
  151SAPE  H19R16735   3.736   2.803   7.191  1.8391 -1.5431  0.0474
  151SAPE  H19S16736   3.874   2.801   7.302  1.9743  0.1390 -0.6927
  151SAPE  C22016737   3.902   2.874   7.096 -0.0561  0.4034 -0.1125
  151SAPE  H20R16738   4.004   2.919   7.105 -0.3878  0.7740  2.1013
  151SAPE  H20S16739   3.912   2.775   7.047 -0.2932 -0.5121  1.6405
  151SAPE  H20T16740   3.852   2.948   7.030  0.5683  1.5237  0.6404
  151SAPE   C3316741   3.690   3.843   7.127 -0.9607  0.0978  0.4667
  151SAPE   H3X16742   3.747   3.747   7.124  1.5586  1.5350  1.3855
  151SAPE   H3Y16743   3.586   3.803   7.134 -1.7523  1.9052 -0.7860
  151SAPE   C3416744   3.723   3.939   7.239 -0.0947  0.4047 -0.3501
  151SAPE   H4X16745   3.632   4.003   7.251  0.5700  2.1104 -3.7550
  151SAPE   H4Y16746   3.791   4.019   7.200 -0.9893  1.0038 -0.7055
  151SAPE   C3516747   3.759   3.879   7.373 -0.7427  0.5206 -0.3676
  151SAPE   H5X16748   3.869   3.859   7.372 -1.3154 -3.1981  1.3136
  151SAPE   H5Y16749   3.711   3.781   7.390 -0.3017  0.2546 -0.6533
  151SAPE   C3616750   3.719   3.970   7.493 -0.1132 -0.3087  0.0333
  151SAPE   H6X16751   3.611   3.994   7.481  0.7744  2.2651 -3.6039
  151SAPE   H6Y16752   3.768   4.070   7.490 -1.9401  0.6762  2.1549
  151SAPE   C3716753   3.740   3.909   7.628 -0.1701  0.4593 -0.4960
  151SAPE   H7X16754   3.850   3.920   7.641 -0.1314  0.2662 -0.6564
  151SAPE   H7Y16755   3.716   3.800   7.628  2.2324 -0.1218  1.1660
  151SAPE   C3816756   3.685   3.983   7.753  0.1384 -0.1114 -0.0029
  151SAPE   H8X16757   3.575   3.983   7.745  0.0862  2.1480  0.4394
  151SAPE   H8Y16758   3.723   4.086   7.741  2.1665 -0.6959  1.1681
  151SAPE   C3916759   3.747   3.924   7.879 -0.0059  0.0233  0.4192
  151SAPE   H9X16760   3.857   3.920   7.861 -0.0467 -1.0232  0.3517
  151SAPE   H9Y16761   3.719   3.817   7.888 -1.1687  0.4156  1.3824
  151SAPE  C31016762   3.709   3.997   8.013  0.5436 -0.1680 -0.2792
  151SAPE  H10X16763   3.599   4.002   8.027  0.4608 -2.6669  0.1253
  151SAPE  H10Y16764   3.742   4.103   8.013 -0.9670  0.3144 -0.1497
  151SAPE  C31116765   3.760   3.924   8.137  0.2903 -0.7606 -0.7352
  151SAPE  H11X16766   3.869   3.925   8.117  0.2859 -0.4058 -0.7494
  151SAPE  H11Y16767   3.723   3.819   8.134 -0.6783 -0.5225  1.6991
  151SAPE  C31216768   3.734   3.996   8.271 -0.8317  0.0925 -0.1777
  151SAPE  H12X16769   3.632   3.958   8.294  0.4636 -1.5367  3.2212
  151SAPE  H12Y16770   3.735   4.105   8.250 -0.6187 -0.1525 -1.4846
  151SAPE  C31316771   3.833   3.958   8.376  0.4983 -0.1536  0.1000
  151SAPE  H13X16772   3.813   4.018   8.467 -2.7427  0.6107 -1.0352
  151SAPE  H13Y16773   3.932   3.978   8.330  0.4463  0.3903  0.2304
  151SAPE  C31416774   3.832   3.801   8.401 -0.6125  0.6175  0.3519
  151SAPE  H14X16775   3.872   3.754   8.309 -1.6792 -2.0924  1.2202
  151SAPE  H14Y16776   3.730   3.760   8.419 -0.6788  0.4052 -0.4922
  151SAPE  C31516777   3.925   3.760   8.512  0.1315  0.9445  0.3536
  151SAPE  H15X16778   3.869   3.787   8.604 -1.1059 -1.6825  0.4031
  151SAPE  H15Y16779   4.026   3.807   8.502  1.2970 -1.7651 -1.0817
  151SAPE  C31616780   3.958   3.614   8.496  0.6046  0.4315  0.3141
  151SAPE  H16X16781   4.006   3.590   8.399  0.3927  2.8760 -0.4387
  151SAPE  H16Y16782   3.868   3.550   8.513  0.4644  0.5370 -0.0281
  151SAPE  C31716783   4.065   3.579   8.602 -0.0945  0.2512 -0.0382
  151SAPE  H17X16784   4.142   3.659   8.612  1.6097 -1.5422  1.6205
  151SAPE  H17Y16785   4.124   3.493   8.565 -0.2774  0.2461 -0.3179
  151SAPE  C31816786   4.012   3.555   8.738 -0.4281 -0.4189 -0.4221
  151SAPE  H18X16787   3.930   3.480   8.733 -0.0170 -0.9197  0.2671
  151SAPE  H18Y16788   3.957   3.644   8.776 -1.7156 -2.2582  2.2278
  151SAPE  H18Z16789   4.092   3.517   8.805 -0.9231 -0.5797  0.0899
  152SAPE     N16790   6.782   1.267   5.963 -0.0698 -0.0740  0.0177
  152SAPE   HN116791   6.785   1.206   5.879  0.3071  0.3375 -0.2734
  152SAPE   HN216792   6.736   1.214   6.040 -0.9518 -0.3077 -0.6612
  152SAPE   HN316793   6.707   1.333   5.936 -2.4784 -3.2595 -1.3668
  152SAPE   C1216794   6.919   1.319   5.989  0.0092  0.4930  0.4149
  152SAPE  H12A16795   6.926   1.412   5.928 -1.6997 -0.8823 -1.9600
  152SAPE  H12B16796   6.994   1.243   5.959 -0.9857 -0.4077  0.1708
  152SAPE   C1116797   6.952   1.354   6.132 -0.8312 -0.2885 -0.5349
  152SAPE  H11A16798   7.054   1.395   6.120 -0.8829  0.7202  2.1619
  152SAPE  H11B16799   6.950   1.258   6.188 -1.0012  0.2832  0.4474
  152SAPE     P16800   6.904   1.501   6.335  0.0898  0.1927 -0.0153
  152SAPE   O1316801   7.050   1.524   6.342 -0.2766  0.1064 -0.4127
  152SAPE   O1416802   6.819   1.617   6.374 -0.1877  0.2738  0.1994
  152SAPE   O1216803   6.858   1.449   6.191  0.2002 -0.2677  0.3175
  152SAPE   O1116804   6.874   1.383   6.430 -0.4286 -0.0636  0.0391
  152SAPE    C116805   6.755   1.354   6.494 -0.5926  0.3746 -0.5517
  152SAPE    HA16806   6.669   1.380   6.429 -1.4917  1.6184  1.1016
  152SAPE    HB16807   6.735   1.246   6.511  0.6140  0.2963  0.4043
  152SAPE    C216808   6.739   1.427   6.632  0.1093  0.3421 -0.3845
  152SAPE    HS16809   6.713   1.530   6.599  2.7525  1.8805  2.0967
  152SAPE   O2116810   6.861   1.430   6.705  0.7203  0.2284 -0.0778
  152SAPE   C2116811   6.868   1.545   6.771 -0.1759  0.5157 -0.2601
  152SAPE   O2216812   6.786   1.633   6.771 -0.0169  0.3079  0.8584
  152SAPE   C2216813   6.989   1.545   6.862  0.0613 -0.2878 -0.0651
  152SAPE   H2R16814   7.042   1.450   6.841  0.8903 -0.4631  2.6365
  152SAPE   H2S16815   7.055   1.632   6.839  1.4539 -1.2714  0.1449
  152SAPE    C316816   6.630   1.356   6.718 -0.1607  0.2205 -0.1279
  152SAPE    HX16817   6.557   1.323   6.640  0.2456  1.1997 -0.9383
  152SAPE    HY16818   6.580   1.429   6.785  2.0909  1.7940 -0.1233
  152SAPE   O3116819   6.672   1.229   6.778 -0.6141  0.2470 -0.0260
  152SAPE   C3116820   6.710   1.234   6.901  0.1547 -0.3003 -0.3650
  152SAPE   O3216821   6.694   1.322   6.982 -0.0446  0.4648  0.1726
  152SAPE   C3216822   6.772   1.095   6.932 -0.2294  0.2410  0.2651
  152SAPE   H2X16823   6.869   1.081   6.879  0.4013  1.0789  1.1722
  152SAPE   H2Y16824   6.710   1.013   6.889 -0.0401  1.0149 -1.4978
  152SAPE   C2316825   6.940   1.563   7.007 -0.4270 -1.0725 -0.4740
  152SAPE   H3R16826   6.879   1.471   7.021  0.2004 -1.7269 -1.8679
  152SAPE   H3S16827   6.902   1.665   7.027  1.2964 -0.4826 -0.1962
  152SAPE   C2416828   7.060   1.561   7.106  0.2898 -0.0262 -0.1475
  152SAPE   H4R16829   7.139   1.638   7.087  1.2119 -0.6742  0.9774
  152SAPE   H4S16830   7.111   1.462   7.100  2.6358  0.9977  1.8737
  152SAPE   C2516831   7.019   1.582   7.246 -0.1473  0.6691 -1.2525
  152SAPE   H5R16832   7.025   1.685   7.285  2.0118  0.7279 -1.6636
  152SAPE   C2616833   6.985   1.492   7.338  0.2861  0.6694 -0.2844
  152SAPE   H6R16834   6.968   1.523   7.443 -0.6527  0.5555 -0.3997
  152SAPE   C2716835   6.953   1.348   7.305 -0.3107 -0.3620  0.4787
  152SAPE   H7R16836   7.041   1.280   7.305  0.0553  0.1110  0.5087
  152SAPE   H7S16837   6.913   1.342   7.201  0.4497 -0.4873  0.1903
  152SAPE   C2816838   6.846   1.299   7.389  0.1820 -0.3115 -0.4896
  152SAPE   H8R16839   6.755   1.361   7.388  0.6547  0.3839 -1.3699
  152SAPE   C2916840   6.854   1.212   7.493 -0.8551  0.2968  0.4284
  152SAPE   H9R16841   6.763   1.197   7.554  0.9834 -0.4101  3.1012
  152SAPE  C21016842   6.964   1.125   7.534  1.3341 -0.0673 -0.0145
  152SAPE  H10R16843   7.047   1.122   7.460  1.0778 -2.1984 -0.2450
  152SAPE  H10S16844   6.926   1.020   7.535  0.8647  0.0581 -2.1711
  152SAPE  C21116845   7.027   1.164   7.667  0.0023 -1.2421 -0.1005
  152SAPE  H11R16846   7.093   1.249   7.642 -1.7109  0.7597  1.9217
  152SAPE  C21216847   7.017   1.122   7.798 -0.0079 -0.6928  0.2055
  152SAPE  H12R16848   7.075   1.178   7.874  1.0067  0.2556 -1.2466
  152SAPE  C21316849   6.921   1.014   7.846 -0.4098  0.2768  0.3169
  152SAPE  H13R16850   6.833   0.998   7.781 -2.6960  0.2620  3.3133
  152SAPE  H13S16851   6.886   1.055   7.943  0.5377  0.1257  0.7289
  152SAPE  C21416852   6.980   0.880   7.870 -0.0349 -0.1346 -0.0999
  152SAPE  H14R16853   7.088   0.867   7.852  0.0983  0.5788  0.1804
  152SAPE  C21516854   6.907   0.771   7.902 -0.2909  0.3739  0.6902
  152SAPE  H15R16855   6.958   0.675   7.912  2.2391  1.7329  1.3097
  152SAPE  C21616856   6.755   0.771   7.921 -0.2862 -0.0360  0.0455
  152SAPE  H16R16857   6.699   0.724   7.838  0.5574  1.0217 -1.1378
  152SAPE  H16S16858   6.711   0.873   7.926 -3.7047 -1.4449  0.2693
  152SAPE  C21716859   6.716   0.694   8.043 -0.3886  0.2072 -0.4608
  152SAPE  H17R16860   6.740   0.759   8.130  0.6729 -1.3688  0.4480
  152SAPE  H17S16861   6.786   0.607   8.043  1.5472  1.7182 -2.0606
  152SAPE  C21816862   6.570   0.646   8.070 -0.4862 -0.2760  0.0019
  152SAPE  H18R16863   6.564   0.597   8.170  0.6704  1.1070  0.7697
  152SAPE  H18S16864   6.540   0.573   7.992 -1.0787 -0.7788  0.6884
  152SAPE  C21916865   6.472   0.763   8.064 -0.0427 -0.2449 -0.3013
  152SAPE  H19R16866   6.473   0.796   7.958  0.3799 -1.5091 -0.6986
  152SAPE  H19S16867   6.518   0.840   8.130 -0.6857  0.5245 -0.7449
  152SAPE  C22016868   6.332   0.725   8.106  0.8260  0.2488 -0.0528
  152SAPE  H20R16869   6.289   0.652   8.034 -0.7359  1.1034 -0.0181
  152SAPE  H20S16870   6.273   0.818   8.124  2.2332  1.4573 -1.6114
  152SAPE  H20T16871   6.324   0.671   8.203  0.4953  0.0215 -0.2066
  152SAPE   C3316872   6.806   1.071   7.083 -0.1463  0.4345  0.3865
  152SAPE   H3X16873   6.726   1.123   7.140 -2.4494  0.7396 -2.9202
  152SAPE   H3Y16874   6.903   1.122   7.103 -0.0326 -0.3487  1.8510
  152SAPE   C3416875   6.816   0.922   7.119  0.1948  0.2274  0.1794
  152SAPE   H4X16876   6.913   0.882   7.084 -0.2511 -1.8990  1.2817
  152SAPE   H4Y16877   6.734   0.867   7.068  0.0258  0.4754  0.1841
  152SAPE   C3516878   6.810   0.893   7.271  0.0934 -0.1804  0.6751
  152SAPE   H5X16879   6.728   0.955   7.313 -1.1449 -1.7905  0.6624
  152SAPE   H5Y16880   6.900   0.951   7.301  0.8496 -0.9768 -0.0173
  152SAPE   C3616881   6.809   0.741   7.303 -0.3878 -0.2644 -1.2568
  152SAPE   H6X16882   6.894   0.702   7.244  2.0740  0.3500  1.7359
  152SAPE   H6Y16883   6.714   0.699   7.265  0.4620 -1.5462 -1.9728
  152SAPE   C3716884   6.842   0.722   7.460 -0.0237 -0.6048 -0.2794
  152SAPE   H7X16885   6.760   0.783   7.503  1.5511  1.4675 -0.0994
  152SAPE   H7Y16886   6.941   0.762   7.493  0.7977 -2.8899  0.1428
  152SAPE   C3816887   6.842   0.578   7.496  0.0661 -0.0614  0.1957
  152SAPE   H8X16888   6.908   0.529   7.421  1.1952  2.3240 -0.4263
  152SAPE   H8Y16889   6.733   0.562   7.481  0.0656 -1.1130  1.2617
  152SAPE   C3916890   6.871   0.535   7.640  0.8280  0.3510 -0.1484
  152SAPE   H9X16891   6.785   0.566   7.703 -0.2331 -0.0800 -1.3615
  152SAPE   H9Y16892   6.955   0.597   7.677  0.3845  0.1219  1.2599
  152SAPE  C31016893   6.875   0.384   7.668 -0.2718 -0.2252 -0.0009
  152SAPE  H10X16894   6.967   0.341   7.624  0.3813 -0.8703  1.9437
  152SAPE  H10Y16895   6.791   0.348   7.605  0.4557  0.7567 -1.5722
  152SAPE  C31116896   6.872   0.336   7.811 -0.3280  0.0201  0.3908
  152SAPE  H11X16897   6.778   0.365   7.864  0.7248  1.1273  1.6789
  152SAPE  H11Y16898   6.956   0.382   7.867 -0.9396 -1.0060  2.2006
  152SAPE  C31216899   6.881   0.183   7.821 -0.4706  0.9523 -0.6798
  152SAPE  H12X16900   6.972   0.155   7.764 -0.1772 -0.7836  0.6075
  152SAPE  H12Y16901   6.804   0.131   7.761 -0.3625  0.0857 -0.0729
  152SAPE  C31316902   6.871   0.131   7.968  0.3831  0.1959 -0.5897
  152SAPE  H13X16903   6.954   0.169   8.031  0.4497  0.3538 -0.7723
  152SAPE  H13Y16904   6.886   0.022   7.953  0.7338  0.4212 -1.9838
  152SAPE  C31416905   6.741   0.171   8.043 -0.4616 -0.6934  0.2827
  152SAPE  H14X16906   6.651   0.154   7.981 -0.5350  1.1259 -0.1346
  152SAPE  H14Y16907   6.736   0.271   8.091 -3.7806 -1.1499  0.9948
  152SAPE  C31516908   6.715   0.071   8.160 -0.5800  0.3506 -0.5703
  152SAPE  H15X16909   6.701  -0.030   8.118  1.0301 -0.0907 -0.0866
  152SAPE  H15Y16910   6.625   0.097   8.220 -0.4438  0.5523 -0.4527
  152SAPE  C31616911   6.827   0.063   8.267 -0.0549  1.0105  0.2428
  152SAPE  H16X16912   6.873   0.159   8.300  0.1938  1.6613 -1.9067
  152SAPE  H16Y16913   6.910  -0.000   8.231  2.3881  1.7715  4.2481
  152SAPE  C31716914   6.769   0.006   8.393 -0.0061 -0.1935 -0.6296
  152SAPE  H17X16915   6.711  -0.086   8.375 -0.9937  0.1158  0.9141
  152SAPE  H17Y16916   6.685   0.071   8.426 -2.5968 -3.6353 -0.2593
  152SAPE  C31816917   6.864  -0.011   8.507  0.1517  0.2994 -0.0348
  152SAPE  H18X16918   6.825  -0.100   8.562  0.6003 -0.2457 -0.5908
  152SAPE  H18Y16919   6.874   0.079   8.571 -0.8043  2.2142 -2.4938
  152SAPE  H18Z16920   6.963  -0.040   8.465  0.1631  0.5429 -0.1791
  153SAPE     N16921   3.374   1.000   6.152  0.5748 -0.2243  0.4646
  153SAPE   HN116922   3.385   1.097   6.116 -1.9872  0.1729  0.6575
  153SAPE   HN216923   3.442   0.932   6.111 -0.4181 -0.7632 -0.3329
  153SAPE   HN316924   3.284   0.958   6.122  0.7804  0.8766 -1.8583
  153SAPE   C1216925   3.375   0.984   6.304  0.1055 -0.1580  0.3526
  153SAPE  H12A16926   3.393   0.877   6.331 -1.5112 -0.3659  0.6294
  153SAPE  H12B16927   3.286   1.039   6.340  1.6769  0.9575  2.7061
  153SAPE   C1116928   3.497   1.058   6.369  0.1954  0.4334  0.8676
  153SAPE  H11A16929   3.486   1.065   6.479 -0.7274 -1.9949  0.9520
  153SAPE  H11B16930   3.495   1.162   6.327  1.4647 -0.3238 -1.1759
  153SAPE     P16931   3.742   1.076   6.297 -0.3320 -0.0606  0.0643
  153SAPE   O1316932   3.854   0.986   6.283 -0.6523 -0.6129  0.1161
  153SAPE   O1416933   3.721   1.155   6.175  0.3912 -0.1096  0.5164
  153SAPE   O1216934   3.624   0.995   6.344  0.4356 -0.1187  0.2935
  153SAPE   O1116935   3.775   1.181   6.406  0.2094 -0.1357  0.1091
  153SAPE    C116936   3.864   1.173   6.515 -0.5614  0.1659  0.3190
  153SAPE    HA16937   3.938   1.092   6.497  2.0362  2.4808  0.2413
  153SAPE    HB16938   3.914   1.273   6.516  1.5105 -0.8348 -0.1776
  153SAPE    C216939   3.796   1.156   6.661  0.7834  0.0075 -0.8511
  153SAPE    HS16940   3.869   1.146   6.744 -0.6469 -0.4203  0.3859
  153SAPE   O2116941   3.696   1.052   6.673  0.3146 -0.4903  0.9809
  153SAPE   C2116942   3.737   0.932   6.661  0.4194 -0.0188 -0.9090
  153SAPE   O2216943   3.859   0.906   6.650 -0.1761  0.5129  0.1058
  153SAPE   C2216944   3.622   0.833   6.655 -0.5388 -0.4492 -0.2984
  153SAPE   H2R16945   3.531   0.881   6.697 -0.2300 -1.0784  1.1427
  153SAPE   H2S16946   3.605   0.811   6.548  0.3046 -0.8107 -0.3648
  153SAPE    C316947   3.728   1.290   6.707 -0.5372  0.2908  0.4982
  153SAPE    HX16948   3.660   1.312   6.621  1.3703 -2.5741 -1.8644
  153SAPE    HY16949   3.801   1.373   6.706  1.2954 -1.2916  0.8347
  153SAPE   O3116950   3.652   1.274   6.828  0.8512  0.3755  0.2909
  153SAPE   C3116951   3.721   1.289   6.944  0.7624 -0.6431  0.3415
  153SAPE   O3216952   3.833   1.332   6.949 -1.0193  0.2592  0.5413
  153SAPE   C3216953   3.635   1.230   7.063 -0.1948 -0.4165  0.0464
  153SAPE   H2X16954   3.614   1.129   7.023 -3.3015  0.9867 -2.1048
  153SAPE   H2Y16955   3.545   1.295   7.069 -1.1984 -1.8610  0.8368
  153SAPE   C2316956   3.646   0.709   6.742  0.7248 -0.3624  0.1909
  153SAPE   H3R16957   3.745   0.661   6.721  0.9795 -0.1366  0.8623
  153SAPE   H3S16958   3.576   0.628   6.711 -0.8514  1.3945 -0.8754
  153SAPE   C2416959   3.636   0.742   6.892  0.0046  0.8057 -0.3461
  153SAPE   H4R16960   3.583   0.659   6.944  2.3919 -0.6208 -0.0983
  153SAPE   H4S16961   3.574   0.832   6.910 -2.4965 -0.9440  0.0608
  153SAPE   C2516962   3.766   0.767   6.959 -0.2118 -0.9680 -0.5394
  153SAPE   H5R16963   3.843   0.806   6.891  0.8286  1.5727  1.9941
  153SAPE   C2616964   3.802   0.733   7.085 -0.0760  0.1438 -0.5993
  153SAPE   H6R16965   3.905   0.758   7.113  0.0308  2.4671 -2.7941
  153SAPE   C2716966   3.711   0.671   7.181 -0.2963  0.7889  1.0191
  153SAPE   H7R16967   3.782   0.611   7.243 -0.7376 -1.0831 -0.2320
  153SAPE   H7S16968   3.654   0.599   7.118  2.7788  1.8893 -3.3030
  153SAPE   C2816969   3.606   0.764   7.252 -0.1856  1.0845  0.5340
  153SAPE   H8R16970   3.550   0.829   7.183 -1.9747 -0.1437  0.7746
  153SAPE   C2916971   3.593   0.776   7.388  0.2193  0.3770  0.7560
  153SAPE   H9R16972   3.521   0.852   7.424 -1.2149 -0.6156  0.0093
  153SAPE  C21016973   3.689   0.706   7.484  0.0781  0.4588 -0.5614
  153SAPE  H10R16974   3.665   0.751   7.583  0.6567 -0.7403  0.1330
  153SAPE  H10S16975   3.793   0.737   7.457  0.1755  0.1802 -0.5036
  153SAPE  C21116976   3.682   0.561   7.499  0.3020  0.4084  0.0786
  153SAPE  H11R16977   3.630   0.506   7.419 -0.2294 -0.4547  1.0049
  153SAPE  C21216978   3.727   0.492   7.604 -0.4251  0.2758  0.2527
  153SAPE  H12R16979   3.718   0.383   7.616  2.0612  0.2689  2.3500
  153SAPE  C21316980   3.797   0.554   7.724  0.0680  0.4935  0.1158
  153SAPE  H13R16981   3.724   0.546   7.808 -0.6099  0.9020 -0.4319
  153SAPE  H13S16982   3.817   0.662   7.711 -0.2592  0.7877  1.9082
  153SAPE  C21416983   3.918   0.476   7.743 -0.7714 -0.0184 -0.0812
  153SAPE  H14R16984   3.990   0.511   7.668 -0.1472 -0.1044  0.4815
  153SAPE  C21516985   3.932   0.360   7.808 -0.5605  0.9644  0.3171
  153SAPE  H15R16986   4.030   0.310   7.814 -1.5339 -0.8532  1.4362
  153SAPE  C21616987   3.824   0.294   7.888 -0.1329 -0.5781 -0.1274
  153SAPE  H16R16988   3.812   0.186   7.866  0.6258 -1.0082  1.4924
  153SAPE  H16S16989   3.725   0.336   7.861  0.2335 -0.3089 -1.0708
  153SAPE  C21716990   3.848   0.316   8.036  0.4864 -0.3208  0.1633
  153SAPE  H17R16991   3.948   0.287   8.075  0.7253 -0.1527 -0.3307
  153SAPE  H17S16992   3.792   0.237   8.090 -1.2408  0.7743  0.0020
  153SAPE  C21816993   3.803   0.454   8.090  0.1881 -0.4606  0.0154
  153SAPE  H18R16994   3.711   0.496   8.043 -1.8074 -3.1178  1.3794
  153SAPE  H18S16995   3.884   0.527   8.069 -0.2134  1.2638  4.0114
  153SAPE  C21916996   3.779   0.438   8.236 -0.5864  0.1605  0.1729
  153SAPE  H19R16997   3.870   0.396   8.284  0.7493  1.7685 -0.9155
  153SAPE  H19S16998   3.696   0.365   8.250 -1.0967  0.5178 -0.8885
  153SAPE  C22016999   3.737   0.563   8.306 -0.2558 -0.9542  0.0182
  153SAPE  H20R17000   3.784   0.656   8.267 -3.0110  0.4075 -0.1771
  153SAPE  H20S17001   3.769   0.555   8.412  2.0481 -0.8611 -0.6390
  153SAPE  H20T17002   3.626   0.575   8.303 -0.2132  1.1403  3.3786
  153SAPE   C3317003   3.702   1.211   7.195 -0.2997 -0.2301 -0.5440
  153SAPE   H3X17004   3.774   1.294   7.213  0.7436 -1.1608 -0.4014
  153SAPE   H3Y17005   3.751   1.112   7.198 -2.2367 -1.2419 -1.2769
  153SAPE   C3417006   3.602   1.232   7.314  0.0519 -0.5550  0.0741
  153SAPE   H4X17007   3.524   1.157   7.289  1.1534 -1.4142 -0.8612
  153SAPE   H4Y17008   3.555   1.333   7.306 -2.2233 -1.4164  1.8817
  153SAPE   C3517009   3.669   1.203   7.446  0.3117  0.3840 -0.2126
  153SAPE   H5X17010   3.757   1.269   7.454 -0.0243  0.7339  0.6425
  153SAPE   H5Y17011   3.714   1.101   7.445  0.9970  0.6790 -2.3336
  153SAPE   C3617012   3.571   1.232   7.561  0.3723 -1.1606 -0.3054
  153SAPE   H6X17013   3.501   1.147   7.548  0.6679 -1.6785  1.3243
  153SAPE   H6Y17014   3.524   1.331   7.539 -2.5063 -1.9012  2.0975
  153SAPE   C3717015   3.634   1.236   7.702  0.2474  0.4211  0.0982
  153SAPE   H7X17016   3.718   1.308   7.701  0.5907  0.0096 -0.8758
  153SAPE   H7Y17017   3.684   1.138   7.720  4.3048  2.4211  0.2079
  153SAPE   C3817018   3.536   1.244   7.816  0.4365 -0.1283  0.2902
  153SAPE   H8X17019   3.430   1.218   7.798  0.2841  0.2990  0.5707
  153SAPE   H8Y17020   3.545   1.347   7.856 -0.3864  0.5858 -1.3108
  153SAPE   C3917021   3.582   1.141   7.926 -0.5848  0.3079 -0.6587
  153SAPE   H9X17022   3.691   1.148   7.945 -0.5373  1.0686 -1.1932
  153SAPE   H9Y17023   3.546   1.041   7.892 -1.6490  0.5566 -0.2946
  153SAPE  C31017024   3.514   1.154   8.066  0.1694 -0.7494 -0.0022
  153SAPE  H10X17025   3.407   1.182   8.054  0.5360  0.9592  0.4970
  153SAPE  H10Y17026   3.549   1.248   8.114  0.9587 -1.1684  0.2494
  153SAPE  C31117027   3.550   1.037   8.154 -0.9963  0.2378 -0.1851
  153SAPE  H11X17028   3.661   1.035   8.155 -0.9813  1.0296  0.0931
  153SAPE  H11Y17029   3.509   0.944   8.108 -0.6883  0.1756 -0.3318
  153SAPE  C31217030   3.487   1.044   8.295  0.0800 -0.0667 -1.5497
  153SAPE  H12X17031   3.526   1.136   8.344  1.4319 -0.7513 -1.3070
  153SAPE  H12Y17032   3.525   0.959   8.356  1.1989  1.5130  0.0026
  153SAPE  C31317033   3.333   1.052   8.285  0.3326  0.2832  0.3377
  153SAPE  H13X17034   3.296   0.967   8.224  0.9301  0.8170 -0.7867
  153SAPE  H13Y17035   3.296   1.146   8.237 -1.6861 -0.4272  0.4610
  153SAPE  C31417036   3.277   1.026   8.419  0.2843 -0.0422 -0.5339
  153SAPE  H14X17037   3.294   1.107   8.493 -1.3264 -1.4472  1.4576
  153SAPE  H14Y17038   3.325   0.934   8.460  0.8497  0.6056  0.2860
  153SAPE  C31517039   3.127   0.989   8.416  0.1544  0.2089  1.0815
  153SAPE  H15X17040   3.119   0.899   8.351 -0.3747  0.9756  0.0788
  153SAPE  H15Y17041   3.066   1.070   8.370 -0.6597 -0.2295  1.3872
  153SAPE  C31617042   3.072   0.951   8.555  0.8864 -0.4200  0.0127
  153SAPE  H16X17043   3.085   1.038   8.622  1.2728 -0.5626  0.1257
  153SAPE  H16Y17044   3.144   0.883   8.605  0.6359 -0.2605  0.5897
  153SAPE  C31717045   2.942   0.880   8.543 -0.1375 -0.3926 -0.2604
  153SAPE  H17X17046   2.956   0.787   8.484  0.1189  0.3001 -1.3078
  153SAPE  H17Y17047   2.863   0.933   8.484 -0.5443 -0.5421  0.1513
  153SAPE  C31817048   2.888   0.835   8.677  0.6134 -0.3222  0.2953
  153SAPE  H18X17049   2.918   0.735   8.715  0.6368  0.7840  3.3314
  153SAPE  H18Y17050   2.783   0.808   8.654  1.4692 -2.1033 -1.7340
  153SAPE  H18Z17051   2.896   0.910   8.759  0.7920  0.4865 -0.4594
  154SAPE     N17052   2.347   0.334   6.283 -0.3865  0.1616 -0.3071
  154SAPE   HN117053   2.427   0.399   6.276  1.8165 -1.8882  4.1000
  154SAPE   HN217054   2.380   0.240   6.312  0.9045  0.7423  0.1189
  154SAPE   HN317055   2.309   0.329   6.186 -1.5462 -0.3882  0.1654
  154SAPE   C1217056   2.243   0.393   6.375  0.4257  0.4167 -0.2862
  154SAPE  H12A17057   2.290   0.401   6.475  0.3159  2.2018 -0.3656
  154SAPE  H12B17058   2.166   0.314   6.387  1.1392 -0.3021 -0.4396
  154SAPE   C1117059   2.192   0.529   6.310  0.6303 -0.1745  0.0135
  154SAPE  H11A17060   2.276   0.601   6.313  0.1389  0.5565 -2.7868
  154SAPE  H11B17061   2.110   0.573   6.370  0.6467  1.0110 -0.8149
  154SAPE     P17062   2.014   0.494   6.114 -0.0509 -0.6733 -0.2702
  154SAPE   O1317063   1.952   0.628   6.116  0.2840  0.1533  0.0512
  154SAPE   O1417064   2.014   0.414   5.987 -0.4770 -0.6469 -0.3994
  154SAPE   O1217065   2.162   0.500   6.170 -0.4225 -0.2103  0.0605
  154SAPE   O1117066   1.932   0.406   6.214 -0.3885 -0.0650 -0.2142
  154SAPE    C117067   1.821   0.444   6.287  0.6141  0.2610  0.5173
  154SAPE    HA17068   1.744   0.497   6.226 -0.7648 -1.0727  1.0587
  154SAPE    HB17069   1.782   0.349   6.330  1.0710  0.6388  1.7804
  154SAPE    C217070   1.848   0.534   6.414  0.5463  0.2710 -0.4100
  154SAPE    HS17071   1.902   0.624   6.376  2.5354  0.1520  2.0274
  154SAPE   O2117072   1.931   0.452   6.500  0.1567 -0.2388 -0.1349
  154SAPE   C2117073   1.995   0.525   6.594 -0.5486 -0.3405  0.1202
  154SAPE   O2217074   2.002   0.644   6.602  0.4228  0.3927  0.1163
  154SAPE   C2217075   2.070   0.425   6.689 -0.0159 -0.2234 -0.8350
  154SAPE   H2R17076   2.003   0.338   6.708 -0.3718  0.8717  3.3992
  154SAPE   H2S17077   2.156   0.375   6.639  0.9401 -0.7105  1.2524
  154SAPE    C317078   1.710   0.589   6.486  0.3526 -0.3516  0.7921
  154SAPE    HX17079   1.662   0.641   6.400 -0.7266  0.4278  1.8475
  154SAPE    HY17080   1.732   0.671   6.559 -0.0188  1.2422 -0.8368
  154SAPE   O3117081   1.634   0.476   6.534  0.5283 -0.7111 -0.0467
  154SAPE   C3117082   1.631   0.433   6.665 -0.8329  0.1770 -0.6438
  154SAPE   O3217083   1.705   0.470   6.756 -0.0572  0.0891 -0.0800
  154SAPE   C3217084   1.532   0.317   6.692 -1.1452  0.1599  0.3610
  154SAPE   H2X17085   1.527   0.256   6.599 -0.6302 -1.3509  1.3097
  154SAPE   H2Y17086   1.436   0.368   6.712 -1.0831  0.8520 -0.9833
  154SAPE   C2317087   2.115   0.485   6.823 -0.1320 -0.4596 -0.9735
  154SAPE   H3R17088   2.156   0.587   6.803  0.6908 -1.0332 -2.3111
  154SAPE   H3S17089   2.205   0.427   6.854 -1.4553 -1.1362  1.7500
  154SAPE   C2417090   1.997   0.493   6.926 -0.3129  0.1301 -0.2044
  154SAPE   H4R17091   1.912   0.528   6.864  0.1567  0.1870 -0.8195
  154SAPE   H4S17092   2.015   0.578   6.995 -1.4365  0.4234 -0.2715
  154SAPE   C2517093   1.965   0.360   7.000 -0.0661  0.0707  0.1928
  154SAPE   H5R17094   1.892   0.298   6.947  1.3963 -0.7845 -0.8511
  154SAPE   C2617095   1.987   0.341   7.126  0.2285  0.1280 -0.3482
  154SAPE   H6R17096   1.954   0.245   7.169  1.2407 -1.0975 -2.2229
  154SAPE   C2717097   2.065   0.433   7.220  0.1427 -0.0821  0.5516
  154SAPE   H7R17098   2.124   0.504   7.158 -0.1996 -0.6227 -0.4049
  154SAPE   H7S17099   2.143   0.371   7.270 -0.5338  0.6060  2.4761
  154SAPE   C2817100   1.984   0.515   7.310 -0.4356 -0.4378 -0.1445
  154SAPE   H8R17101   1.919   0.586   7.258 -0.6012 -0.4006  0.1105
  154SAPE   C2917102   1.964   0.493   7.438 -0.0557 -0.0976 -0.5512
  154SAPE   H9R17103   1.882   0.549   7.486 -2.9683 -2.5058 -2.5105
  154SAPE  C21017104   2.035   0.383   7.519 -0.0752  0.5902  0.0877
  154SAPE  H10R17105   2.089   0.420   7.609 -0.4507 -2.1042  1.4469
  154SAPE  H10S17106   2.113   0.329   7.462  0.4566 -1.9985  3.1311
  154SAPE  C21117107   1.935   0.279   7.572  0.3865 -0.2909 -0.9187
  154SAPE  H11R17108   1.907   0.198   7.503  0.9513 -1.3206  0.0405
  154SAPE  C21217109   1.872   0.281   7.695 -0.3976  0.1855  0.4389
  154SAPE  H12R17110   1.831   0.184   7.726 -0.2529  0.0012  0.0677
  154SAPE  C21317111   1.902   0.384   7.804 -0.1954 -0.2225  0.4571
  154SAPE  H13R17112   1.986   0.452   7.777  0.0985 -0.3444  1.0703
  154SAPE  H13S17113   1.924   0.326   7.896 -2.5783 -3.3723 -0.8469
  154SAPE  C21417114   1.770   0.465   7.831  0.1350  0.0072  0.4073
  154SAPE  H14R17115   1.684   0.442   7.767  0.7759 -0.6192 -0.2441
  154SAPE  C21517116   1.744   0.556   7.927  0.5077 -0.0933 -0.2189
  154SAPE  H15R17117   1.639   0.586   7.935  0.3568 -1.0255  1.7293
  154SAPE  C21617118   1.847   0.595   8.032 -0.2354 -0.1486  0.0278
  154SAPE  H16R17119   1.838   0.703   8.057 -0.2264  0.7217 -3.4425
  154SAPE  H16S17120   1.944   0.566   7.987  0.2276  1.6399 -0.1303
  154SAPE  C21717121   1.816   0.512   8.154 -0.3784  0.3295 -0.7871
  154SAPE  H17R17122   1.777   0.412   8.127 -3.1254  0.9157  0.7745
  154SAPE  H17S17123   1.729   0.562   8.202 -2.6995 -3.4708 -0.8840
  154SAPE  C21817124   1.934   0.508   8.257  0.1152  0.1205  0.0331
  154SAPE  H18R17125   1.977   0.611   8.257 -1.2076  0.7121  1.7142
  154SAPE  H18S17126   2.010   0.444   8.209 -0.4559  0.2344 -1.0305
  154SAPE  C21917127   1.901   0.475   8.407 -0.4141 -0.3236  0.7299
  154SAPE  H19R17128   1.826   0.393   8.400  0.6292 -1.2073 -0.2925
  154SAPE  H19S17129   1.859   0.566   8.455  2.7825  1.1206  0.9105
  154SAPE  C22017130   2.029   0.432   8.484  0.7751 -0.8091  0.1272
  154SAPE  H20R17131   2.107   0.511   8.489  0.2965 -0.0815 -2.9772
  154SAPE  H20S17132   2.071   0.342   8.434  0.0861 -1.5947  0.9460
  154SAPE  H20T17133   2.011   0.412   8.592 -0.5480  0.2891  0.1173
  154SAPE   C3317134   1.579   0.239   6.814  0.0854 -0.5532 -0.1278
  154SAPE   H3X17135   1.687   0.238   6.840 -0.5367 -0.2522  2.6325
  154SAPE   H3Y17136   1.552   0.132   6.808  1.6461 -1.0411  1.2338
  154SAPE   C3417137   1.501   0.275   6.946 -0.5352  0.4422  0.1370
  154SAPE   H4X17138   1.397   0.241   6.929  0.0487 -1.5267  0.3442
  154SAPE   H4Y17139   1.495   0.386   6.953 -0.7770  0.3306  2.1042
  154SAPE   C3517140   1.556   0.210   7.068  0.8190 -0.1830  0.4817
  154SAPE   H5X17141   1.658   0.251   7.085  0.5758  1.3643 -1.6756
  154SAPE   H5Y17142   1.557   0.101   7.049 -2.8812 -0.3822  1.1235
  154SAPE   C3617143   1.475   0.244   7.193 -0.3809 -0.6011 -0.2591
  154SAPE   H6X17144   1.379   0.193   7.172  0.1745 -1.0761 -1.6740
  154SAPE   H6Y17145   1.469   0.355   7.196  0.9967 -0.5355  0.0786
  154SAPE   C3717146   1.526   0.208   7.337  0.1987  0.8806 -0.2575
  154SAPE   H7X17147   1.618   0.261   7.370 -0.1574  1.8794 -0.8449
  154SAPE   H7Y17148   1.545   0.099   7.335 -2.0773  0.4459  0.5485
  154SAPE   C3817149   1.415   0.244   7.438 -0.3364 -0.2889  0.5510
  154SAPE   H8X17150   1.315   0.203   7.416 -0.5488 -0.0824  1.1255
  154SAPE   H8Y17151   1.411   0.353   7.416 -1.3340 -0.9195 -2.6398
  154SAPE   C3917152   1.449   0.214   7.586 -0.2773 -0.3452  0.2866
  154SAPE   H9X17153   1.560   0.209   7.594 -0.2694  1.6057  1.9091
  154SAPE   H9Y17154   1.410   0.114   7.615 -0.8649  0.0062  0.6976
  154SAPE  C31017155   1.403   0.328   7.679 -0.8032  0.4995  0.6374
  154SAPE  H10X17156   1.302   0.362   7.646 -0.4178  1.5692  0.5624
  154SAPE  H10Y17157   1.471   0.411   7.650  1.9600 -1.4886  1.2423
  154SAPE  C31117158   1.412   0.294   7.820  0.1648  0.1890 -0.0620
  154SAPE  H11X17159   1.517   0.263   7.837 -0.4336 -2.9938 -1.7158
  154SAPE  H11Y17160   1.343   0.208   7.833  1.4292 -0.8841 -0.3371
  154SAPE  C31217161   1.365   0.407   7.911 -0.8351 -0.2570  0.4981
  154SAPE  H12X17162   1.268   0.447   7.876 -0.5905  0.2978  0.4475
  154SAPE  H12Y17163   1.441   0.487   7.906 -0.5384 -0.5213  0.7050
  154SAPE  C31317164   1.356   0.361   8.054 -0.9436 -0.0720 -0.3501
  154SAPE  H13X17165   1.292   0.271   8.068 -2.7639  1.2525  0.0839
  154SAPE  H13Y17166   1.289   0.429   8.112 -0.1236  1.9836 -1.7580
  154SAPE  C31417167   1.487   0.350   8.120  0.4867 -0.1262 -0.1730
  154SAPE  H14X17168   1.560   0.429   8.093  0.1720  0.2440  0.0522
  154SAPE  H14Y17169   1.525   0.251   8.085 -1.0848 -0.7440 -0.1774
  154SAPE  C31517170   1.468   0.333   8.274  0.1153 -0.2952 -0.6299
  154SAPE  H15X17171   1.557   0.285   8.320  0.9628  0.2709 -1.6579
  154SAPE  H15Y17172   1.395   0.253   8.300 -0.6248 -0.7096 -3.7751
  154SAPE  C31617173   1.453   0.467   8.342 -1.1612 -0.6953  0.3948
  154SAPE  H16X17174   1.382   0.521   8.276 -1.9008 -0.8514  1.0547
  154SAPE  H16Y17175   1.554   0.511   8.325 -1.4142 -0.7617 -1.4026
  154SAPE  C31717176   1.415   0.463   8.494  0.5222 -0.0877  0.5398
  154SAPE  H17X17177   1.486   0.390   8.539  0.2115 -0.3095  0.6684
  154SAPE  H17Y17178   1.319   0.409   8.506 -1.1315  2.8575  1.1658
  154SAPE  C31817179   1.405   0.594   8.567 -0.2305  0.5366 -0.0676
  154SAPE  H18X17180   1.394   0.581   8.677  1.9545 -0.6392  0.0356
  154SAPE  H18Y17181   1.317   0.649   8.526  0.0573  1.4015  0.4489
  154SAPE  H18Z17182   1.498   0.654   8.555  0.3792 -0.7807 -1.9857
  155SAPE     N17183   2.050   1.388   6.392  0.1277 -0.3378 -0.2778
  155SAPE   HN117184   2.131   1.452   6.401  0.5129 -0.8868  0.2113
  155SAPE   HN217185   2.105   1.312   6.346  1.0668  0.2883 -0.1968
  155SAPE   HN317186   1.973   1.418   6.328  0.0479 -3.3006 -1.6575
  155SAPE   C1217187   1.983   1.341   6.518  0.0425  0.0081 -0.0719
  155SAPE  H12A17188   1.952   1.429   6.578 -1.7967 -1.0993  0.6271
  155SAPE  H12B17189   2.065   1.303   6.584  0.4451 -0.3066 -0.7427
  155SAPE   C1117190   1.870   1.237   6.500  0.2102 -0.1307 -0.1197
  155SAPE  H11A17191   1.842   1.189   6.596 -1.2752  2.8533  0.9920
  155SAPE  H11B17192   1.900   1.152   6.435  0.2710 -0.5463  0.4483
  155SAPE     P17193   1.615   1.269   6.462  0.4834  0.0540 -0.6760
  155SAPE   O1317194   1.541   1.334   6.352  0.2177 -0.1545  0.1530
  155SAPE   O1417195   1.589   1.129   6.491 -0.3387 -0.0967  0.9498
  155SAPE   O1217196   1.764   1.293   6.425  0.1898  0.5040  1.0356
  155SAPE   O1117197   1.588   1.343   6.605 -0.3483  0.5165 -1.1136
  155SAPE    C117198   1.633   1.480   6.620  0.3977 -0.0270  0.2790
  155SAPE    HA17199   1.743   1.478   6.605  0.2466  0.1207 -0.9326
  155SAPE    HB17200   1.595   1.540   6.534  1.3093  0.8633  0.4865
  155SAPE    C217201   1.610   1.538   6.757  0.8843  0.3926 -0.2108
  155SAPE    HS17202   1.673   1.630   6.761  0.3031  0.7994 -0.4345
  155SAPE   O2117203   1.650   1.446   6.867  0.4423  0.0867 -0.4367
  155SAPE   C2117204   1.772   1.406   6.878  0.0456 -0.0748 -0.2105
  155SAPE   O2217205   1.866   1.445   6.812 -0.4170  0.0434  0.2631
  155SAPE   C2217206   1.778   1.287   6.981 -0.1392  0.3089  0.4844
  155SAPE   H2R17207   1.736   1.195   6.936  0.8854  0.3568 -0.5864
  155SAPE   H2S17208   1.885   1.272   7.004 -0.4657  1.3798  2.8938
  155SAPE    C317209   1.465   1.595   6.790 -0.0590  0.1318  0.6589
  155SAPE    HX17210   1.390   1.518   6.760  0.1154  0.1536  0.1652
  155SAPE    HY17211   1.439   1.678   6.721  1.2304 -0.0060 -0.0123
  155SAPE   O3117212   1.446   1.638   6.930 -0.2577  0.5045  0.0993
  155SAPE   C3117213   1.400   1.544   7.010 -0.6500  0.1155 -0.5349
  155SAPE   O3217214   1.365   1.434   6.977  0.2470  0.3359 -0.2392
  155SAPE   C3217215   1.399   1.611   7.151  0.3513  0.2538 -0.1049
  155SAPE   H2X17216   1.311   1.678   7.153  0.7867  0.8246  0.3195
  155SAPE   H2Y17217   1.485   1.682   7.157 -0.2998  1.1596 -1.1823
  155SAPE   C2317218   1.705   1.320   7.114 -0.5619 -0.4266  0.2711
  155SAPE   H3R17219   1.598   1.312   7.086 -0.7554  2.6281 -0.1176
  155SAPE   H3S17220   1.722   1.429   7.129 -2.8424  0.2169 -1.6932
  155SAPE   C2417221   1.741   1.225   7.231  0.4986  0.2525  0.1607
  155SAPE   H4R17222   1.795   1.138   7.189  1.4477  2.3431 -3.1621
  155SAPE   H4S17223   1.658   1.177   7.287  1.1343 -0.7113  0.2981
  155SAPE   C2517224   1.856   1.292   7.309  0.1460  0.5648  0.1053
  155SAPE   H5R17225   1.943   1.314   7.244  0.6384  1.3914  1.0355
  155SAPE   C2617226   1.868   1.328   7.434  0.4348 -0.2119 -0.6697
  155SAPE   H6R17227   1.961   1.375   7.469 -1.1456  2.0706  0.6671
  155SAPE   C2717228   1.759   1.315   7.542  0.4178  0.7620  0.4888
  155SAPE   H7R17229   1.665   1.287   7.492  2.4555 -3.1778 -1.3168
  155SAPE   H7S17230   1.744   1.420   7.577  2.2106  2.0158 -2.2614
  155SAPE   C2817231   1.781   1.209   7.644 -0.7434  0.1024 -0.1182
  155SAPE   H8R17232   1.845   1.127   7.607 -2.0170 -0.8283 -0.2981
  155SAPE   C2917233   1.745   1.204   7.772 -0.3279  0.3572 -0.4435
  155SAPE   H9R17234   1.757   1.111   7.830 -0.8933 -0.8059 -2.1444
  155SAPE  C21017235   1.669   1.311   7.845 -0.0203  0.0775  0.0837
  155SAPE  H10R17236   1.607   1.260   7.923  0.4948 -2.1428 -0.9240
  155SAPE  H10S17237   1.591   1.355   7.779  0.7339  2.7148  0.8791
  155SAPE  C21117238   1.763   1.416   7.906  0.4365  0.2366  0.0067
  155SAPE  H11R17239   1.812   1.484   7.834  1.9426  0.8459  1.5779
  155SAPE  C21217240   1.789   1.432   8.034 -0.2953  0.2769 -0.2072
  155SAPE  H12R17241   1.860   1.508   8.070  0.2940 -0.6240  0.5504
  155SAPE  C21317242   1.732   1.343   8.148  0.0083  0.0232  0.0530
  155SAPE  H13R17243   1.791   1.375   8.236  0.7698  0.0904 -0.4715
  155SAPE  H13S17244   1.754   1.235   8.135  0.2391 -0.1355  1.7227
  155SAPE  C21417245   1.587   1.358   8.174  0.3024  0.9216  0.4974
  155SAPE  H14R17246   1.524   1.338   8.086 -1.1181 -1.0529  1.9470
  155SAPE  C21517247   1.535   1.385   8.292 -0.3637  0.1213 -0.3599
  155SAPE  H15R17248   1.425   1.391   8.302 -0.2433  1.8163  0.1632
  155SAPE  C21617249   1.607   1.418   8.425  0.3564  0.0436 -0.2871
  155SAPE  H16R17250   1.640   1.523   8.408 -2.1534  0.5111 -2.4220
  155SAPE  H16S17251   1.700   1.357   8.436  1.6416  1.9776 -0.0009
  155SAPE  C21717252   1.525   1.391   8.547 -0.5711 -0.0859 -0.1001
  155SAPE  H17R17253   1.434   1.454   8.536  0.3103  1.0624 -0.8070
  155SAPE  H17S17254   1.579   1.431   8.635  1.3491 -0.9590 -0.8715
  155SAPE  C21817255   1.484   1.247   8.566 -0.2126 -0.0321 -0.5357
  155SAPE  H18R17256   1.574   1.193   8.604  0.3005  2.2979  1.6916
  155SAPE  H18S17257   1.465   1.206   8.465 -0.4746 -0.6170 -0.2509
  155SAPE  C21917258   1.371   1.210   8.661 -0.0929 -0.3461 -0.3308
  155SAPE  H19R17259   1.286   1.269   8.621  0.6164  1.6312  0.9914
  155SAPE  H19S17260   1.397   1.256   8.759  1.5488 -0.3107 -0.7778
  155SAPE  C22017261   1.357   1.066   8.670  0.1143  0.0407 -0.7934
  155SAPE  H20R17262   1.333   1.024   8.570 -0.0295 -2.2784  0.1772
  155SAPE  H20S17263   1.280   1.038   8.745  1.0362 -0.4759 -0.0325
  155SAPE  H20T17264   1.450   1.013   8.701 -0.6702  0.3396  2.1807
  155SAPE   C3317265   1.396   1.502   7.255  0.2129 -0.1143  0.6382
  155SAPE   H3X17266   1.484   1.436   7.262  0.0398 -0.6137 -1.7073
  155SAPE   H3Y17267   1.314   1.429   7.239 -0.2013  0.4144  0.3317
  155SAPE   C3417268   1.357   1.552   7.394  0.0446 -0.0193  0.2796
  155SAPE   H4X17269   1.266   1.615   7.384  0.0361  0.2337  1.7991
  155SAPE   H4Y17270   1.437   1.624   7.424 -0.6114  0.6730  0.3895
  155SAPE   C3517271   1.342   1.440   7.495  0.2646 -0.2210  0.8023
  155SAPE   H5X17272   1.425   1.366   7.490  0.7376  0.3752 -0.2420
  155SAPE   H5Y17273   1.256   1.373   7.476 -0.2040  0.7173 -0.3642
  155SAPE   C3617274   1.321   1.493   7.639  0.2003  0.6111 -1.0749
  155SAPE   H6X17275   1.245   1.573   7.634  0.2524  0.8663  1.4033
  155SAPE   H6Y17276   1.412   1.544   7.676  1.4517 -2.6646  0.6607
  155SAPE   C3717277   1.293   1.385   7.740  0.2530  1.4749 -0.2108
  155SAPE   H7X17278   1.383   1.321   7.745  0.0347  1.1465 -0.4349
  155SAPE   H7Y17279   1.201   1.337   7.701  1.0764  0.1393 -0.5333
  155SAPE   C3817280   1.281   1.446   7.878 -0.1006 -0.4495  0.6053
  155SAPE   H8X17281   1.221   1.539   7.866 -0.4436 -0.8761 -1.1054
  155SAPE   H8Y17282   1.370   1.494   7.925  0.0399 -0.4777  0.3673
  155SAPE   C3917283   1.230   1.349   7.989 -0.1492 -0.0633 -0.4044
  155SAPE   H9X17284   1.222   1.401   8.087 -0.3166  0.0107 -0.4568
  155SAPE   H9Y17285   1.309   1.273   8.004 -1.1816 -0.8799  0.9583
  155SAPE  C31017286   1.099   1.279   7.948  0.5842 -0.4311  0.9344
  155SAPE  H10X17287   1.113   1.221   7.855  0.4913  2.6020 -1.0625
  155SAPE  H10Y17288   1.026   1.358   7.919  0.2904 -1.8435 -2.3771
  155SAPE  C31117289   1.030   1.196   8.056 -0.5410  0.4037  0.2292
  155SAPE  H11X17290   0.943   1.147   8.008  0.4490 -3.3408  2.0313
  155SAPE  H11Y17291   1.004   1.271   8.134  4.0907 -0.3145  2.6727
  155SAPE  C31217292   1.122   1.089   8.111  0.0183 -0.2781 -0.1757
  155SAPE  H12X17293   1.205   1.135   8.168 -0.2802 -2.6011  2.2370
  155SAPE  H12Y17294   1.182   1.048   8.027 -0.7475 -1.8248  0.0013
  155SAPE  C31317295   1.049   0.995   8.194 -0.1444 -0.3680 -0.0341
  155SAPE  H13X17296   1.109   0.902   8.205 -0.5151 -0.7123 -0.8737
  155SAPE  H13Y17297   0.948   0.974   8.152 -0.0204 -1.1461  0.0431
  155SAPE  C31417298   1.032   1.041   8.339  0.0559  0.7235 -0.9243
  155SAPE  H14X17299   0.970   1.133   8.337 -1.5474 -0.3476 -1.4341
  155SAPE  H14Y17300   1.136   1.071   8.365 -0.8193  1.5688  1.7320
  155SAPE  C31517301   0.978   0.928   8.435 -0.2088  0.6138  0.8172
  155SAPE  H15X17302   1.050   0.844   8.434  0.4435  1.1689  1.1767
  155SAPE  H15Y17303   0.885   0.895   8.383 -1.5076  2.2177  2.0218
  155SAPE  C31617304   0.955   0.967   8.581 -0.4396  0.4814  0.1473
  155SAPE  H16X17305   1.042   1.029   8.611 -0.0610 -0.2113  0.4796
  155SAPE  H16Y17306   0.948   0.879   8.648 -1.8114 -0.6441 -1.4343
  155SAPE  C31717307   0.832   1.056   8.602  0.4245 -0.4622 -0.1859
  155SAPE  H17X17308   0.736   1.002   8.590 -0.2740  0.6321  0.3906
  155SAPE  H17Y17309   0.846   1.138   8.528  1.7886 -1.5765 -1.1783
  155SAPE  C31817310   0.831   1.112   8.743 -0.0617 -0.1242 -0.4968
  155SAPE  H18X17311   0.913   1.184   8.764  1.1139 -1.1769 -1.4382
  155SAPE  H18Y17312   0.845   1.031   8.818  0.9456  0.6146  0.1360
  155SAPE  H18Z17313   0.739   1.169   8.772  1.3922  0.4810  3.2105
  156SAPE     N17314   6.653   2.781   6.707  0.3271  0.2874  0.2475
  156SAPE   HN117315   6.564   2.752   6.662  0.3456  2.8620 -1.5304
  156SAPE   HN217316   6.713   2.701   6.677 -3.0353 -1.0704 -3.1990
  156SAPE   HN317317   6.635   2.794   6.809 -0.9507  1.0580 -0.0690
  156SAPE   C1217318   6.710   2.905   6.640  0.0055  0.5004 -0.2045
  156SAPE  H12A17319   6.795   2.946   6.699 -0.1564 -0.5209  0.7481
  156SAPE  H12B17320   6.622   2.972   6.652 -1.7413 -2.0451  1.5499
  156SAPE   C1117321   6.750   2.875   6.499 -0.1962 -1.1023 -0.0940
  156SAPE  H11A17322   6.726   2.974   6.455  0.5094 -0.0689  1.7955
  156SAPE  H11B17323   6.675   2.810   6.448 -2.1276 -1.0377  2.6167
  156SAPE     P17324   6.910   2.678   6.462 -0.3845 -0.0150  0.4241
  156SAPE   O1317325   6.853   2.637   6.329  0.7391  0.6065 -0.4838
  156SAPE   O1417326   7.052   2.643   6.492 -0.0776 -0.2571 -0.6598
  156SAPE   O1217327   6.888   2.832   6.496 -0.3296  0.2505 -0.0207
  156SAPE   O1117328   6.810   2.607   6.566  0.0467  0.0556 -0.0560
  156SAPE    C117329   6.729   2.494   6.536  0.1732 -0.0261  0.1232
  156SAPE    HA17330   6.623   2.530   6.540  0.3677  0.9767 -2.6353
  156SAPE    HB17331   6.736   2.452   6.433 -1.8687  0.9344 -0.4521
  156SAPE    C217332   6.743   2.372   6.636  0.7983 -0.7896  0.2987
  156SAPE    HS17333   6.690   2.280   6.604  2.9425 -1.6372 -0.9540
  156SAPE   O2117334   6.707   2.424   6.767  0.4761 -0.3871  0.1419
  156SAPE   C2117335   6.644   2.337   6.840 -0.6665  0.7392  0.0124
  156SAPE   O2217336   6.624   2.220   6.807 -0.2161 -0.3823  0.3573
  156SAPE   C2217337   6.634   2.389   6.981 -0.6247  0.2902 -0.0931
  156SAPE   H2R17338   6.735   2.420   7.014 -0.8142  0.0183  0.7615
  156SAPE   H2S17339   6.568   2.478   6.971 -3.7040 -1.5309  2.8940
  156SAPE    C317340   6.896   2.330   6.649  0.3660 -0.2553  0.4915
  156SAPE    HX17341   6.953   2.425   6.659  1.7698 -0.9893 -0.3806
  156SAPE    HY17342   6.929   2.288   6.552  1.3511  1.1551  0.2138
  156SAPE   O3117343   6.922   2.244   6.760  0.3126  0.0686  0.9878
  156SAPE   C3117344   6.922   2.112   6.719  0.6938 -0.5329  0.6951
  156SAPE   O3217345   6.885   2.069   6.610  0.3910 -0.3190  0.0011
  156SAPE   C3217346   6.957   2.029   6.841  0.8827  0.0660  0.5833
  156SAPE   H2X17347   7.050   2.075   6.879  2.1789 -0.7809 -1.4658
  156SAPE   H2Y17348   6.977   1.925   6.807 -0.2566 -0.4817  1.5591
  156SAPE   C2317349   6.575   2.295   7.081 -0.2512  0.1309 -0.1943
  156SAPE   H3R17350   6.647   2.274   7.163 -1.8754  1.6067  1.6549
  156SAPE   H3S17351   6.559   2.200   7.026  3.6165 -0.3771 -0.5498
  156SAPE   C2417352   6.448   2.339   7.149  0.1835  0.6543 -0.2630
  156SAPE   H4R17353   6.362   2.354   7.081  0.1292 -0.9503 -0.5823
  156SAPE   H4S17354   6.446   2.427   7.217 -2.1122 -0.1806  0.8059
  156SAPE   C2517355   6.412   2.234   7.257  0.3927  0.3599 -0.1776
  156SAPE   H5R17356   6.361   2.148   7.211  1.9344 -1.5476  1.5961
  156SAPE   C2617357   6.415   2.242   7.393 -0.4821 -0.0233 -0.8079
  156SAPE   H6R17358   6.376   2.152   7.443 -0.1586 -0.3363 -1.1165
  156SAPE   C2717359   6.459   2.353   7.488  1.1620 -0.2036 -0.3483
  156SAPE   H7R17360   6.394   2.353   7.578  2.7004  0.1857  0.7936
  156SAPE   H7S17361   6.449   2.451   7.436  0.9857 -0.1833 -0.2771
  156SAPE   C2817362   6.597   2.334   7.546 -0.3202  0.2968 -0.0371
  156SAPE   H8R17363   6.670   2.305   7.469 -2.0957  0.4717 -1.8325
  156SAPE   C2917364   6.630   2.316   7.677 -0.0775 -0.0248 -0.2270
  156SAPE   H9R17365   6.735   2.289   7.696 -0.1560 -2.9295 -3.4161
  156SAPE  C21017366   6.530   2.324   7.792 -0.5148  0.3560 -0.2402
  156SAPE  H10R17367   6.440   2.261   7.776 -0.4091  0.1233  0.0729
  156SAPE  H10S17368   6.499   2.426   7.822  0.8156  0.4146  0.9590
  156SAPE  C21117369   6.608   2.267   7.901  0.0041  0.1395 -0.2527
  156SAPE  H11R17370   6.669   2.178   7.883  0.5270  0.0729  1.8085
  156SAPE  C21217371   6.596   2.312   8.032 -0.0657 -0.3058  0.0318
  156SAPE  H12R17372   6.654   2.258   8.108 -0.7334 -1.3140 -0.1652
  156SAPE  C21317373   6.512   2.419   8.091 -0.6412  0.2728 -0.3331
  156SAPE  H13R17374   6.501   2.498   8.013 -0.2029  2.0074  1.3318
  156SAPE  H13S17375   6.573   2.477   8.164 -2.9872 -0.8084  2.5879
  156SAPE  C21417376   6.379   2.360   8.133 -0.1449 -0.4428  0.1520
  156SAPE  H14R17377   6.316   2.314   8.055  1.1581  0.7060 -1.5963
  156SAPE  C21517378   6.327   2.372   8.260  0.3294  0.2355 -0.3883
  156SAPE  H15R17379   6.225   2.332   8.271 -0.8748  2.4459 -2.8386
  156SAPE  C21617380   6.392   2.437   8.387  0.2438  0.0783  0.8527
  156SAPE  H16R17381   6.310   2.475   8.453 -0.7445 -0.3197 -0.1224
  156SAPE  H16S17382   6.468   2.513   8.360 -0.2338  0.1209 -0.3904
  156SAPE  C21717383   6.484   2.334   8.464  0.2786 -0.0479  0.2643
  156SAPE  H17R17384   6.570   2.301   8.402 -0.4927 -1.7896  0.0815
  156SAPE  H17S17385   6.429   2.239   8.483  0.8365 -0.7415 -1.4971
  156SAPE  C21817386   6.557   2.403   8.577  0.2099  0.6155 -0.3161
  156SAPE  H18R17387   6.540   2.510   8.552 -0.1895  0.1632 -2.0705
  156SAPE  H18S17388   6.667   2.392   8.581  0.1433 -0.5455 -1.2331
  156SAPE  C21917389   6.498   2.378   8.715 -0.5689 -0.4554 -0.0373
  156SAPE  H19R17390   6.548   2.448   8.786  1.6621  0.0560 -2.0433
  156SAPE  H19S17391   6.524   2.272   8.740  0.5217  0.4562  2.9486
  156SAPE  C22017392   6.349   2.390   8.734 -0.1779 -0.2700  0.7399
  156SAPE  H20R17393   6.290   2.343   8.653  2.7889 -1.5196 -0.7721
  156SAPE  H20S17394   6.313   2.495   8.737  1.3279  0.2679  0.5381
  156SAPE  H20T17395   6.324   2.353   8.836  0.5831 -0.5445  0.8360
  156SAPE   C3317396   6.850   2.033   6.947 -0.2251  0.1888  0.2241
  156SAPE   H3X17397   6.746   2.006   6.919  0.4925 -1.5424 -0.8331
  156SAPE   H3Y17398   6.848   2.135   6.990  0.5773  0.1587  0.3358
  156SAPE   C3417399   6.898   1.959   7.068 -0.1242 -0.1859 -0.2852
  156SAPE   H4X17400   7.009   1.959   7.064 -0.0207  0.6616  2.0882
  156SAPE   H4Y17401   6.859   1.856   7.077 -1.1903  0.3853  2.1600
  156SAPE   C3517402   6.860   2.025   7.201 -1.3844  0.3226  0.2403
  156SAPE   H5X17403   6.751   2.045   7.188 -0.4025  5.9738 -0.5849
  156SAPE   H5Y17404   6.900   2.129   7.208 -0.6223  0.1621 -1.4404
  156SAPE   C3617405   6.892   1.936   7.327 -0.4613 -0.5832  0.5831
  156SAPE   H6X17406   7.003   1.936   7.334 -0.4695 -0.0923  0.7111
  156SAPE   H6Y17407   6.844   1.839   7.300  1.4887 -1.7745  1.2879
  156SAPE   C3717408   6.825   1.977   7.461  0.1488  0.0817 -0.2157
  156SAPE   H7X17409   6.722   2.006   7.431  0.7634  1.9757 -0.5413
  156SAPE   H7Y17410   6.872   2.063   7.514  2.0028 -1.7443  1.1774
  156SAPE   C3817411   6.834   1.863   7.568 -0.1291  0.1823  0.1475
  156SAPE   H8X17412   6.938   1.834   7.597 -0.2218  0.0018  0.2991
  156SAPE   H8Y17413   6.782   1.780   7.516 -2.7259  0.9940  1.3563
  156SAPE   C3917414   6.769   1.901   7.696 -0.4338 -0.1392 -0.4263
  156SAPE   H9X17415   6.659   1.887   7.684 -0.6792  1.5780 -0.2445
  156SAPE   H9Y17416   6.770   2.009   7.720  1.6240 -0.2305  0.0020
  156SAPE  C31017417   6.828   1.819   7.809 -0.0647  0.2179 -0.3123
  156SAPE  H10X17418   6.912   1.873   7.857  0.2589 -0.5801  0.0279
  156SAPE  H10Y17419   6.882   1.732   7.766 -0.5127 -0.0175 -0.4096
  156SAPE  C31117420   6.720   1.776   7.911  0.7712 -0.2119  0.4658
  156SAPE  H11X17421   6.761   1.720   7.998 -0.9453 -1.5327  0.4457
  156SAPE  H11Y17422   6.638   1.714   7.867  0.9532  1.0072 -1.6363
  156SAPE  C31217423   6.639   1.892   7.976  0.2265  0.6080  1.2082
  156SAPE  H12X17424   6.565   1.924   7.901  1.7887  0.6222 -0.3542
  156SAPE  H12Y17425   6.707   1.977   8.000  2.4519 -0.6803 -0.3667
  156SAPE  C31317426   6.571   1.863   8.104  0.1720 -0.1153 -0.2868
  156SAPE  H13X17427   6.645   1.815   8.171 -0.9884 -0.0532  1.0465
  156SAPE  H13Y17428   6.493   1.786   8.094 -0.2973  0.1723  1.1093
  156SAPE  C31417429   6.511   1.989   8.168  0.0095  0.6532 -0.1367
  156SAPE  H14X17430   6.442   2.045   8.102  0.8225 -0.7021 -2.2039
  156SAPE  H14Y17431   6.597   2.053   8.197  1.3361 -0.8159 -0.7334
  156SAPE  C31517432   6.442   1.953   8.296 -0.5408 -0.3597 -0.4766
  156SAPE  H15X17433   6.354   1.891   8.270 -0.8580  0.4411 -1.3139
  156SAPE  H15Y17434   6.398   2.048   8.335  1.2021 -1.4633  4.6916
  156SAPE  C31617435   6.519   1.892   8.421  0.3731  1.1100  0.2206
  156SAPE  H16X17436   6.619   1.939   8.437  1.0416  0.3020 -1.4081
  156SAPE  H16Y17437   6.534   1.783   8.409 -1.4529  0.8861 -0.1863
  156SAPE  C31717438   6.442   1.915   8.554  0.5601 -0.2190 -0.0934
  156SAPE  H17X17439   6.343   1.865   8.540  0.0206  1.0885 -1.0706
  156SAPE  H17Y17440   6.409   2.020   8.566  1.3849  0.1632 -1.0857
  156SAPE  C31817441   6.514   1.869   8.680  0.6237  0.7556  0.5882
  156SAPE  H18X17442   6.538   1.761   8.667 -0.3330  0.3974  1.7141
  156SAPE  H18Y17443   6.453   1.878   8.772 -2.7680 -2.5445 -1.1835
  156SAPE  H18Z17444   6.614   1.917   8.685  0.8367  0.4008 -0.1607
  157SAPE     N17445   4.330   3.547   6.238  0.1747  0.5761 -0.0105
  157SAPE   HN117446   4.252   3.604   6.201 -2.3994 -1.3504  2.1730
  157SAPE   HN217447   4.384   3.517   6.154 -1.3149  0.2844 -0.8739
  157SAPE   HN317448   4.276   3.473   6.289 -1.3103  0.6713 -1.4277
  157SAPE   C1217449   4.418   3.632   6.328 -0.4111  0.5134  0.2520
  157SAPE  H12A17450   4.351   3.669   6.409 -0.2738 -0.9990  1.0912
  157SAPE  H12B17451   4.453   3.717   6.266  0.2767  1.3132  1.7041
  157SAPE   C1117452   4.528   3.538   6.383  0.0253 -0.2892  0.5313
  157SAPE  H11A17453   4.491   3.445   6.432  1.0801 -0.5426  0.8698
  157SAPE  H11B17454   4.588   3.604   6.449 -0.2669 -0.1243  0.6314
  157SAPE     P17455   4.625   3.351   6.216 -0.5703  0.0328 -0.4421
  157SAPE   O1317456   4.514   3.338   6.117 -0.1513  0.4257 -0.4933
  157SAPE   O1417457   4.762   3.323   6.164 -0.0267  0.5492  0.0232
  157SAPE   O1217458   4.619   3.496   6.282  0.1534 -0.3687 -0.3936
  157SAPE   O1117459   4.590   3.249   6.330  0.5772 -0.4029 -0.2249
  157SAPE    C117460   4.690   3.219   6.432  0.1219 -0.5918 -0.2674
  157SAPE    HA17461   4.770   3.150   6.394  0.5000 -1.2990  1.7683
  157SAPE    HB17462   4.751   3.310   6.450 -1.6784  0.7246 -0.7448
  157SAPE    C217463   4.625   3.164   6.559 -0.3623  0.3004 -0.3854
  157SAPE    HS17464   4.707   3.152   6.633 -1.3113  1.9202  0.9864
  157SAPE   O2117465   4.570   3.038   6.524  0.4262  0.1899  0.3674
  157SAPE   C2117466   4.646   2.930   6.520 -0.1885  0.1290  0.0961
  157SAPE   O2217467   4.769   2.930   6.523 -0.0877 -0.3643  0.8451
  157SAPE   C2217468   4.557   2.810   6.504 -0.1542 -0.2857  0.4781
  157SAPE   H2R17469   4.475   2.831   6.576 -1.1122 -1.3157 -0.3022
  157SAPE   H2S17470   4.506   2.809   6.406  2.2958  1.7923 -0.8825
  157SAPE    C317471   4.518   3.253   6.639  0.6501 -0.1903  0.5419
  157SAPE    HX17472   4.458   3.306   6.561  0.4839  0.5020  1.1389
  157SAPE    HY17473   4.583   3.331   6.683 -0.8294  0.0800  2.2998
  157SAPE   O3117474   4.448   3.186   6.742 -0.1700  0.0087 -0.0222
  157SAPE   C3117475   4.342   3.129   6.705  0.0564 -0.6177  0.0819
  157SAPE   O3217476   4.290   3.125   6.592  0.9019 -0.3726 -0.1474
  157SAPE   C3217477   4.281   3.062   6.833 -0.8573 -0.4563 -0.4546
  157SAPE   H2X17478   4.185   3.011   6.811 -1.6212 -0.1399  1.9197
  157SAPE   H2Y17479   4.263   3.145   6.904 -2.9047  0.3846 -1.9097
  157SAPE   C2317480   4.618   2.669   6.520 -0.4343  0.3300  0.3292
  157SAPE   H3R17481   4.715   2.672   6.466 -0.0678 -0.8127  0.8963
  157SAPE   H3S17482   4.561   2.589   6.468 -0.9106  0.3031  0.8946
  157SAPE   C2417483   4.655   2.616   6.661  0.2747  0.2919 -1.0219
  157SAPE   H4R17484   4.711   2.520   6.653 -2.3939 -1.3905 -0.2979
  157SAPE   H4S17485   4.565   2.585   6.719 -0.4677  0.8661 -1.8602
  157SAPE   C2517486   4.741   2.713   6.744  0.8886 -0.4643 -0.8225
  157SAPE   H5R17487   4.825   2.759   6.691  1.6121 -2.9234 -1.8900
  157SAPE   C2617488   4.724   2.738   6.874  0.1662 -0.6090  0.4526
  157SAPE   H6R17489   4.792   2.811   6.921  0.2559 -0.3003 -0.1657
  157SAPE   C2717490   4.619   2.667   6.968  0.2399 -0.3224  0.2120
  157SAPE   H7R17491   4.530   2.636   6.909  0.6442 -1.3691  0.1362
  157SAPE   H7S17492   4.571   2.740   7.038 -4.7143 -2.3562 -0.8249
  157SAPE   C2817493   4.684   2.551   7.048 -0.5323  1.2684 -1.1155
  157SAPE   H8R17494   4.720   2.466   6.988  1.7740  2.1346 -1.0319
  157SAPE   C2917495   4.713   2.549   7.181  0.6822  0.4480 -0.4125
  157SAPE   H9R17496   4.759   2.464   7.234  1.5231 -0.3035 -2.2935
  157SAPE  C21017497   4.706   2.666   7.276 -0.2334  0.0496  0.8326
  157SAPE  H10R17498   4.716   2.758   7.215  4.8415 -0.8816  0.0605
  157SAPE  H10S17499   4.791   2.664   7.348 -0.7593  1.3235  1.5067
  157SAPE  C21117500   4.569   2.668   7.340 -0.7708  1.0051  0.2199
  157SAPE  H11R17501   4.489   2.678   7.266 -0.2517  3.6067 -0.0648
  157SAPE  C21217502   4.548   2.667   7.474  0.0795  0.6511  0.1107
  157SAPE  H12R17503   4.441   2.669   7.501 -0.1446  0.6887 -0.7583
  157SAPE  C21317504   4.647   2.679   7.582 -0.0334 -0.0607  0.2123
  157SAPE  H13R17505   4.611   2.757   7.653  0.2157  0.4264 -0.1949
  157SAPE  H13S17506   4.734   2.730   7.535  0.0399 -0.4455 -0.0656
  157SAPE  C21417507   4.696   2.550   7.647  0.4746  0.5347  0.0225
  157SAPE  H14R17508   4.720   2.475   7.571  0.3688  0.9094 -0.3799
  157SAPE  C21517509   4.690   2.523   7.779  0.6478 -0.4507  0.0920
  157SAPE  H15R17510   4.721   2.422   7.810 -0.9876 -0.3297  2.2054
  157SAPE  C21617511   4.656   2.606   7.898  0.3786  0.4509  0.4466
  157SAPE  H16R17512   4.547   2.592   7.916  0.1531 -0.5655 -1.6405
  157SAPE  H16S17513   4.674   2.710   7.864  0.3293  0.4245  0.3404
  157SAPE  C21717514   4.731   2.575   8.024  0.1852 -0.2494 -0.1499
  157SAPE  H17R17515   4.838   2.564   7.994  0.5642 -0.2817  1.1865
  157SAPE  H17S17516   4.706   2.471   8.054  1.0893 -0.6230 -0.6574
  157SAPE  C21817517   4.723   2.673   8.145  0.6394 -0.0898  0.1415
  157SAPE  H18R17518   4.613   2.685   8.160  0.4961 -0.0049 -0.9429
  157SAPE  H18S17519   4.757   2.778   8.132  0.2897  0.0644  0.4446
  157SAPE  C21917520   4.802   2.633   8.270 -0.1865 -0.8919 -0.5429
  157SAPE  H19R17521   4.907   2.607   8.246  0.3475  1.1234 -0.4547
  157SAPE  H19S17522   4.749   2.544   8.311 -0.9950  0.3073  1.1114
  157SAPE  C22017523   4.803   2.743   8.376 -0.1607  0.1196 -0.1930
  157SAPE  H20R17524   4.701   2.786   8.387  0.2855  0.8357  1.2768
  157SAPE  H20S17525   4.862   2.832   8.346 -0.6102  1.3015  2.2926
  157SAPE  H20T17526   4.842   2.716   8.476  1.3607  2.2652 -0.1844
  157SAPE   C3317527   4.365   2.947   6.903  0.6848  0.6203  0.8188
  157SAPE   H3X17528   4.472   2.973   6.916  1.2134 -1.5490  1.0676
  157SAPE   H3Y17529   4.360   2.851   6.847 -0.4646 -0.3907  2.5677
  157SAPE   C3417530   4.314   2.911   7.051  0.2388  0.0941 -0.0139
  157SAPE   H4X17531   4.384   2.833   7.087  0.3050  0.1575 -0.0045
  157SAPE   H4Y17532   4.224   2.846   7.039  1.9268 -2.5010  1.0619
  157SAPE   C3517533   4.295   3.023   7.143  0.7324 -0.0993 -0.4376
  157SAPE   H5X17534   4.216   3.096   7.115  0.0052  0.5598  3.0735
  157SAPE   H5Y17535   4.387   3.079   7.166  0.0834  0.0919  1.8337
  157SAPE   C3617536   4.230   2.984   7.278  0.5921  0.8898  0.1603
  157SAPE   H6X17537   4.299   2.912   7.328 -2.8874 -0.7656  2.7631
  157SAPE   H6Y17538   4.137   2.923   7.266  0.0688  1.3102  2.0467
  157SAPE   C3717539   4.205   3.112   7.365  0.1877 -0.4671  0.7315
  157SAPE   H7X17540   4.142   3.177   7.301  0.4054 -3.3685 -2.6379
  157SAPE   H7Y17541   4.303   3.160   7.384 -0.0591  0.3836 -0.1142
  157SAPE   C3817542   4.135   3.078   7.496 -0.5903 -0.6425  0.2476
  157SAPE   H8X17543   4.045   3.020   7.464 -0.4095 -0.6047 -0.3326
  157SAPE   H8Y17544   4.096   3.172   7.539  1.4378  1.0133 -1.4595
  157SAPE   C3917545   4.227   3.008   7.596 -0.3775 -0.3004  1.0467
  157SAPE   H9X17546   4.308   3.074   7.634  0.0423 -0.5457  0.5916
  157SAPE   H9Y17547   4.276   2.920   7.548 -0.0534  0.6241 -0.3633
  157SAPE  C31017548   4.147   2.962   7.719 -0.5712  0.4603 -0.6626
  157SAPE  H10X17549   4.073   2.890   7.680 -0.1046 -0.6868  0.5468
  157SAPE  H10Y17550   4.098   3.044   7.776  1.3791  0.7177  0.7018
  157SAPE  C31117551   4.239   2.883   7.829  0.6873  0.2841 -0.2323
  157SAPE  H11X17552   4.300   2.804   7.780  1.9971  0.1085  1.6027
  157SAPE  H11Y17553   4.173   2.827   7.898  0.4519 -2.1693 -2.3920
  157SAPE  C31217554   4.325   2.983   7.903 -0.1996 -0.1575 -0.6798
  157SAPE  H12X17555   4.258   3.059   7.948  1.5630  1.7591 -1.2144
  157SAPE  H12Y17556   4.391   3.031   7.828  2.4620 -1.2997  0.8159
  157SAPE  C31317557   4.416   2.930   8.007 -0.1743  0.4077  0.0661
  157SAPE  H13X17558   4.474   3.015   8.048  0.0529  0.4388 -0.3264
  157SAPE  H13Y17559   4.492   2.860   7.967 -1.0310 -0.0973 -0.7055
  157SAPE  C31417560   4.352   2.854   8.127  0.4538  0.4440  0.0790
  157SAPE  H14X17561   4.442   2.834   8.189 -0.8419 -1.5715  1.3550
  157SAPE  H14Y17562   4.312   2.754   8.099 -1.7335  0.8402  1.6977
  157SAPE  C31517563   4.245   2.926   8.212  0.3432  0.5340  0.4552
  157SAPE  H15X17564   4.223   2.856   8.296 -0.1352 -0.1971 -0.2717
  157SAPE  H15Y17565   4.151   2.945   8.156  0.5369  1.3515  0.4040
  157SAPE  C31617566   4.291   3.057   8.265  0.2125  0.0779  0.0406
  157SAPE  H16X17567   4.328   3.115   8.178 -0.7846 -1.1770 -1.2568
  157SAPE  H16Y17568   4.379   3.050   8.332  0.4915 -0.1289 -0.3444
  157SAPE  C31717569   4.180   3.131   8.347 -0.0430  0.0668 -0.1534
  157SAPE  H17X17570   4.169   3.058   8.431 -2.1148 -0.0505 -0.4918
  157SAPE  H17Y17571   4.083   3.138   8.293 -0.3517  1.8248  0.5982
  157SAPE  C31817572   4.224   3.265   8.396 -0.3274 -0.3586 -0.2637
  157SAPE  H18X17573   4.220   3.338   8.312  1.0432 -0.9165 -0.8414
  157SAPE  H18Y17574   4.326   3.263   8.441 -0.1376  0.7165 -0.6233
  157SAPE  H18Z17575   4.149   3.303   8.468  1.0059  0.6621  0.6104
  158SAPE     N17576   5.716   0.964   5.873  0.1171  0.7154  0.5995
  158SAPE   HN117577   5.765   1.054   5.862  0.6200  0.2642 -0.9385
  158SAPE   HN217578   5.771   0.880   5.843 -1.3765 -0.5542  1.3147
  158SAPE   HN317579   5.627   0.965   5.820  1.1482  1.0225 -1.1726
  158SAPE   C1217580   5.696   0.928   6.024  0.4527 -0.0904  0.0139
  158SAPE  H12A17581   5.648   0.829   6.033  0.4866 -0.3365 -2.2447
  158SAPE  H12B17582   5.629   1.007   6.065 -2.5744 -2.5125 -0.0969
  158SAPE   C1117583   5.819   0.928   6.117  0.3673  0.4714 -0.2579
  158SAPE  H11A17584   5.877   0.836   6.093  0.4878  0.2993  0.6878
  158SAPE  H11B17585   5.799   0.927   6.226  0.2134  0.4365 -0.2873
  158SAPE     P17586   5.889   1.175   6.152 -0.1672  0.0181  0.1148
  158SAPE   O1317587   6.017   1.245   6.124  0.6760  0.4982  0.0876
  158SAPE   O1417588   5.761   1.238   6.118  0.3756 -0.1324  0.1100
  158SAPE   O1217589   5.900   1.034   6.084  0.1184 -0.5203  0.4646
  158SAPE   O1117590   5.878   1.146   6.309  0.1899  0.4864  0.4263
  158SAPE    C117591   5.995   1.123   6.383 -0.6265 -0.0393  0.3839
  158SAPE    HA17592   6.044   1.030   6.347  2.3266  1.7487 -0.3585
  158SAPE    HB17593   6.071   1.202   6.363 -0.9982 -0.1414 -1.5594
  158SAPE    C217594   5.969   1.128   6.535 -0.4522  0.0580  0.0967
  158SAPE    HS17595   6.063   1.115   6.593 -0.4401 -0.7121 -0.0853
  158SAPE   O2117596   5.874   1.028   6.582 -0.5130 -0.1707  0.1716
  158SAPE   C2117597   5.936   0.908   6.610 -0.2627 -0.5699 -0.0064
  158SAPE   O2217598   6.046   0.876   6.572 -0.1146  0.8764 -0.1539
  158SAPE   C2217599   5.861   0.832   6.720  0.8015  0.9244 -0.2023
  158SAPE   H2R17600   5.785   0.903   6.758 -0.1493  1.0037 -2.1970
  158SAPE   H2S17601   5.814   0.742   6.676  1.0795 -0.2024  1.7420
  158SAPE    C317602   5.911   1.270   6.584 -0.7027 -0.0855 -0.5643
  158SAPE    HX17603   5.816   1.286   6.529 -2.5672 -0.5146  2.4370
  158SAPE    HY17604   5.980   1.352   6.554 -0.9654  0.1928 -0.3994
  158SAPE   O3117605   5.879   1.272   6.728  0.7672 -0.3189  0.3084
  158SAPE   C3117606   5.967   1.338   6.809 -0.2346 -0.0716 -0.4394
  158SAPE   O3217607   6.071   1.390   6.766  0.8286 -0.5339  0.2491
  158SAPE   C3217608   5.926   1.328   6.956  0.3492 -0.1561  1.2777
  158SAPE   H2X17609   5.924   1.221   6.986  0.4062 -0.1617  1.2606
  158SAPE   H2Y17610   5.822   1.365   6.970  0.3708  0.1078  0.7863
  158SAPE   C2317611   5.952   0.779   6.830 -0.1359  0.0998 -0.2017
  158SAPE   H3R17612   6.028   0.712   6.783  0.4811 -0.1381  1.0926
  158SAPE   H3S17613   5.900   0.710   6.900 -0.5678  1.1616  0.5350
  158SAPE   C2417614   6.000   0.887   6.933  0.9935  0.7186  0.0315
  158SAPE   H4R17615   6.069   0.956   6.880  2.1033 -0.7805 -0.5149
  158SAPE   H4S17616   6.074   0.828   6.991 -0.3769 -0.6971  0.3710
  158SAPE   C2517617   5.890   0.944   7.022 -0.8709  0.6500  0.2733
  158SAPE   H5R17618   5.800   0.975   6.968 -0.4284  0.1391 -0.7715
  158SAPE   C2617619   5.902   0.965   7.155 -0.1027  0.3389 -0.5728
  158SAPE   H6R17620   5.817   1.001   7.216  1.2052  0.8001  1.0032
  158SAPE   C2717621   6.030   0.937   7.241  0.1668  0.2588 -0.4443
  158SAPE   H7R17622   6.056   1.030   7.297 -0.7203  1.7508 -2.4452
  158SAPE   H7S17623   6.110   0.906   7.171  1.2713  0.5548  0.6657
  158SAPE   C2817624   6.025   0.811   7.319  0.3941  0.2741 -0.3692
  158SAPE   H8R17625   5.989   0.720   7.268  2.4070 -0.4386 -0.5492
  158SAPE   C2917626   6.036   0.802   7.449  0.2712  0.3334 -0.3557
  158SAPE   H9R17627   6.017   0.704   7.494 -3.8520  0.1794 -2.2222
  158SAPE  C21017628   6.054   0.911   7.554  0.1304 -0.4797 -0.2585
  158SAPE  H10R17629   5.960   0.966   7.578 -0.0186 -0.7319 -0.2703
  158SAPE  H10S17630   6.117   0.992   7.510  0.6805 -0.9363 -0.3102
  158SAPE  C21117631   6.119   0.857   7.680  0.1272 -0.2463 -0.8835
  158SAPE  H11R17632   6.228   0.870   7.689 -0.5924  3.6688  4.2547
  158SAPE  C21217633   6.064   0.825   7.797 -0.1647  0.4026 -0.0900
  158SAPE  H12R17634   6.126   0.793   7.881  1.8076  2.3402 -0.7490
  158SAPE  C21317635   5.912   0.826   7.813 -0.0840  0.3499  0.1049
  158SAPE  H13R17636   5.878   0.720   7.809  1.9836 -0.2874 -1.1302
  158SAPE  H13S17637   5.867   0.875   7.724 -1.3932  0.9799  1.0870
  158SAPE  C21417638   5.867   0.888   7.949 -0.0979 -0.1021  0.1523
  158SAPE  H14R17639   5.942   0.928   8.019 -0.8470  3.8321 -1.1681
  158SAPE  C21517640   5.739   0.887   7.990  0.0489  0.3405 -0.3496
  158SAPE  H15R17641   5.722   0.935   8.088 -1.4147 -0.0137 -0.4147
  158SAPE  C21617642   5.605   0.836   7.936 -0.0955  0.1018  0.2457
  158SAPE  H16R17643   5.610   0.796   7.832  1.7326 -1.5374  0.9274
  158SAPE  H16S17644   5.537   0.924   7.931  0.1761  0.2304 -1.4688
  158SAPE  C21717645   5.547   0.730   8.032 -0.1553 -0.4839 -0.8391
  158SAPE  H17R17646   5.602   0.634   8.022  0.0935 -0.6309  1.7919
  158SAPE  H17S17647   5.445   0.707   7.994 -0.8905  0.3389  0.6139
  158SAPE  C21817648   5.531   0.766   8.182  0.3387  0.3158 -0.5969
  158SAPE  H18R17649   5.451   0.843   8.182  0.8272  0.8857  1.8061
  158SAPE  H18S17650   5.630   0.803   8.217  0.9870 -0.9627 -1.0713
  158SAPE  C21917651   5.487   0.650   8.274 -0.4222 -0.1393 -0.3107
  158SAPE  H19R17652   5.577   0.585   8.282 -0.6231 -0.1064  3.6422
  158SAPE  H19S17653   5.407   0.590   8.226  0.2871 -0.7226 -0.7654
  158SAPE  C22017654   5.451   0.706   8.408 -0.3017  0.2816 -0.1072
  158SAPE  H20R17655   5.510   0.795   8.438 -2.6398  0.9703  2.7045
  158SAPE  H20S17656   5.468   0.634   8.490  3.0706  0.5415 -0.5409
  158SAPE  H20T17657   5.347   0.746   8.407 -1.5427 -2.8255  0.6110
  158SAPE   C3317658   6.022   1.403   7.054 -0.5043  0.8598  0.0799
  158SAPE   H3X17659   6.123   1.419   7.009 -0.2273 -2.0522 -0.4863
  158SAPE   H3Y17660   6.037   1.345   7.148  0.3030 -0.9296 -1.1167
  158SAPE   C3417661   5.962   1.541   7.095  0.9638 -0.0908 -0.1032
  158SAPE   H4X17662   5.956   1.609   7.007  1.5400  1.1884  0.8225
  158SAPE   H4Y17663   6.034   1.582   7.168  0.4483  1.1198 -0.2498
  158SAPE   C3517664   5.822   1.548   7.160 -0.6717  0.1926  0.3125
  158SAPE   H5X17665   5.827   1.464   7.233  1.5520  0.0887  0.0956
  158SAPE   H5Y17666   5.731   1.527   7.100  0.8025 -1.7466 -1.3266
  158SAPE   C3617667   5.796   1.683   7.226  0.0127  0.5763 -0.1769
  158SAPE   H6X17668   5.814   1.762   7.150  0.2368  0.9657  0.2806
  158SAPE   H6Y17669   5.872   1.705   7.304  1.3947 -0.9544 -1.0495
  158SAPE   C3717670   5.659   1.707   7.288 -0.7499 -0.1380 -0.3838
  158SAPE   H7X17671   5.652   1.816   7.308 -2.7487 -0.2530 -0.2994
  158SAPE   H7Y17672   5.588   1.687   7.205 -1.2895 -2.1403  0.5361
  158SAPE   C3817673   5.614   1.615   7.407  0.1623  0.8618  0.7971
  158SAPE   H8X17674   5.687   1.609   7.490 -0.9446 -5.3173  1.5951
  158SAPE   H8Y17675   5.613   1.508   7.375 -0.3128  0.8229  0.9397
  158SAPE   C3917676   5.469   1.653   7.454 -0.4450 -0.1054  0.2519
  158SAPE   H9X17677   5.396   1.669   7.372  0.5382 -1.0415 -0.8288
  158SAPE   H9Y17678   5.476   1.752   7.504  0.4657  0.5181 -1.0736
  158SAPE  C31017679   5.390   1.552   7.541  0.2398 -0.2240  0.2309
  158SAPE  H10X17680   5.455   1.497   7.612 -1.5757 -1.3158  1.0802
  158SAPE  H10Y17681   5.349   1.478   7.469 -2.0831  1.3090 -0.0791
  158SAPE  C31117682   5.265   1.621   7.610  0.2136 -0.9997 -0.6077
  158SAPE  H11X17683   5.184   1.651   7.540  0.8880  0.7043 -0.6648
  158SAPE  H11Y17684   5.304   1.719   7.644  1.2565 -1.8980  0.8142
  158SAPE  C31217685   5.190   1.535   7.724 -0.0878 -0.1555 -0.3610
  158SAPE  H12X17686   5.104   1.601   7.750 -0.3779  0.2583 -2.2948
  158SAPE  H12Y17687   5.263   1.530   7.807 -0.4101  0.9795 -0.0036
  158SAPE  C31317688   5.143   1.397   7.677 -0.0815 -0.1038  0.4014
  158SAPE  H13X17689   5.230   1.341   7.637 -0.4873 -0.0547 -0.5573
  158SAPE  H13Y17690   5.078   1.422   7.591  0.6037  1.6384  0.3622
  158SAPE  C31417691   5.063   1.312   7.783  0.5730  0.4652 -0.7190
  158SAPE  H14X17692   5.016   1.227   7.730  0.4733  0.4577 -0.6182
  158SAPE  H14Y17693   4.986   1.370   7.837  0.4686 -0.9946  0.7404
  158SAPE  C31517694   5.150   1.247   7.888  0.1413 -0.1048 -0.5703
  158SAPE  H15X17695   5.183   1.325   7.959  1.7686 -3.0875  2.0936
  158SAPE  H15Y17696   5.247   1.201   7.858  0.1983 -0.6660  0.4367
  158SAPE  C31617697   5.067   1.138   7.975  0.9667  0.5382 -0.3039
  158SAPE  H16X17698   5.013   1.075   7.901  4.4822 -2.1390 -0.7483
  158SAPE  H16Y17699   4.993   1.189   8.040 -0.0580  1.3862 -2.1040
  158SAPE  C31717700   5.174   1.071   8.068  0.2762 -0.4598  0.2659
  158SAPE  H17X17701   5.217   1.159   8.120  0.4484 -1.4936  1.8903
  158SAPE  H17Y17702   5.257   1.023   8.012  0.4706 -0.0213  0.1744
  158SAPE  C31817703   5.121   0.976   8.176  0.1127  0.0888 -0.1121
  158SAPE  H18X17704   5.127   0.875   8.130 -1.8427  0.1410 -0.5293
  158SAPE  H18Y17705   5.031   1.001   8.237 -0.7945 -3.1364 -0.0398
  158SAPE  H18Z17706   5.195   0.969   8.258 -0.1030 -0.9566 -0.0020
  159SAPE     N17707   5.169   3.632   6.075  0.2755  0.1379 -0.4481
  159SAPE   HN117708   5.176   3.667   6.173 -0.3286 -0.9340 -0.0105
  159SAPE   HN217709   5.091   3.563   6.076 -0.5743  1.0802 -0.3672
  159SAPE   HN317710   5.256   3.579   6.054 -0.4675 -0.6717 -1.5225
  159SAPE   C1217711   5.127   3.742   5.987  0.6198 -0.5260 -0.1491
  159SAPE  H12A17712   5.017   3.753   5.983  0.5233 -1.6639 -0.7839
  159SAPE  H12B17713   5.168   3.717   5.887  2.5180 -1.1667  0.7652
  159SAPE   C1117714   5.206   3.862   6.036 -0.0337 -0.5044 -0.1666
  159SAPE  H11A17715   5.206   3.939   5.955  0.5351 -1.3987 -1.0222
  159SAPE  H11B17716   5.313   3.842   6.060 -0.5931 -2.5642  0.7094
  159SAPE     P17717   5.169   3.884   6.302 -0.0560  0.1900  0.3321
  159SAPE   O1317718   5.104   3.977   6.398  0.0672  0.6583 -0.0348
  159SAPE   O1417719   5.136   3.742   6.318 -0.1402  0.0444 -0.0006
  159SAPE   O1217720   5.144   3.922   6.155 -0.0158 -0.0297 -0.1192
  159SAPE   O1117721   5.325   3.902   6.304 -0.0865 -0.1373 -0.0941
  159SAPE    C117722   5.383   4.031   6.306 -0.1828  0.0050 -0.4511
  159SAPE    HA17723   5.456   4.038   6.222  1.4414 -1.8155  0.7675
  159SAPE    HB17724   5.305   4.110   6.299 -0.5098 -0.4216 -1.6379
  159SAPE    C217725   5.474   4.045   6.430 -0.4175  0.0920  0.5255
  159SAPE    HS17726   5.556   3.970   6.419 -0.0710  0.7630 -1.7993
  159SAPE   O2117727   5.402   4.014   6.553 -0.5844 -0.3403 -0.1872
  159SAPE   C2117728   5.302   4.090   6.581 -0.1110 -0.1388  0.5699
  159SAPE   O2217729   5.281   4.202   6.538 -0.7404 -0.0287  0.3120
  159SAPE   C2217730   5.219   4.009   6.683 -0.1009  0.2031 -0.1906
  159SAPE   H2R17731   5.148   3.941   6.630 -0.6825 -0.8486  1.8927
  159SAPE   H2S17732   5.282   3.943   6.746 -0.1099  0.1186 -0.2706
  159SAPE    C317733   5.551   4.177   6.423  0.4932 -0.7286  0.1621
  159SAPE    HX17734   5.486   4.267   6.436 -0.0551 -1.4520  2.7582
  159SAPE    HY17735   5.592   4.197   6.322  1.1462 -1.4710  0.2805
  159SAPE   O3117736   5.661   4.175   6.524 -0.4468 -0.2350 -0.2305
  159SAPE   C3117737   5.669   4.274   6.610 -0.8206 -0.3614  0.5885
  159SAPE   O3217738   5.585   4.360   6.623 -0.6329  0.2329  0.2290
  159SAPE   C3217739   5.791   4.260   6.699 -0.2965  0.3978  0.4370
  159SAPE   H2X17740   5.881   4.262   6.633  0.4793 -2.5352  1.3446
  159SAPE   H2Y17741   5.792   4.163   6.753 -0.4902  0.5609  0.7377
  159SAPE   C2317742   5.134   4.088   6.789 -0.0906  0.4566 -0.7446
  159SAPE   H3R17743   5.057   4.017   6.826  0.2538  0.6746  0.4085
  159SAPE   H3S17744   5.075   4.165   6.735 -0.2783 -0.5800 -2.0492
  159SAPE   C2417745   5.209   4.145   6.909 -0.2923  0.2555 -0.1384
  159SAPE   H4R17746   5.264   4.063   6.960  2.4340  1.9840 -0.2240
  159SAPE   H4S17747   5.139   4.185   6.986  0.5582  0.1080  0.7105
  159SAPE   C2517748   5.301   4.259   6.863 -0.6640  0.0296  0.2510
  159SAPE   H5R17749   5.262   4.305   6.771  2.6456 -1.2151 -1.8532
  159SAPE   C2617750   5.425   4.287   6.909  0.5012 -0.1490 -0.1077
  159SAPE   H6R17751   5.468   4.386   6.884 -1.5566  1.9826  4.2604
  159SAPE   C2717752   5.490   4.234   7.035 -0.3397 -0.0678 -0.5875
  159SAPE   H7R17753   5.595   4.269   7.035 -0.2026 -0.4721 -0.3474
  159SAPE   H7S17754   5.487   4.123   7.030 -1.9150 -0.0643 -0.2259
  159SAPE   C2817755   5.419   4.286   7.164  0.3253 -0.3500 -0.3714
  159SAPE   H8R17756   5.387   4.391   7.161  0.4531 -0.3024 -0.1357
  159SAPE   C2917757   5.393   4.215   7.274  0.3553  0.5088 -0.0437
  159SAPE   H9R17758   5.336   4.258   7.358  0.3608  0.5069 -0.0394
  159SAPE  C21017759   5.442   4.073   7.303 -0.4968  0.0834 -0.1543
  159SAPE  H10R17760   5.417   4.020   7.208  1.8005  1.1720 -1.4137
  159SAPE  H10S17761   5.367   4.031   7.373 -1.7357  0.7033 -1.0917
  159SAPE  C21117762   5.578   4.058   7.356 -0.5072 -0.0748  0.3616
  159SAPE  H11R17763   5.654   4.075   7.278  0.1817  1.1726  1.2769
  159SAPE  C21217764   5.623   4.039   7.482 -0.6239 -0.1417 -0.1999
  159SAPE  H12R17765   5.732   4.025   7.480 -0.7685 -1.4149 -2.8677
  159SAPE  C21317766   5.543   4.013   7.607  0.1472 -0.4559  0.2152
  159SAPE  H13R17767   5.445   3.967   7.581  1.4299 -2.3244 -1.4464
  159SAPE  H13S17768   5.524   4.116   7.645  0.9714  0.3453 -1.4779
  159SAPE  C21417769   5.604   3.926   7.712  0.1360 -0.2643  0.2211
  159SAPE  H14R17770   5.713   3.913   7.706  0.2770 -0.2766  2.2247
  159SAPE  C21517771   5.550   3.888   7.830  0.2445  0.6163  1.1764
  159SAPE  H15R17772   5.600   3.806   7.885  0.7994 -1.0752 -1.7163
  159SAPE  C21617773   5.411   3.921   7.876  0.3937  0.5017 -0.5301
  159SAPE  H16R17774   5.343   3.835   7.861 -0.1736  0.7697  0.3901
  159SAPE  H16S17775   5.369   4.011   7.825 -3.0159 -0.8464 -0.2124
  159SAPE  C21717776   5.400   3.974   8.026  0.2174  0.1728  0.4015
  159SAPE  H17R17777   5.294   3.991   8.052 -0.7500 -2.1183 -1.8092
  159SAPE  H17S17778   5.460   4.068   8.035 -0.7444  0.6575  1.8781
  159SAPE  C21817779   5.440   3.869   8.134  0.3078 -0.6723  0.3036
  159SAPE  H18R17780   5.545   3.835   8.122  0.1631 -0.9438 -0.2350
  159SAPE  H18S17781   5.359   3.793   8.121 -1.0570  0.8888 -0.5101
  159SAPE  C21917782   5.430   3.935   8.273 -0.2566  0.9325 -0.4164
  159SAPE  H19R17783   5.322   3.961   8.283 -0.2625 -0.2376  3.5463
  159SAPE  H19S17784   5.501   4.019   8.285  0.6589  0.1573 -0.3625
  159SAPE  C22017785   5.474   3.843   8.385  0.7839  0.2435  0.0314
  159SAPE  H20R17786   5.569   3.788   8.369  1.0687  1.3086 -2.1924
  159SAPE  H20S17787   5.397   3.765   8.399  0.7665  0.7088  2.7614
  159SAPE  H20T17788   5.478   3.887   8.486  1.9150  0.2675 -0.0113
  159SAPE   C3317789   5.795   4.375   6.799 -0.4118 -0.4456  0.2469
  159SAPE   H3X17790   5.705   4.359   6.862  0.4819 -1.7473  1.2328
  159SAPE   H3Y17791   5.801   4.481   6.764 -0.8382  0.5563  3.0271
  159SAPE   C3417792   5.913   4.360   6.901  0.0284 -0.0332  0.0962
  159SAPE   H4X17793   6.005   4.357   6.838 -1.3290 -1.3669 -1.9127
  159SAPE   H4Y17794   5.907   4.262   6.953 -0.5727 -0.7963 -1.3616
  159SAPE   C3517795   5.935   4.454   7.020 -0.1797  0.4463 -0.2708
  159SAPE   H5X17796   5.908   4.560   6.997  0.6159  1.0805  1.6329
  159SAPE   H5Y17797   6.044   4.454   7.044 -0.3596  0.3295  0.5530
  159SAPE   C3617798   5.854   4.397   7.138  0.0276 -0.3189  0.1102
  159SAPE   H6X17799   5.897   4.296   7.155  2.2566  1.0097  2.7241
  159SAPE   H6Y17800   5.748   4.376   7.112  0.1038 -2.0339  1.0890
  159SAPE   C3717801   5.862   4.475   7.267  0.0735  0.4913 -0.3291
  159SAPE   H7X17802   5.852   4.586   7.261 -2.8025  0.2996  0.5599
  159SAPE   H7Y17803   5.958   4.450   7.316 -0.0783  1.7799  0.6447
  159SAPE   C3817804   5.755   4.426   7.364 -0.2076 -0.1035 -0.4907
  159SAPE   H8X17805   5.759   4.315   7.375  0.4190  0.0622  1.0573
  159SAPE   H8Y17806   5.653   4.454   7.330 -0.2015  2.0422  1.1743
  159SAPE   C3917807   5.782   4.479   7.504  0.0929 -0.4057 -0.4501
  159SAPE   H9X17808   5.758   4.587   7.513  2.4489  0.1620 -0.6718
  159SAPE   H9Y17809   5.882   4.452   7.544  1.4828  0.6932 -3.0888
  159SAPE  C31017810   5.675   4.414   7.596  0.2221 -0.5119  0.4253
  159SAPE  H10X17811   5.688   4.304   7.586  2.3190 -0.1107 -1.4185
  159SAPE  H10Y17812   5.574   4.429   7.552  1.3016 -0.5287 -2.1157
  159SAPE  C31117813   5.674   4.455   7.743 -0.3353 -0.0195  0.2172
  159SAPE  H11X17814   5.663   4.565   7.731 -1.0842 -0.1023  0.0984
  159SAPE  H11Y17815   5.759   4.431   7.810 -0.0277 -2.5292 -1.0070
  159SAPE  C31217816   5.552   4.397   7.812  0.6067 -0.4846  1.0410
  159SAPE  H12X17817   5.551   4.286   7.817  0.5158 -0.4814  1.1035
  159SAPE  H12Y17818   5.466   4.421   7.746  1.1307  0.3070  0.6315
  159SAPE  C31317819   5.537   4.454   7.950 -0.5019  0.3920  0.3639
  159SAPE  H13X17820   5.563   4.562   7.955  1.4097  0.0452 -1.2726
  159SAPE  H13Y17821   5.610   4.402   8.016 -0.4172  0.1943  0.1146
  159SAPE  C31417822   5.393   4.436   8.016 -0.3669  0.3138 -0.0975
  159SAPE  H14X17823   5.372   4.328   8.032  1.1888  0.0918  0.5147
  159SAPE  H14Y17824   5.313   4.475   7.948  0.5163  1.3666 -0.5498
  159SAPE  C31517825   5.371   4.514   8.143  0.1079  0.4682 -0.7031
  159SAPE  H15X17826   5.391   4.623   8.130 -0.5459  0.6729 -0.0169
  159SAPE  H15Y17827   5.449   4.476   8.212 -0.3892  0.1189 -0.3290
  159SAPE  C31617828   5.232   4.507   8.194  0.0340  0.3102 -0.6142
  159SAPE  H16X17829   5.214   4.400   8.215  0.5684  0.6347  1.6286
  159SAPE  H16Y17830   5.169   4.541   8.109 -1.5714  0.9005  0.7973
  159SAPE  C31717831   5.190   4.590   8.316 -0.1846  0.2080  0.0983
  159SAPE  H17X17832   5.088   4.562   8.350 -0.0671 -0.4629 -0.0866
  159SAPE  H17Y17833   5.203   4.698   8.298 -1.4631  0.4638  0.6659
  159SAPE  C31817834   5.294   4.550   8.431 -0.1694 -0.6516 -0.0511
  159SAPE  H18X17835   5.302   4.440   8.439 -1.7412 -0.6149  2.4819
  159SAPE  H18Y17836   5.258   4.583   8.531 -1.0302  1.3818 -0.9901
  159SAPE  H18Z17837   5.389   4.602   8.407  0.0639 -0.1910  1.7990
  160SAPE     N17838   6.223   3.058   6.334 -0.2506 -0.6952 -0.3590
  160SAPE   HN117839   6.236   3.045   6.231  0.0192 -3.0376 -0.0594
  160SAPE   HN217840   6.262   3.153   6.348  1.4021 -1.4394  0.2875
  160SAPE   HN317841   6.267   2.974   6.377 -0.0196 -1.2141 -1.5717
  160SAPE   C1217842   6.079   3.066   6.378 -0.5505 -0.0902 -0.1074
  160SAPE  H12A17843   6.061   2.958   6.399  2.0806 -0.6074 -0.2704
  160SAPE  H12B17844   6.010   3.084   6.293 -1.8362  0.3645  1.0219
  160SAPE   C1117845   6.062   3.162   6.488 -0.0126 -0.8373  0.0988
  160SAPE  H11A17846   6.125   3.141   6.577 -0.1265 -0.3391  0.3010
  160SAPE  H11B17847   5.961   3.146   6.531  1.0248 -0.7728  2.6177
  160SAPE     P17848   6.187   3.381   6.518 -0.0909  0.1522 -0.3532
  160SAPE   O1317849   6.312   3.295   6.495  0.0072  0.0872 -0.0293
  160SAPE   O1417850   6.182   3.517   6.472  0.2234  0.0704  0.5916
  160SAPE   O1217851   6.075   3.296   6.445 -0.2159 -0.1840 -0.3491
  160SAPE   O1117852   6.135   3.370   6.677  0.1590  0.4445 -1.1272
  160SAPE    C117853   6.003   3.429   6.710 -0.8796  0.1474 -0.0935
  160SAPE    HA17854   6.005   3.531   6.667  2.1096  0.6553  1.1326
  160SAPE    HB17855   5.925   3.363   6.667 -2.4986  0.9369  1.5421
  160SAPE    C217856   5.964   3.421   6.860 -0.3226  0.2923 -0.5323
  160SAPE    HS17857   5.874   3.482   6.883 -1.1838 -1.3958  0.6282
  160SAPE   O2117858   6.073   3.436   6.946 -0.0823 -0.1738 -0.1827
  160SAPE   C2117859   6.121   3.561   6.948  0.4847 -0.6973  0.5627
  160SAPE   O2217860   6.065   3.658   6.902 -0.5267 -0.7461  0.2653
  160SAPE   C2217861   6.260   3.566   7.000  0.1338 -0.6192 -0.3326
  160SAPE   H2R17862   6.302   3.463   6.997  1.0850 -0.2309 -0.5913
  160SAPE   H2S17863   6.316   3.627   6.925 -0.8406  0.4021 -0.2514
  160SAPE    C317864   5.902   3.280   6.886  0.5074  0.5188  0.6982
  160SAPE    HX17865   5.974   3.211   6.837  0.5204  0.6593  0.5168
  160SAPE    HY17866   5.813   3.275   6.821 -0.1883  1.3118  1.5780
  160SAPE   O3117867   5.871   3.266   7.026 -0.1040 -0.3580  0.4199
  160SAPE   C3117868   5.963   3.198   7.090 -0.7347  0.2148 -0.4769
  160SAPE   O3217869   6.056   3.134   7.043 -0.0019 -0.5679 -0.6920
  160SAPE   C3217870   5.927   3.216   7.240 -0.7716 -0.0601 -0.8492
  160SAPE   H2X17871   5.817   3.208   7.255 -0.6788 -2.9532 -1.3392
  160SAPE   H2Y17872   5.963   3.317   7.267  0.9866 -1.3919  2.0025
  160SAPE   C2317873   6.269   3.605   7.143 -0.5472  0.2395 -0.2282
  160SAPE   H3R17874   6.182   3.667   7.175 -0.1716  0.2721  0.7744
  160SAPE   H3S17875   6.361   3.666   7.155 -0.8225  0.1442  2.8529
  160SAPE   C2417876   6.282   3.484   7.239  1.0387 -0.3503  0.7097
  160SAPE   H4R17877   6.369   3.422   7.208  1.2313 -0.1617  0.8762
  160SAPE   H4S17878   6.188   3.426   7.224  2.2594 -2.1707 -0.0346
  160SAPE   C2517879   6.309   3.527   7.386 -0.0592 -0.0380  0.1665
  160SAPE   H5R17880   6.275   3.627   7.414  0.0117 -0.0470  0.2859
  160SAPE   C2617881   6.377   3.453   7.475 -0.0480  1.1940 -0.2371
  160SAPE   H6R17882   6.387   3.480   7.581  0.8363 -1.0328  0.2802
  160SAPE   C2717883   6.435   3.312   7.440  0.9217  0.2951  0.0690
  160SAPE   H7R17884   6.372   3.258   7.365 -0.2984  2.9093 -0.8443
  160SAPE   H7S17885   6.417   3.259   7.536  0.2356 -0.3546 -0.4057
  160SAPE   C2817886   6.576   3.334   7.413  0.0863 -0.0971 -0.7221
  160SAPE   H8R17887   6.613   3.437   7.411  0.7435 -0.3186 -0.3651
  160SAPE   C2917888   6.665   3.238   7.394 -0.1483 -0.1979 -0.0229
  160SAPE   H9R17889   6.771   3.266   7.401  0.0956 -1.5128  1.7934
  160SAPE  C21017890   6.637   3.087   7.388  0.1801  0.4682 -0.2181
  160SAPE  H10R17891   6.672   3.067   7.284 -0.9841  2.6465 -1.0659
  160SAPE  H10S17892   6.529   3.064   7.397  0.2133  0.5879  0.5333
  160SAPE  C21117893   6.706   2.995   7.486  0.4564 -0.7413 -0.0157
  160SAPE  H11R17894   6.815   2.986   7.479  0.4698  0.0199 -0.7848
  160SAPE  C21217895   6.648   2.914   7.581 -0.4174 -0.5691 -0.0572
  160SAPE  H12R17896   6.706   2.849   7.648 -1.6022  0.1318  1.6846
  160SAPE  C21317897   6.501   2.911   7.611 -0.3544 -0.3534  0.1521
  160SAPE  H13R17898   6.438   2.927   7.521 -0.2617 -0.7099  0.0228
  160SAPE  H13S17899   6.478   2.995   7.680 -0.6235  0.1462 -0.5357
  160SAPE  C21417900   6.461   2.777   7.660 -0.0611  0.2658  0.1614
  160SAPE  H14R17901   6.479   2.700   7.583  1.5998 -1.7423  2.4608
  160SAPE  C21517902   6.406   2.738   7.778 -0.5392 -0.2441  0.2598
  160SAPE  H15R17903   6.401   2.631   7.802 -0.2012 -0.1099  0.9531
  160SAPE  C21617904   6.364   2.827   7.890 -0.1671 -0.5354  0.8410
  160SAPE  H16R17905   6.264   2.860   7.853  0.6480 -1.7207 -2.6593
  160SAPE  H16S17906   6.427   2.918   7.884 -0.6869 -0.2760 -1.2923
  160SAPE  C21717907   6.369   2.760   8.028  0.0340  0.1166  1.2904
  160SAPE  H17R17908   6.446   2.680   8.020 -0.3762 -0.0632 -1.7066
  160SAPE  H17S17909   6.280   2.701   8.057  0.7039 -1.0899  0.9733
  160SAPE  C21817910   6.414   2.860   8.132 -0.1916 -0.9786  0.2420
  160SAPE  H18R17911   6.360   2.956   8.116 -0.4587 -1.1821 -0.0831
  160SAPE  H18S17912   6.522   2.879   8.113 -0.7504  0.9060 -1.2343
  160SAPE  C21917913   6.386   2.826   8.278 -0.2623  0.1984  0.1308
  160SAPE  H19R17914   6.443   2.904   8.333 -1.5850  1.5054 -0.3382
  160SAPE  H19S17915   6.446   2.732   8.287 -1.4348 -0.5272  0.4643
  160SAPE  C22017916   6.245   2.816   8.325 -0.2303  0.8551  0.2880
  160SAPE  H20R17917   6.216   2.916   8.365 -1.4265 -0.0313  1.7125
  160SAPE  H20S17918   6.242   2.742   8.408  0.4170 -0.7939 -1.1189
  160SAPE  H20T17919   6.170   2.781   8.251  1.0948 -1.4004 -0.0379
  160SAPE   C3317920   6.012   3.120   7.325 -0.1638  0.5301 -1.1073
  160SAPE   H3X17921   6.120   3.125   7.296  0.3657  2.2224  1.0085
  160SAPE   H3Y17922   5.982   3.014   7.317  0.8986  0.0587  0.9141
  160SAPE   C3417923   6.010   3.161   7.476  0.7545  0.3515  0.2295
  160SAPE   H4X17924   5.910   3.138   7.519  0.5353 -0.5697 -0.7356
  160SAPE   H4Y17925   6.043   3.267   7.473  2.5794 -0.2143 -0.5142
  160SAPE   C3517926   6.115   3.079   7.550  0.4515 -0.3835 -0.1038
  160SAPE   H5X17927   6.213   3.084   7.497  0.5569 -0.9921  0.0285
  160SAPE   H5Y17928   6.091   2.971   7.545  1.0946 -0.5823  0.8898
  160SAPE   C3617929   6.145   3.126   7.690  0.1433 -0.3849  0.4057
  160SAPE   H6X17930   6.159   3.235   7.708 -0.5579 -0.2193 -0.0328
  160SAPE   H6Y17931   6.235   3.072   7.725  1.0175  0.9392  0.2367
  160SAPE   C3717932   6.047   3.083   7.805  0.2489 -0.6485  0.3997
  160SAPE   H7X17933   6.045   2.973   7.821  2.2696 -0.5908  1.2461
  160SAPE   H7Y17934   5.946   3.121   7.780  0.2889 -1.7284 -1.5177
  160SAPE   C3817935   6.081   3.145   7.949  0.4323  0.3024 -0.2319
  160SAPE   H8X17936   6.092   3.255   7.945  1.2915  0.3673  2.7738
  160SAPE   H8Y17937   6.180   3.105   7.982 -0.2195 -1.1983 -0.0295
  160SAPE   C3917938   5.978   3.090   8.048 -0.5037  0.6713 -0.4597
  160SAPE   H9X17939   5.949   2.984   8.028 -0.9900  0.1172  2.8990
  160SAPE   H9Y17940   5.882   3.144   8.034 -0.9536  0.5278  1.9123
  160SAPE  C31017941   6.023   3.110   8.194  0.0900  0.3396 -0.0860
  160SAPE  H10X17942   6.107   3.037   8.193 -1.5357 -1.6010 -0.4558
  160SAPE  H10Y17943   5.950   3.072   8.269  0.3412  1.3397  0.6641
  160SAPE  C31117944   6.068   3.250   8.235 -0.0168 -0.4209  0.0025
  160SAPE  H11X17945   5.984   3.318   8.210  0.0567 -0.0718  0.6796
  160SAPE  H11Y17946   6.155   3.280   8.173  0.5601  2.8574  2.2889
  160SAPE  C31217947   6.117   3.255   8.378 -0.4967 -0.4545  0.3707
  160SAPE  H12X17948   6.215   3.204   8.383 -0.7723 -0.9212  1.0284
  160SAPE  H12Y17949   6.058   3.207   8.459 -0.1450 -1.0576  0.2740
  160SAPE  C31317950   6.158   3.400   8.423 -0.4449  1.5236 -0.1568
  160SAPE  H13X17951   6.175   3.390   8.532  3.5738 -2.4223 -0.9968
  160SAPE  H13Y17952   6.067   3.461   8.402 -1.4452 -0.5353 -2.1318
  160SAPE  C31417953   6.275   3.458   8.346 -0.2699 -0.1709  0.1840
  160SAPE  H14X17954   6.238   3.466   8.241 -1.4542 -0.6038  0.5590
  160SAPE  H14Y17955   6.364   3.392   8.346 -0.4075 -0.3564  0.3809
  160SAPE  C31517956   6.312   3.601   8.391  0.2906 -0.0205  0.1440
  160SAPE  H15X17957   6.223   3.667   8.392 -0.3040 -0.7532 -2.3896
  160SAPE  H15Y17958   6.388   3.629   8.315  1.7064  1.3274  2.0016
  160SAPE  C31617959   6.396   3.603   8.522  1.0818 -0.5376 -0.4762
  160SAPE  H16X17960   6.469   3.521   8.515 -0.2110 -1.7516 -0.0168
  160SAPE  H16Y17961   6.322   3.564   8.594 -0.3206 -1.0615 -2.1573
  160SAPE  C31717962   6.447   3.743   8.557  0.9603 -0.6511 -0.6622
  160SAPE  H17X17963   6.484   3.729   8.661  1.8516  0.5322 -0.7996
  160SAPE  H17Y17964   6.372   3.825   8.547  2.5969  1.5106  3.3467
  160SAPE  C31817965   6.579   3.777   8.475 -0.1590  1.0121  0.3987
  160SAPE  H18X17966   6.599   3.873   8.527 -3.0077  1.1283  1.3425
  160SAPE  H18Y17967   6.563   3.800   8.368 -2.9324 -0.2686  0.4899
  160SAPE  H18Z17968   6.658   3.702   8.498 -1.4925 -1.4090 -2.6669
  161SOPE     N17969   5.460   5.326  10.778  0.1158 -0.4253  0.0554
  161SOPE   HN117970   5.460   5.231  10.821  1.8826  0.5798  2.4248
  161SOPE   HN217971   5.407   5.314  10.690 -4.1519 -0.5046  2.5066
  161SOPE   HN317972   5.555   5.362  10.756 -0.0419  0.9264  1.5005
  161SOPE   C1217973   5.385   5.414  10.873 -0.3718  0.2409  0.3929
  161SOPE  H12A17974   5.433   5.514  10.878  0.8966 -0.2852 -0.8197
  161SOPE  H12B17975   5.402   5.360  10.968  2.2027  0.6375  0.2005
  161SOPE   C1117976   5.234   5.435  10.842 -0.2899  0.1597 -0.4689
  161SOPE  H11A17977   5.217   5.486  10.745 -3.0998  1.6888  0.7725
  161SOPE  H11B17978   5.194   5.500  10.923 -2.6487 -0.0593 -1.4209
  161SOPE     P17979   5.040   5.272  10.858 -0.1394  0.3007 -0.4516
  161SOPE   O1317980   4.981   5.391  10.924 -0.0926 -0.2390  0.1415
  161SOPE   O1417981   5.020   5.139  10.918 -0.2156 -0.9330  0.6689
  161SOPE   O1217982   5.187   5.301  10.827 -0.2553  0.3964 -0.0317
  161SOPE   O1117983   4.981   5.270  10.708 -0.2743 -0.0471  0.6477
  161SOPE    C117984   4.930   5.383  10.639  0.1872 -0.8845  1.1386
  161SOPE    HA17985   4.997   5.465  10.675 -1.8669  0.2011  2.5730
  161SOPE    HB17986   4.832   5.415  10.679  0.1626 -2.1298  2.1037
  161SOPE    C217987   4.926   5.369  10.486  0.6973  0.3299  0.0469
  161SOPE    HS17988   4.921   5.469  10.438  2.2311  0.4624  0.1308
  161SOPE   O2117989   4.808   5.300  10.460  0.5878  0.3027 -0.2061
  161SOPE   C2117990   4.700   5.387  10.443  0.3939  0.3992  0.0363
  161SOPE   O2217991   4.695   5.507  10.444  0.2158  0.7200 -0.7290
  161SOPE   C2217992   4.572   5.299  10.437  0.4771 -0.1599  0.7946
  161SOPE   H2R17993   4.531   5.291  10.541  0.0775  0.6317  0.7106
  161SOPE   H2S17994   4.598   5.203  10.388  1.4298  1.5975 -2.2621
  161SOPE    C317995   5.051   5.299  10.422 -0.1888  0.1294 -0.5352
  161SOPE    HX17996   5.055   5.208  10.486  0.9764  0.2446 -0.4293
  161SOPE    HY17997   5.140   5.362  10.445 -1.2634  1.0072  1.3379
  161SOPE   O3117998   5.036   5.262  10.284 -0.7157 -0.0564 -0.4488
  161SOPE   C3117999   5.149   5.213  10.224  0.7142 -0.7358  0.1168
  161SOPE   O3218000   5.263   5.213  10.274 -0.2199  0.5383  0.1050
  161SOPE   C3218001   5.122   5.181  10.078 -0.0490 -0.3607 -0.2223
  161SOPE   H2X18002   5.113   5.274  10.018 -1.5137  0.5118  1.3304
  161SOPE   H2Y18003   5.017   5.150  10.063 -0.1358  0.9893 -2.6806
  161SOPE   C2318004   4.468   5.369  10.345  0.2157  0.2803 -0.0987
  161SOPE   H3R18005   4.435   5.463  10.393  0.5959  0.0436  0.6377
  161SOPE   H3S18006   4.378   5.305  10.329  0.2731 -0.5136  2.5297
  161SOPE   C2418007   4.514   5.418  10.210 -0.1680  0.2269  0.3760
  161SOPE   H4R18008   4.431   5.462  10.150  1.6349 -0.5105 -2.8015
  161SOPE   H4S18009   4.593   5.496  10.218 -0.6114  0.8131 -0.7964
  161SOPE   C2518010   4.580   5.313  10.122  0.2796  0.0694 -0.3464
  161SOPE   H5R18011   4.661   5.260  10.178 -2.7186 -0.7456  3.3863
  161SOPE   H5S18012   4.505   5.232  10.115 -1.2872  1.4616  0.1872
  161SOPE   C2618013   4.602   5.368   9.980 -0.0285  0.8436  0.3481
  161SOPE   H6R18014   4.507   5.416   9.949 -1.4217 -1.4874  0.8643
  161SOPE   H6S18015   4.678   5.448   9.976  0.6204  0.2694  1.0419
  161SOPE   C2718016   4.645   5.251   9.873  0.1897  0.4735  0.3853
  161SOPE   H7R18017   4.570   5.172   9.896  0.6650  0.1609  0.8762
  161SOPE   H7S18018   4.627   5.287   9.770 -0.4080 -0.9285 -0.0097
  161SOPE   C2818019   4.781   5.186   9.899 -0.3697  0.0695  0.1093
  161SOPE   H8R18020   4.802   5.203  10.007 -0.4971 -0.4534  0.2160
  161SOPE   H8S18021   4.785   5.079   9.868 -0.7348  0.4169 -1.1589
  161SOPE   C2918022   4.884   5.260   9.820  0.0704  0.1127 -0.6050
  161SOPE   H9118023   4.944   5.328   9.883  0.8561 -1.3603  0.2606
  161SOPE  C21018024   4.899   5.243   9.690 -0.0589  0.0677  0.2147
  161SOPE  H10118025   4.965   5.315   9.638 -2.9914  1.8349 -1.1756
  161SOPE  C21118026   4.817   5.146   9.600  0.4823  0.0238 -0.5143
  161SOPE  H11R18027   4.755   5.206   9.529 -3.3204 -1.0975  1.7054
  161SOPE  H11S18028   4.749   5.074   9.651 -0.2614  0.2917 -1.1169
  161SOPE  C21218029   4.915   5.064   9.515  0.0981 -0.1361 -0.1334
  161SOPE  H12R18030   4.984   5.003   9.577 -0.0356 -1.0814 -0.8976
  161SOPE  H12S18031   4.965   5.135   9.445 -2.4071  3.1870  1.3399
  161SOPE  C21318032   4.845   4.982   9.412 -0.2966  0.4495 -0.3431
  161SOPE  H13R18033   4.790   5.048   9.341 -0.0959  1.4472  0.4218
  161SOPE  H13S18034   4.766   4.915   9.453  1.4929 -1.5267 -0.0715
  161SOPE  C21418035   4.937   4.904   9.316 -0.7948  0.2951  0.1506
  161SOPE  H14R18036   5.023   4.863   9.374 -0.3020  0.4900 -0.4374
  161SOPE  H14S18037   4.970   4.970   9.233  0.2096  1.6360  1.5710
  161SOPE  C21518038   4.842   4.797   9.252 -0.5788  0.1148  0.4182
  161SOPE  H15R18039   4.765   4.838   9.183  0.3648 -0.5525 -1.0654
  161SOPE  H15S18040   4.795   4.742   9.337  0.7142 -0.6332  0.6652
  161SOPE  C21618041   4.921   4.694   9.169 -0.2540 -0.6158  0.1525
  161SOPE  H16R18042   4.986   4.638   9.240 -0.2922 -1.5368 -0.5285
  161SOPE  H16S18043   4.980   4.748   9.092 -1.2507 -2.9370 -2.3450
  161SOPE  C21718044   4.830   4.597   9.088  0.1112 -0.2261  0.4904
  161SOPE  H17R18045   4.756   4.644   9.019 -0.2897 -0.9407  0.4269
  161SOPE  H17S18046   4.772   4.550   9.170 -2.0440  1.0314 -0.2450
  161SOPE  C21818047   4.905   4.493   9.004 -0.1517 -0.4677 -0.2604
  161SOPE  H18R18048   4.857   4.473   8.906 -1.1663 -2.3824  0.5820
  161SOPE  H18S18049   4.907   4.396   9.059 -0.0742 -0.0025  0.5707
  161SOPE  H18T18050   5.007   4.533   8.989 -0.9396  1.0545 -1.7532
  161SOPE   C3318051   5.218   5.080  10.025 -0.2260 -0.2791  0.1445
  161SOPE   H3X18052   5.205   4.982  10.075  0.9023 -0.5565 -0.0855
  161SOPE   H3Y18053   5.326   5.108  10.029  0.4793 -2.1843 -3.3168
  161SOPE   C3418054   5.175   5.037   9.883  0.7427 -0.1318  0.6106
  161SOPE   H4X18055   5.164   5.133   9.828 -2.8722 -0.1493  1.1838
  161SOPE   H4Y18056   5.081   4.979   9.877  0.2078  0.9680 -2.0803
  161SOPE   C3518057   5.282   4.950   9.813  0.2232 -0.5140 -0.1997
  161SOPE   H5X18058   5.291   4.856   9.871 -0.6123  1.1765  2.7672
  161SOPE   H5Y18059   5.384   4.993   9.804  0.6516 -1.6386 -0.8672
  161SOPE   C3618060   5.241   4.910   9.663 -0.7160 -0.2343 -1.1152
  161SOPE   H6X18061   5.212   4.994   9.596 -1.5243 -0.0226 -0.5025
  161SOPE   H6Y18062   5.147   4.853   9.681 -1.8325  1.3152 -1.9216
  161SOPE   C3718063   5.362   4.842   9.589  1.0813 -0.5193 -0.0497
  161SOPE   H7X18064   5.406   4.767   9.658  0.3085 -1.7129 -0.8274
  161SOPE   H7Y18065   5.442   4.918   9.575  1.1374 -0.6053 -0.1994
  161SOPE   C3818066   5.315   4.791   9.453 -0.9800  0.7978  0.2590
  161SOPE   H8X18067   5.270   4.877   9.399 -0.1880  2.2417  1.8392
  161SOPE   H8Y18068   5.246   4.706   9.467  1.7237 -1.7771 -1.3287
  161SOPE   C3918069   5.435   4.741   9.366  0.4715  0.7668 -0.2148
  161SOPE   H9X18070   5.483   4.652   9.413 -0.6921  0.2481  0.0079
  161SOPE   H9Y18071   5.512   4.821   9.366  1.1236  0.1472 -0.0436
  161SOPE  C31018072   5.407   4.716   9.220  0.1981 -1.0111  0.3339
  161SOPE  H10X18073   5.321   4.649   9.196 -1.9849  1.8546 -0.1697
  161SOPE  H10Y18074   5.502   4.690   9.169 -0.1854  1.5133 -1.7973
  161SOPE  C31118075   5.368   4.844   9.138  0.3771  1.0103 -0.3212
  161SOPE  H11X18076   5.419   4.936   9.175 -1.0780  1.6115  0.2255
  161SOPE  H11Y18077   5.258   4.854   9.148  0.2732 -0.7083  0.3395
  161SOPE  C31218078   5.417   4.810   8.994 -0.0258 -0.3940  0.0780
  161SOPE  H12X18079   5.398   4.702   8.976 -2.4205  0.1731 -1.0428
  161SOPE  H12Y18080   5.527   4.827   8.992 -0.3080  1.6705  0.5176
  161SOPE  C31318081   5.350   4.883   8.875  0.3102 -0.1810 -0.0081
  161SOPE  H13X18082   5.408   4.857   8.784  1.2957  0.9722  0.2832
  161SOPE  H13Y18083   5.357   4.992   8.892  0.4837 -0.2439  0.3226
  161SOPE  C31418084   5.204   4.836   8.861 -0.0697  0.2494 -0.5938
  161SOPE  H14X18085   5.135   4.866   8.943 -1.0823  1.2567 -1.7945
  161SOPE  H14Y18086   5.215   4.725   8.867  1.8880  0.5013  0.8270
  161SOPE  C31518087   5.132   4.878   8.734 -0.6700 -0.6505  0.2562
  161SOPE  H15X18088   5.195   4.862   8.644 -2.3530 -0.0858 -1.0450
  161SOPE  H15Y18089   5.128   4.989   8.736 -0.7280 -0.6343 -0.4908
  161SOPE  C31618090   5.008   4.794   8.708 -0.1181  0.5889 -0.3410
  161SOPE  H16X18091   5.013   4.709   8.779 -1.6030  2.7970  2.5287
  161SOPE  H16Y18092   5.016   4.754   8.605 -0.1157  1.2180 -0.5843
  161SOPE  C31718093   4.878   4.875   8.732  0.6464  0.6118 -0.6427
  161SOPE  H17X18094   4.792   4.808   8.712 -0.8514  1.4631  2.5761
  161SOPE  H17Y18095   4.865   4.954   8.654  1.4717 -0.3136 -1.7264
  161SOPE  C31818096   4.858   4.936   8.875  0.0536 -0.0283  0.1662
  161SOPE  H18X18097   4.764   4.995   8.881  0.2940  0.2452  1.2342
  161SOPE  H18Y18098   4.932   5.016   8.897 -0.7924  0.9040 -0.3367
  161SOPE  H18Z18099   4.852   4.849   8.944  1.7585 -0.9266 -0.7869
  162SOPE     N18100   3.478   4.257  11.007  1.0138 -0.1848 -0.1299
  162SOPE   HN118101   3.503   4.292  10.912  1.2438  1.1435  0.4129
  162SOPE   HN218102   3.508   4.158  11.021 -0.1631 -0.6148 -0.5686
  162SOPE   HN318103   3.375   4.263  11.022  1.4534 -0.1149  3.2585
  162SOPE   C1218104   3.534   4.329  11.123 -0.5907 -0.1134 -0.7711
  162SOPE  H12A18105   3.636   4.293  11.149  0.2317  3.1563  0.8215
  162SOPE  H12B18106   3.467   4.305  11.208  0.0952  0.0035 -0.1850
  162SOPE   C1118107   3.532   4.481  11.110  0.2996  0.0676  0.3876
  162SOPE  H11A18108   3.543   4.533  11.208 -0.1250  0.0367  0.4533
  162SOPE  H11B18109   3.426   4.501  11.083  0.7394  0.5881 -0.9731
  162SOPE     P18110   3.637   4.671  10.961  0.3494  0.2955 -0.0047
  162SOPE   O1318111   3.717   4.659  10.840 -0.3986 -0.0414  0.0783
  162SOPE   O1418112   3.688   4.751  11.078  0.1635  0.4659 -0.0551
  162SOPE   O1218113   3.628   4.517  11.011 -0.0180 -0.2960 -0.6064
  162SOPE   O1118114   3.489   4.712  10.929 -0.2680  0.6278  0.0026
  162SOPE    C118115   3.398   4.650  10.833 -0.6005 -0.5342 -0.0380
  162SOPE    HA18116   3.298   4.645  10.880 -0.7196 -1.0557 -0.3536
  162SOPE    HB18117   3.424   4.544  10.810 -0.9699 -0.2298 -1.9357
  162SOPE    C218118   3.392   4.724  10.696 -0.3085 -0.0138 -0.5115
  162SOPE    HS18119   3.312   4.679  10.633  1.1382  2.8120 -4.6611
  162SOPE   O2118120   3.516   4.730  10.620 -0.1172  0.6821  0.1954
  162SOPE   C2118121   3.542   4.613  10.567  0.7531  0.0770  1.1150
  162SOPE   O2218122   3.469   4.516  10.565  0.0617 -0.4081  0.3930
  162SOPE   C2218123   3.669   4.632  10.476 -0.0839 -0.1998 -0.3556
  162SOPE   H2R18124   3.753   4.598  10.540  1.3457  2.9775 -0.4036
  162SOPE   H2S18125   3.681   4.742  10.461  2.3667 -0.3620  0.2835
  162SOPE    C318126   3.350   4.872  10.725 -0.0458  0.0265  0.3746
  162SOPE    HX18127   3.425   4.916  10.794 -1.6566 -1.5100  3.2258
  162SOPE    HY18128   3.250   4.875  10.773 -0.6531  2.7218 -0.9651
  162SOPE   O3118129   3.348   4.952  10.607 -0.0965  0.2202  0.2276
  162SOPE   C3118130   3.262   4.932  10.511  0.4179  0.0894  1.1739
  162SOPE   O3218131   3.159   4.865  10.513  0.4750 -0.3480 -0.1175
  162SOPE   C3218132   3.312   4.993  10.380 -0.1107  0.0651 -0.0676
  162SOPE   H2X18133   3.421   5.010  10.397  0.0221 -1.5644  0.7768
  162SOPE   H2Y18134   3.257   5.088  10.364 -1.5306 -0.7845 -0.2851
  162SOPE   C2318135   3.673   4.541  10.352  0.1442  0.6756 -0.3404
  162SOPE   H3R18136   3.647   4.437  10.380 -0.1243  0.9919  0.6244
  162SOPE   H3S18137   3.779   4.529  10.321 -0.4957  1.6519 -3.0331
  162SOPE   C2418138   3.596   4.596  10.228 -0.2315 -0.7937 -0.2223
  162SOPE   H4R18139   3.489   4.572  10.246 -0.1875  1.4893  3.5792
  162SOPE   H4S18140   3.609   4.705  10.212 -0.6568 -0.5178  1.3103
  162SOPE   C2518141   3.645   4.527  10.099 -0.1771  0.3006  0.1008
  162SOPE   H5R18142   3.756   4.537  10.096 -0.0631 -1.2961 -1.7842
  162SOPE   H5S18143   3.626   4.418  10.112 -0.1306  0.4211  1.2288
  162SOPE   C2618144   3.575   4.593   9.978  0.6278  0.3029  0.3754
  162SOPE   H6R18145   3.471   4.630   9.988  0.5496 -0.3843  2.3840
  162SOPE   H6S18146   3.641   4.678   9.950  3.1859 -2.0501 -1.0487
  162SOPE   C2718147   3.568   4.499   9.858 -0.2937 -0.2183  0.3591
  162SOPE   H7R18148   3.661   4.438   9.851  0.1353  0.3562  1.0351
  162SOPE   H7S18149   3.470   4.446   9.859 -0.4876  0.1684  2.1930
  162SOPE   C2818150   3.558   4.583   9.726 -0.1624  0.1659  0.2950
  162SOPE   H8R18151   3.651   4.610   9.671 -2.4434  1.1393 -3.2579
  162SOPE   H8S18152   3.513   4.516   9.650  0.4153  0.3746 -0.2342
  162SOPE   C2918153   3.478   4.709   9.743 -0.4104  0.3971 -0.0065
  162SOPE   H9118154   3.515   4.778   9.820 -0.7909 -0.9286  1.3762
  162SOPE  C21018155   3.359   4.734   9.688  0.2152 -0.1428  0.0439
  162SOPE  H10118156   3.310   4.829   9.712 -1.5400 -1.3209  1.3155
  162SOPE  C21118157   3.280   4.636   9.607  0.7986  0.6829  0.1133
  162SOPE  H11R18158   3.171   4.645   9.626  0.6723 -1.5897  0.6793
  162SOPE  H11S18159   3.314   4.532   9.626  0.9399  0.7236  0.0832
  162SOPE  C21218160   3.315   4.665   9.454  0.0855  0.3977  0.4523
  162SOPE  H12R18161   3.425   4.661   9.439  0.0111  0.5450 -0.1488
  162SOPE  H12S18162   3.279   4.764   9.417  3.2874  0.9157 -1.4431
  162SOPE  C21318163   3.251   4.563   9.365 -0.3456 -0.5202 -0.6101
  162SOPE  H13R18164   3.140   4.561   9.372 -0.4509  2.7286 -0.6379
  162SOPE  H13S18165   3.290   4.461   9.388 -1.6591 -0.3942  2.3795
  162SOPE  C21418166   3.301   4.581   9.218  0.3438  0.3435  0.0325
  162SOPE  H14R18167   3.412   4.577   9.218  0.3173 -0.4565 -0.3578
  162SOPE  H14S18168   3.269   4.679   9.175 -0.0560 -0.8403 -2.4797
  162SOPE  C21518169   3.237   4.472   9.132 -0.0351 -0.5018  0.7345
  162SOPE  H15R18170   3.127   4.482   9.136 -0.1880 -2.3738  1.7032
  162SOPE  H15S18171   3.251   4.368   9.168  3.1256 -0.2502  0.4299
  162SOPE  C21618172   3.284   4.471   8.984  0.1035  0.5986 -0.1092
  162SOPE  H16R18173   3.395   4.483   8.979  0.1118  0.6092  0.0786
  162SOPE  H16S18174   3.250   4.567   8.941  1.7644  0.3807 -1.9502
  162SOPE  C21718175   3.246   4.350   8.902  0.3859 -0.1201 -0.9248
  162SOPE  H17R18176   3.137   4.337   8.885  0.4541 -0.0542 -1.4337
  162SOPE  H17S18177   3.276   4.260   8.960  0.3406 -0.1040 -0.8766
  162SOPE  C21818178   3.303   4.350   8.761 -0.2792  0.1923 -0.4727
  162SOPE  H18R18179   3.414   4.353   8.771 -0.2911 -1.1973  0.2475
  162SOPE  H18S18180   3.253   4.432   8.706  0.0761  1.7921  1.5322
  162SOPE  H18T18181   3.267   4.253   8.721 -0.3351 -0.6412  1.4970
  162SOPE   C3318182   3.299   4.904  10.253  0.3182  0.0127  0.2920
  162SOPE   H3X18183   3.191   4.898  10.227  0.3899 -0.0796  0.0039
  162SOPE   H3Y18184   3.347   4.804  10.263  0.3044  0.0011  0.2422
  162SOPE   C3418185   3.373   4.957  10.131  0.3882  1.1222  0.3409
  162SOPE   H4X18186   3.376   4.880  10.051 -1.0372  1.9990 -0.5627
  162SOPE   H4Y18187   3.482   4.963  10.152  0.3351  0.8290  0.7105
  162SOPE   C3518188   3.319   5.094  10.077  0.6919 -0.1201  0.6833
  162SOPE   H5X18189   3.341   5.176  10.148 -0.1529  0.8201 -0.1264
  162SOPE   H5Y18190   3.210   5.092  10.054  1.2538  2.5214 -2.6777
  162SOPE   C3618191   3.386   5.152   9.948 -0.2836  0.0538  0.1491
  162SOPE   H6X18192   3.495   5.153   9.969 -0.2058 -1.0877 -0.1353
  162SOPE   H6Y18193   3.353   5.258   9.945 -1.1229 -0.2276 -1.1152
  162SOPE   C3718194   3.377   5.065   9.819  1.2281 -0.6578 -0.7618
  162SOPE   H7X18195   3.268   5.060   9.804  1.0464  1.6524 -0.5045
  162SOPE   H7Y18196   3.410   4.961   9.841 -1.0451 -0.7612  2.3573
  162SOPE   C3818197   3.461   5.134   9.705  0.5261  0.2686  0.2413
  162SOPE   H8X18198   3.568   5.115   9.727  0.2706 -1.9350 -0.3012
  162SOPE   H8Y18199   3.431   5.240   9.718 -4.1128 -0.6216 -1.9924
  162SOPE   C3918200   3.424   5.089   9.563 -0.3360 -0.0200 -0.1366
  162SOPE   H9X18201   3.315   5.073   9.571  0.0168 -2.0560  1.0290
  162SOPE   H9Y18202   3.473   4.992   9.540 -0.1256  0.2670 -0.9192
  162SOPE  C31018203   3.450   5.198   9.456 -0.3294  0.1779 -0.4762
  162SOPE  H10X18204   3.560   5.212   9.455 -0.3148  0.1029 -0.0016
  162SOPE  H10Y18205   3.401   5.293   9.487  0.3311  1.0801 -2.1305
  162SOPE  C31118206   3.416   5.166   9.311  0.3650 -0.4526 -0.2532
  162SOPE  H11X18207   3.310   5.136   9.302 -0.0038 -0.1849  2.6504
  162SOPE  H11Y18208   3.461   5.070   9.278  0.9439 -1.1148  2.3653
  162SOPE  C31218209   3.460   5.274   9.214  0.3287  0.5725  0.7989
  162SOPE  H12X18210   3.560   5.311   9.247  3.5027 -3.4390 -3.7187
  162SOPE  H12Y18211   3.387   5.358   9.225  1.3006  1.1427  3.1591
  162SOPE  C31318212   3.476   5.224   9.064 -0.3247 -0.5195  0.0083
  162SOPE  H13X18213   3.383   5.181   9.022  0.7766 -0.8813 -2.1415
  162SOPE  H13Y18214   3.539   5.132   9.067  0.2764 -0.0874  0.5822
  162SOPE  C31418215   3.551   5.317   8.964  0.1668  0.0700  0.6233
  162SOPE  H14X18216   3.658   5.308   8.993 -0.3114 -2.9583  1.6263
  162SOPE  H14Y18217   3.521   5.422   8.984  3.5302  1.0442  0.8665
  162SOPE  C31518218   3.510   5.288   8.816 -0.4958  0.3214 -0.8344
  162SOPE  H15X18219   3.399   5.282   8.811 -0.4236 -1.1922 -0.6441
  162SOPE  H15Y18220   3.555   5.191   8.785  2.1827  0.7616  1.4601
  162SOPE  C31618221   3.568   5.384   8.718 -0.3709  0.2844 -0.5765
  162SOPE  H16X18222   3.541   5.484   8.760  2.9062  1.4394 -1.0348
  162SOPE  H16Y18223   3.527   5.365   8.617 -0.3687 -1.9250 -0.1775
  162SOPE  C31718224   3.725   5.373   8.705  0.1980  0.5536  0.6820
  162SOPE  H17X18225   3.748   5.282   8.647 -0.1535  1.8754 -1.5928
  162SOPE  H17Y18226   3.771   5.374   8.806 -0.9818  0.1433  1.2319
  162SOPE  C31818227   3.790   5.487   8.631  0.2259 -0.2245  0.4220
  162SOPE  H18X18228   3.845   5.559   8.696 -1.9448 -0.7218  2.8802
  162SOPE  H18Y18229   3.711   5.547   8.582  0.8330  1.4428  1.4503
  162SOPE  H18Z18230   3.860   5.445   8.555 -1.2241  0.4145 -1.2825
  163SOPE     N18231   4.541   1.783  11.005 -0.2757  0.3159 -0.1973
  163SOPE   HN118232   4.526   1.720  10.924 -1.6022  0.0498  0.2350
  163SOPE   HN218233   4.606   1.860  10.980 -1.1497  1.2178  0.2614
  163SOPE   HN318234   4.589   1.725  11.077  0.1086 -0.7370 -1.2979
  163SOPE   C1218235   4.409   1.834  11.049 -0.5877  0.0445  0.1495
  163SOPE  H12A18236   4.416   1.901  11.138 -3.0807 -0.2827  0.6195
  163SOPE  H12B18237   4.341   1.747  11.058 -0.2457 -0.0478  2.1834
  163SOPE   C1118238   4.362   1.925  10.931 -0.2453  0.7170 -0.0281
  163SOPE  H11A18239   4.255   1.921  10.960 -0.0779 -1.8621  0.3222
  163SOPE  H11B18240   4.375   1.884  10.828  0.1989  3.6499 -1.2161
  163SOPE     P18241   4.532   2.096  10.855 -0.0882 -0.1211 -0.2142
  163SOPE   O1318242   4.644   1.998  10.853 -0.4478  0.0671 -0.1039
  163SOPE   O1418243   4.572   2.236  10.888 -0.6675  0.0832  0.4915
  163SOPE   O1218244   4.422   2.047  10.954 -0.1357 -0.2012  0.2232
  163SOPE   O1118245   4.464   2.103  10.717 -0.2448 -0.0492 -0.0447
  163SOPE    C118246   4.525   2.082  10.588  0.1848  0.3410  0.3817
  163SOPE    HA18247   4.451   2.099  10.506 -0.3474  0.1560  0.8222
  163SOPE    HB18248   4.550   1.975  10.580  1.7155  0.7527 -0.5560
  163SOPE    C218249   4.650   2.176  10.547  0.0515  0.8126 -0.7146
  163SOPE    HS18250   4.716   2.182  10.635 -0.1775  0.6535 -0.5322
  163SOPE   O2118251   4.604   2.300  10.502  0.2977  0.8460 -0.1250
  163SOPE   C2118252   4.685   2.404  10.510 -0.1675  0.0618  0.5369
  163SOPE   O2218253   4.802   2.397  10.547  0.0255  0.3293  0.1508
  163SOPE   C2218254   4.613   2.525  10.459  0.1756  0.7198 -0.6006
  163SOPE   H2R18255   4.694   2.594  10.426  0.8248  0.1236 -0.2838
  163SOPE   H2S18256   4.571   2.574  10.549 -1.4515 -2.6961  0.6048
  163SOPE    C318257   4.729   2.100  10.432 -0.1881 -0.1347  0.2582
  163SOPE    HX18258   4.785   2.023  10.490  1.7804  0.3918 -0.8821
  163SOPE    HY18259   4.809   2.164  10.388 -0.5110  0.0678 -0.0332
  163SOPE   O3118260   4.647   2.048  10.319 -0.3388  0.7072 -0.1530
  163SOPE   C3118261   4.627   1.914  10.320  0.1917  0.4996 -0.2852
  163SOPE   O3218262   4.684   1.834  10.396 -0.0488  0.1767  0.0689
  163SOPE   C3218263   4.542   1.859  10.210  0.8360  0.0699 -0.0741
  163SOPE   H2X18264   4.445   1.913  10.216 -0.9773 -3.1425  0.7446
  163SOPE   H2Y18265   4.528   1.750  10.223 -2.8503  0.3857 -0.7811
  163SOPE   C2318266   4.514   2.506  10.346 -0.2013 -0.0279  0.4936
  163SOPE   H3R18267   4.420   2.538  10.395  0.0298 -0.5434  1.2831
  163SOPE   H3S18268   4.524   2.404  10.303 -1.3579  0.8181 -1.8862
  163SOPE   C2418269   4.530   2.598  10.224 -0.0164 -0.4251 -0.8113
  163SOPE   H4R18270   4.492   2.701  10.242 -2.1969 -1.1253 -1.2837
  163SOPE   H4S18271   4.639   2.616  10.211 -0.2073  1.3569 -0.0276
  163SOPE   C2518272   4.473   2.536  10.093 -0.0560 -0.5884 -0.6444
  163SOPE   H5R18273   4.527   2.442  10.068  1.5837  0.0555  0.3865
  163SOPE   H5S18274   4.365   2.510  10.097 -0.6632  2.0275  0.7534
  163SOPE   C2618275   4.492   2.642   9.986  0.7375  0.6210 -0.6010
  163SOPE   H6R18276   4.430   2.729  10.015  2.7157  1.9296 -0.1735
  163SOPE   H6S18277   4.599   2.672   9.985  1.3613 -1.4520  0.2615
  163SOPE   C2718278   4.439   2.585   9.852 -0.3369  0.2412  0.8352
  163SOPE   H7R18279   4.488   2.487   9.832 -1.1201  0.6489 -3.6141
  163SOPE   H7S18280   4.328   2.582   9.858 -0.4412 -0.7975 -1.2566
  163SOPE   C2818281   4.471   2.658   9.719  0.1108  0.0406  0.1097
  163SOPE   H8R18282   4.457   2.585   9.636 -0.7960  0.4555 -0.1137
  163SOPE   H8S18283   4.397   2.739   9.703  1.2187  1.2829  1.2007
  163SOPE   C2918284   4.613   2.700   9.719  0.1475 -1.4712 -0.8362
  163SOPE   H9118285   4.650   2.762   9.802 -0.9343 -2.6483  0.5542
  163SOPE  C21018286   4.704   2.671   9.622 -0.5927  0.3296 -0.9978
  163SOPE  H10118287   4.810   2.694   9.639 -0.6321 -0.0092 -0.2491
  163SOPE  C21118288   4.694   2.607   9.490  0.4989 -0.1568 -0.1515
  163SOPE  H11R18289   4.634   2.514   9.496 -1.2675  1.1077  2.4952
  163SOPE  H11S18290   4.796   2.566   9.470  0.1142 -1.4779  0.5334
  163SOPE  C21218291   4.645   2.695   9.380  0.1024  0.0955  0.3953
  163SOPE  H12R18292   4.542   2.730   9.401  0.2352 -1.0336  3.1008
  163SOPE  H12S18293   4.641   2.623   9.296 -0.3227 -0.0594  0.5431
  163SOPE  C21318294   4.744   2.809   9.335  0.3675  0.0383  0.3066
  163SOPE  H13R18295   4.851   2.780   9.334  0.7477  1.2953  1.6879
  163SOPE  H13S18296   4.750   2.899   9.401 -1.0772 -0.5161  1.2106
  163SOPE  C21418297   4.696   2.851   9.195 -0.1363  0.6025  0.1957
  163SOPE  H14R18298   4.602   2.908   9.208  0.8164  1.7753  2.0292
  163SOPE  H14S18299   4.676   2.759   9.135 -0.0343 -0.3672  1.6186
  163SOPE  C21518300   4.783   2.941   9.113  0.1580  0.7509 -0.0823
  163SOPE  H15R18301   4.886   2.900   9.102  1.4728  3.6963  0.7433
  163SOPE  H15S18302   4.800   3.040   9.160 -0.8555  0.4131  1.0119
  163SOPE  C21618303   4.729   2.959   8.975  0.3147 -0.4380  0.7134
  163SOPE  H16R18304   4.627   3.001   8.993  0.4925  0.4724 -0.3607
  163SOPE  H16S18305   4.732   2.868   8.910 -0.8692 -0.3913  0.5714
  163SOPE  C21718306   4.803   3.073   8.904  0.6707  1.0484  0.3826
  163SOPE  H17R18307   4.914   3.068   8.911  0.6873  1.4561  0.3779
  163SOPE  H17S18308   4.779   3.160   8.968  1.1104  1.5107 -0.0737
  163SOPE  C21818309   4.762   3.101   8.757  0.6615  0.8304 -0.1170
  163SOPE  H18R18310   4.801   3.199   8.723  2.4355  0.1705 -0.0537
  163SOPE  H18S18311   4.652   3.118   8.753  0.7484  1.4121 -0.1762
  163SOPE  H18T18312   4.779   3.013   8.691 -0.9636 -0.3425  0.9750
  163SOPE   C3318313   4.592   1.891  10.069 -0.1930  0.8804  0.7070
  163SOPE   H3X18314   4.681   1.830  10.044  0.2111  1.6257  0.3083
  163SOPE   H3Y18315   4.608   1.999  10.053 -1.7868  1.0978  0.4777
  163SOPE   C3418316   4.484   1.846   9.971  0.5850 -0.6453  0.4589
  163SOPE   H4X18317   4.392   1.908   9.978 -0.7802 -2.5686  0.3239
  163SOPE   H4Y18318   4.457   1.740   9.990 -1.2608  0.0888  2.0986
  163SOPE   C3518319   4.539   1.869   9.825 -0.2770 -0.0011 -0.1078
  163SOPE   H5X18320   4.643   1.831   9.817  0.3321  1.6306 -0.1519
  163SOPE   H5Y18321   4.543   1.978   9.804 -3.4521 -0.2028 -2.0816
  163SOPE   C3618322   4.449   1.818   9.716 -0.2847  0.0418 -0.0627
  163SOPE   H6X18323   4.349   1.859   9.744  0.0412 -2.1810  4.8563
  163SOPE   H6Y18324   4.443   1.707   9.719  1.1754 -0.0597 -0.3709
  163SOPE   C3718325   4.489   1.867   9.571  0.2274  0.3437  0.0512
  163SOPE   H7X18326   4.577   1.800   9.557 -1.8319 -2.0683 -1.5949
  163SOPE   H7Y18327   4.515   1.975   9.581  1.3909  0.1634 -0.8745
  163SOPE   C3818328   4.391   1.841   9.456  0.5111  0.4219 -1.0172
  163SOPE   H8X18329   4.297   1.896   9.474 -0.1913 -0.9429 -0.4073
  163SOPE   H8Y18330   4.362   1.733   9.460  1.5461  0.1381 -0.8788
  163SOPE   C3918331   4.443   1.876   9.314 -0.4074  0.2917  0.5727
  163SOPE   H9X18332   4.376   1.845   9.231  0.8852  1.0381 -0.7669
  163SOPE   H9Y18333   4.539   1.821   9.306  0.0949  1.4744 -1.9748
  163SOPE  C31018334   4.469   2.026   9.298 -0.4135  0.3801  0.2646
  163SOPE  H10X18335   4.541   2.066   9.373  0.7022  1.7320 -1.4680
  163SOPE  H10Y18336   4.375   2.078   9.325  0.3440  1.0113  1.7628
  163SOPE  C31118337   4.504   2.081   9.161  0.2753 -0.1102  0.3397
  163SOPE  H11X18338   4.522   2.186   9.130 -0.9529 -0.5355 -1.9409
  163SOPE  H11Y18339   4.418   2.059   9.094  0.3934  0.4461  0.0080
  163SOPE  C31218340   4.629   2.008   9.091  0.1836  0.0981  0.2932
  163SOPE  H12X18341   4.599   1.902   9.077 -1.2432  0.8875 -3.4306
  163SOPE  H12Y18342   4.719   2.006   9.156  0.4321  0.5622 -0.0276
  163SOPE  C31318343   4.660   2.073   8.956  0.0592  0.0286 -0.3236
  163SOPE  H13X18344   4.657   2.184   8.962  0.0914 -0.1327  3.4848
  163SOPE  H13Y18345   4.575   2.051   8.887 -1.2286 -2.1374  1.8481
  163SOPE  C31418346   4.795   2.048   8.877  0.7261 -0.1542 -1.0509
  163SOPE  H14X18347   4.830   1.943   8.890 -0.3795 -0.0696  3.8196
  163SOPE  H14Y18348   4.867   2.101   8.943 -0.4399 -2.2345  1.9973
  163SOPE  C31518349   4.805   2.091   8.732  0.5769 -0.1022 -0.4302
  163SOPE  H15X18350   4.742   2.037   8.658  0.5986  1.5537 -1.6732
  163SOPE  H15Y18351   4.910   2.070   8.702  0.4948 -0.2880 -0.5927
  163SOPE  C31618352   4.773   2.247   8.726  0.0467  0.0204 -0.1485
  163SOPE  H16X18353   4.817   2.309   8.807 -0.5090  0.1155  0.0883
  163SOPE  H16Y18354   4.663   2.258   8.737  0.0887 -0.0529  0.3867
  163SOPE  C31718355   4.815   2.315   8.599  0.1649  0.5196  0.4315
  163SOPE  H17X18356   4.747   2.400   8.572  0.6529  0.2124 -1.9173
  163SOPE  H17Y18357   4.806   2.243   8.515  1.7990 -0.3014  0.9438
  163SOPE  C31818358   4.956   2.383   8.588  0.5243  0.8387 -0.5249
  163SOPE  H18X18359   4.952   2.462   8.510 -0.6630  0.6036 -0.6976
  163SOPE  H18Y18360   5.036   2.311   8.558 -0.8675 -0.0628 -2.1266
  163SOPE  H18Z18361   4.986   2.432   8.683 -0.8514  1.3335 -0.3444
  164SOPE     N18362   6.298   0.926  10.634  0.2501 -0.4154  0.5041
  164SOPE   HN118363   6.326   0.901  10.537  1.9810  2.6720  0.1353
  164SOPE   HN218364   6.198   0.955  10.633  0.8977  1.9568  0.5458
  164SOPE   HN318365   6.344   1.017  10.656  1.2296 -1.4193  2.8302
  164SOPE   C1218366   6.341   0.836  10.747 -0.6334  0.6514  0.1158
  164SOPE  H12A18367   6.261   0.764  10.770  0.8482 -1.1533 -0.2113
  164SOPE  H12B18368   6.346   0.899  10.838  0.9036  0.7677 -0.0306
  164SOPE   C1118369   6.477   0.765  10.702  0.3004  0.2731  0.3297
  164SOPE  H11A18370   6.487   0.673  10.763 -0.8599 -0.2605 -0.2752
  164SOPE  H11B18371   6.565   0.826  10.732  0.8158  0.9002 -2.3118
  164SOPE     P18372   6.583   0.633  10.505 -0.0970  0.3963 -0.3066
  164SOPE   O1318373   6.578   0.619  10.358  0.0551  0.0311  0.0684
  164SOPE   O1418374   6.584   0.507  10.594  0.0443 -0.2266  0.4008
  164SOPE   O1218375   6.485   0.740  10.561  0.3956 -0.3339  0.1027
  164SOPE   O1118376   6.712   0.715  10.537  0.1708  0.2756  0.2907
  164SOPE    C118377   6.738   0.841  10.472 -0.3408  0.1496  0.1983
  164SOPE    HA18378   6.779   0.913  10.546 -0.2271  0.2473  0.0401
  164SOPE    HB18379   6.648   0.889  10.426 -0.6471 -0.6860 -0.0878
  164SOPE    C218380   6.829   0.832  10.345 -0.2879  0.1644 -0.3315
  164SOPE    HS18381   6.812   0.732  10.300 -0.6852 -0.1512  0.5102
  164SOPE   O2118382   6.969   0.836  10.367 -0.1928  0.3076  0.2046
  164SOPE   C2118383   7.029   0.734  10.440 -0.1230  0.0114  0.6978
  164SOPE   O2218384   6.977   0.629  10.474  0.0810 -0.3552  0.4648
  164SOPE   C2218385   7.170   0.775  10.474  0.4603 -0.1899  0.0036
  164SOPE   H2R18386   7.213   0.709  10.553  3.0014 -0.1900 -1.3186
  164SOPE   H2S18387   7.192   0.877  10.513  2.3687 -0.5822  0.0032
  164SOPE    C318388   6.794   0.935  10.233 -0.1033  0.1647  0.2767
  164SOPE    HX18389   6.814   1.039  10.267 -3.9428 -0.0035  3.3861
  164SOPE    HY18390   6.684   0.918  10.233 -0.0671 -0.0683  0.3111
  164SOPE   O3118391   6.855   0.903  10.111  0.1260 -0.1572  0.0579
  164SOPE   C3118392   6.790   0.966  10.005  0.5378 -0.4819 -0.2916
  164SOPE   O3218393   6.704   1.053  10.023  0.2714  0.0561 -0.1061
  164SOPE   C3218394   6.826   0.898   9.879 -0.2579 -0.1185  0.9490
  164SOPE   H2X18395   6.808   0.789   9.887  1.1631 -0.6202 -1.9506
  164SOPE   H2Y18396   6.936   0.908   9.867 -0.4496  2.3422  0.9335
  164SOPE   C2318397   7.270   0.746  10.351 -0.3008  0.0067  0.0602
  164SOPE   H3R18398   7.249   0.645  10.311 -1.0880  0.2753 -0.2197
  164SOPE   H3S18399   7.375   0.761  10.384 -0.5432  1.8654  0.0161
  164SOPE   C2418400   7.246   0.847  10.232 -0.6707 -0.1933  0.4729
  164SOPE   H4R18401   7.151   0.827  10.179  0.2187 -1.2545 -0.7425
  164SOPE   H4S18402   7.233   0.950  10.271 -0.8833 -0.4796  1.1695
  164SOPE   C2518403   7.371   0.863  10.131  0.0653 -0.6596  0.0653
  164SOPE   H5R18404   7.441   0.925  10.191  1.1778 -0.3636 -1.5183
  164SOPE   H5S18405   7.410   0.761  10.113  1.7768  0.5924 -3.7899
  164SOPE   C2618406   7.325   0.912   9.994 -0.1485  0.2772  0.3672
  164SOPE   H6R18407   7.286   1.015  10.010 -0.1526  0.5398 -1.2127
  164SOPE   H6S18408   7.409   0.931   9.923  2.0248 -1.7341  2.3422
  164SOPE   C2718409   7.215   0.828   9.935  0.0894  0.6262 -0.2886
  164SOPE   H7R18410   7.245   0.723   9.957  2.5562  1.1003 -1.2030
  164SOPE   H7S18411   7.115   0.856   9.975 -0.1654  0.7223 -0.9921
  164SOPE   C2818412   7.202   0.854   9.783  1.1677  0.2532 -0.3399
  164SOPE   H8R18413   7.116   0.787   9.760 -0.2496  2.0752 -0.4575
  164SOPE   H8S18414   7.164   0.957   9.771  0.3963 -0.1039 -0.9704
  164SOPE   C2918415   7.313   0.810   9.691 -0.9152 -0.4754  0.5435
  164SOPE   H9118416   7.381   0.735   9.733  2.0939  2.0482  0.3409
  164SOPE  C21018417   7.337   0.860   9.568  1.0975  0.4921  0.0373
  164SOPE  H10118418   7.422   0.818   9.514  1.0249 -0.7804  0.8880
  164SOPE  C21118419   7.250   0.966   9.498  0.3365 -0.2368 -0.5321
  164SOPE  H11R18420   7.229   1.045   9.573  2.2799 -0.9099  0.7590
  164SOPE  H11S18421   7.147   0.930   9.476 -0.8051  2.6506 -0.0940
  164SOPE  C21218422   7.320   1.016   9.370 -0.1215  1.2086  0.5605
  164SOPE  H12R18423   7.427   1.025   9.398  0.7977 -1.5201 -1.7875
  164SOPE  H12S18424   7.281   1.113   9.334 -2.4632 -0.0541 -0.4600
  164SOPE  C21318425   7.303   0.919   9.249 -0.1097  0.9320  0.7699
  164SOPE  H13R18426   7.198   0.920   9.211  0.3902  0.0017 -0.6823
  164SOPE  H13S18427   7.332   0.819   9.289  0.0535  0.9507  0.6982
  164SOPE  C21418428   7.385   0.949   9.125  0.0612  0.6171 -0.6258
  164SOPE  H14R18429   7.492   0.930   9.148 -0.3951 -0.1050  0.9671
  164SOPE  H14S18430   7.380   1.056   9.096  0.1187  0.2305 -2.0950
  164SOPE  C21518431   7.353   0.865   9.005  0.1030 -0.5868  0.4651
  164SOPE  H15R18432   7.249   0.879   8.969 -0.0306 -1.6672  0.3869
  164SOPE  H15S18433   7.363   0.759   9.039 -1.1939 -0.6652  0.6276
  164SOPE  C21618434   7.458   0.882   8.888 -0.5734 -0.7713  0.0761
  164SOPE  H16R18435   7.556   0.871   8.938  0.8330 -1.3643 -2.7575
  164SOPE  H16S18436   7.450   0.983   8.841  2.6856 -0.7445 -0.5123
  164SOPE  C21718437   7.457   0.763   8.785  0.2107 -0.1459 -0.3111
  164SOPE  H17R18438   7.448   0.671   8.846 -3.6126  0.2422 -0.1564
  164SOPE  H17S18439   7.551   0.769   8.728  0.2685  1.1646 -0.1044
  164SOPE  C21818440   7.349   0.776   8.681 -0.1353 -0.2789 -0.2402
  164SOPE  H18R18441   7.352   0.684   8.620  0.0890 -0.2136 -0.3264
  164SOPE  H18S18442   7.361   0.872   8.627 -0.9364  1.0649  1.9134
  164SOPE  H18T18443   7.245   0.767   8.720 -0.0010 -1.5873 -0.1667
  164SOPE   C3318444   6.756   0.956   9.748  0.0501  0.3124 -0.2329
  164SOPE   H3X18445   6.760   1.066   9.753  0.8717  0.2466  0.5196
  164SOPE   H3Y18446   6.649   0.927   9.751  0.0116  0.4323 -0.4539
  164SOPE   C3418447   6.817   0.903   9.617  0.6686  0.3501  0.7138
  164SOPE   H4X18448   6.808   0.794   9.598  2.9770  0.6233 -2.3892
  164SOPE   H4Y18449   6.925   0.927   9.622  0.5026  0.9153  1.8440
  164SOPE   C3518450   6.749   0.969   9.494  1.1249 -0.1364 -0.0653
  164SOPE   H5X18451   6.785   1.074   9.500 -2.3269  1.1422 -0.6592
  164SOPE   H5Y18452   6.640   0.964   9.510  0.5462  2.1408 -3.0249
  164SOPE   C3618453   6.804   0.921   9.357  0.2683  0.3473 -0.2592
  164SOPE   H6X18454   6.774   0.815   9.346 -0.8137  0.4916  1.1119
  164SOPE   H6Y18455   6.914   0.928   9.364  0.4866 -3.8825  2.1726
  164SOPE   C3718456   6.756   1.004   9.229 -0.6645 -0.4646  0.1048
  164SOPE   H7X18457   6.800   1.106   9.238  1.0977 -1.2817  0.8261
  164SOPE   H7Y18458   6.646   1.014   9.245 -1.0996 -0.4403 -2.6210
  164SOPE   C3818459   6.784   0.933   9.091  0.1978 -0.1638 -0.8216
  164SOPE   H8X18460   6.716   0.848   9.073  0.0087 -0.3845  0.8859
  164SOPE   H8Y18461   6.888   0.894   9.097  0.8062  1.7403  3.0573
  164SOPE   C3918462   6.788   1.024   8.964 -0.2985  0.3692  0.4131
  164SOPE   H9X18463   6.879   1.088   8.975 -0.7343  1.0043  0.3505
  164SOPE   H9Y18464   6.705   1.095   8.980  0.6529  1.8599 -1.0309
  164SOPE  C31018465   6.779   0.950   8.827 -0.1410  0.3740  0.9051
  164SOPE  H10X18466   6.680   0.900   8.823  0.0717 -0.1858  2.2261
  164SOPE  H10Y18467   6.854   0.867   8.828 -0.7815 -0.2149  1.2231
  164SOPE  C31118468   6.795   1.033   8.704  0.3449 -0.5384 -0.1040
  164SOPE  H11X18469   6.898   1.071   8.687  0.2892 -0.7790 -1.0271
  164SOPE  H11Y18470   6.736   1.126   8.715  2.2292  1.0064 -2.4138
  164SOPE  C31218471   6.748   0.952   8.576  0.0667 -0.3277  0.0823
  164SOPE  H12X18472   6.647   0.916   8.602 -1.1432  2.1083 -1.1195
  164SOPE  H12Y18473   6.813   0.863   8.560 -1.0249 -1.1680  0.2634
  164SOPE  C31318474   6.745   1.037   8.445 -0.5893 -0.3513  0.1784
  164SOPE  H13X18475   6.854   1.056   8.433 -0.2865 -1.7628  0.6058
  164SOPE  H13Y18476   6.684   1.129   8.463  1.2949  0.6044  1.9428
  164SOPE  C31418477   6.685   0.974   8.313  0.6820 -0.3377 -0.7304
  164SOPE  H14X18478   6.575   0.970   8.326  0.9369  0.3098  1.8790
  164SOPE  H14Y18479   6.726   0.871   8.318  1.0727 -0.1022  1.8355
  164SOPE  C31518480   6.718   1.036   8.179 -0.1828 -0.3856 -0.0790
  164SOPE  H15X18481   6.662   0.972   8.108  0.1209 -1.5048  0.6744
  164SOPE  H15Y18482   6.826   1.030   8.153  0.2762 -2.1775  2.1422
  164SOPE  C31618483   6.681   1.189   8.165  0.2724 -0.3570 -0.0046
  164SOPE  H16X18484   6.728   1.239   8.253 -0.0600  2.2698 -1.2759
  164SOPE  H16Y18485   6.574   1.218   8.170  0.1378 -1.1051  2.0920
  164SOPE  C31718486   6.746   1.262   8.044  0.2614  0.4183 -0.1418
  164SOPE  H17X18487   6.721   1.202   7.954  2.4446  1.8581 -1.7649
  164SOPE  H17Y18488   6.857   1.260   8.051  0.3592  0.3125 -1.5700
  164SOPE  C31818489   6.702   1.412   8.021  0.8088  0.0225  0.1277
  164SOPE  H18X18490   6.701   1.456   8.123  1.3411  0.7367 -0.1796
  164SOPE  H18Y18491   6.596   1.417   7.987  0.8667  1.2804  0.1365
  164SOPE  H18Z18492   6.768   1.473   7.957 -2.9287  2.9756 -1.0660
  165SOPE     N18493   5.405   1.881  10.706  0.2364 -0.2258 -0.2148
  165SOPE   HN118494   5.323   1.931  10.747 -0.4823 -1.4549 -0.1329
  165SOPE   HN218495   5.468   1.950  10.661  0.8600 -0.7437 -0.1382
  165SOPE   HN318496   5.376   1.821  10.626 -0.2234 -0.6925  0.2958
  165SOPE   C1218497   5.458   1.787  10.806  0.0414  0.2176 -0.1877
  165SOPE  H12A18498   5.477   1.841  10.902  0.4250 -0.3510  0.0561
  165SOPE  H12B18499   5.559   1.760  10.767  0.1990  1.6391 -0.7859
  165SOPE   C1118500   5.367   1.672  10.820  0.0930  0.0548 -0.0430
  165SOPE  H11A18501   5.264   1.713  10.820  0.1714  0.2839  1.9212
  165SOPE  H11B18502   5.393   1.615  10.912  0.0186  1.0464  0.6020
  165SOPE     P18503   5.440   1.443  10.692 -0.3679 -0.0185 -0.1341
  165SOPE   O1318504   5.321   1.353  10.672 -0.2612  0.6806  0.2589
  165SOPE   O1418505   5.537   1.408  10.796 -0.8741 -0.4715  0.2056
  165SOPE   O1218506   5.392   1.590  10.704  0.7541 -0.0102  0.2698
  165SOPE   O1118507   5.509   1.448  10.554 -0.5118  0.6626  0.4479
  165SOPE    C118508   5.541   1.563  10.481  0.2219 -0.7670 -0.2101
  165SOPE    HA18509   5.649   1.553  10.456  0.6300 -2.4291  2.0114
  165SOPE    HB18510   5.525   1.660  10.533  1.9237 -1.5309  1.8100
  165SOPE    C218511   5.459   1.572  10.348  0.1177 -0.6815  0.8425
  165SOPE    HS18512   5.491   1.668  10.305  2.2361 -1.7097  0.0612
  165SOPE   O2118513   5.317   1.551  10.370  0.7941 -0.4206  0.1472
  165SOPE   C2118514   5.263   1.657  10.431  0.0336 -0.5165 -0.2301
  165SOPE   O2218515   5.321   1.762  10.446  0.0658  0.1485  0.2687
  165SOPE   C2218516   5.121   1.617  10.474  0.0474 -0.5674 -0.2596
  165SOPE   H2R18517   5.117   1.623  10.585 -0.5257  0.8380 -0.3471
  165SOPE   H2S18518   5.092   1.513  10.448  1.8355 -1.2260  0.3345
  165SOPE    C318519   5.495   1.456  10.251 -0.1698  0.1924  0.4114
  165SOPE    HX18520   5.460   1.358  10.290 -0.0123 -0.0415 -0.0278
  165SOPE    HY18521   5.605   1.455  10.238 -0.1298  0.7749  0.6981
  165SOPE   O3118522   5.428   1.470  10.124 -0.2291  0.1037  0.1012
  165SOPE   C3118523   5.506   1.510  10.024  0.5216  0.0882 -0.3443
  165SOPE   O3218524   5.620   1.550  10.040 -0.1163  0.0160  0.3069
  165SOPE   C3218525   5.438   1.513   9.881  0.2931  0.7113  0.0700
  165SOPE   H2X18526   5.360   1.591   9.882 -0.4122  0.0185 -0.4371
  165SOPE   H2Y18527   5.378   1.420   9.869 -0.8100  1.5460 -0.9369
  165SOPE   C2318528   5.023   1.724  10.422 -0.6368  0.3858 -0.0057
  165SOPE   H3R18529   5.056   1.827  10.450 -0.7805  0.7182 -1.0321
  165SOPE   H3S18530   4.933   1.691  10.478 -0.8829 -0.4372 -0.8640
  165SOPE   C2418531   4.989   1.716  10.271  0.2223  0.2925 -0.4214
  165SOPE   H4R18532   4.960   1.613  10.242  1.9881 -0.2496 -0.2990
  165SOPE   H4S18533   4.899   1.781  10.261 -1.0183 -1.5653 -1.6791
  165SOPE   C2518534   5.093   1.778  10.176 -0.4906  0.0411  0.0637
  165SOPE   H5R18535   5.105   1.883  10.211 -2.1398 -0.2471  1.6094
  165SOPE   H5S18536   5.189   1.726  10.194 -1.6730 -2.4361 -0.5419
  165SOPE   C2618537   5.062   1.776  10.023 -0.5476 -0.4353 -0.1504
  165SOPE   H6R18538   4.966   1.824   9.994 -0.8774 -0.0177  1.5338
  165SOPE   H6S18539   5.141   1.840   9.979 -0.0366 -0.1373  1.1509
  165SOPE   C2718540   5.053   1.641   9.954  0.5533  0.3891  0.3360
  165SOPE   H7R18541   5.144   1.586   9.987  0.0238 -0.4132  0.4645
  165SOPE   H7S18542   4.956   1.604   9.994 -0.9092  1.3028 -2.2067
  165SOPE   C2818543   5.056   1.656   9.797  0.2890 -0.2062 -0.6386
  165SOPE   H8R18544   5.154   1.698   9.764  1.7679 -2.6544  0.5194
  165SOPE   H8S18545   5.055   1.548   9.771 -2.3510  0.0068 -1.5559
  165SOPE   C2918546   4.942   1.730   9.736  0.1117 -0.2933  0.6113
  165SOPE   H9118547   4.845   1.732   9.788  0.3318 -0.9082  1.0494
  165SOPE  C21018548   4.950   1.789   9.615 -0.0454 -0.5200  0.0773
  165SOPE  H10118549   4.860   1.839   9.577  0.4029 -1.1907 -1.9496
  165SOPE  C21118550   5.062   1.804   9.517 -1.3028 -0.2282  0.5908
  165SOPE  H11R18551   5.154   1.758   9.559 -2.8431 -2.3403  1.7851
  165SOPE  H11S18552   5.090   1.910   9.501  2.1932 -1.1844 -0.0891
  165SOPE  C21218553   5.014   1.739   9.381 -0.1103  0.7072 -0.4868
  165SOPE  H12R18554   4.929   1.801   9.344  1.3783  3.4364  0.5196
  165SOPE  H12S18555   4.996   1.631   9.397  0.9370  0.4345 -1.0857
  165SOPE  C21318556   5.115   1.752   9.261 -0.2084 -1.2477 -0.0264
  165SOPE  H13R18557   5.214   1.718   9.299 -0.0540 -0.3152  0.4104
  165SOPE  H13S18558   5.127   1.860   9.236  1.2797 -1.0221  1.6168
  165SOPE  C21418559   5.079   1.664   9.141  0.1615  0.6046  0.4404
  165SOPE  H14R18560   4.985   1.699   9.094 -1.2946  1.6411  3.9946
  165SOPE  H14S18561   5.070   1.557   9.169  0.4466  0.1947 -0.9687
  165SOPE  C21518562   5.191   1.661   9.031  0.6780 -0.0320 -0.4076
  165SOPE  H15R18563   5.293   1.635   9.066  1.6116  2.4228 -1.2556
  165SOPE  H15S18564   5.210   1.763   8.993 -1.3933 -0.4246 -2.6372
  165SOPE  C21618565   5.167   1.585   8.903  0.7920  0.2126 -0.6605
  165SOPE  H16R18566   5.249   1.603   8.830  0.6304 -2.1326 -1.4649
  165SOPE  H16S18567   5.071   1.623   8.862 -0.5910 -2.1529  0.2819
  165SOPE  C21718568   5.156   1.436   8.932  0.3752  0.2661  0.8668
  165SOPE  H17R18569   5.054   1.418   8.973 -0.7405  3.2480 -0.5215
  165SOPE  H17S18570   5.235   1.408   9.005  0.5657 -1.2742  0.0879
  165SOPE  C21818571   5.178   1.359   8.798 -0.5801  0.3518 -0.3261
  165SOPE  H18R18572   5.185   1.251   8.824  0.2527  0.9722  2.2435
  165SOPE  H18S18573   5.275   1.396   8.760 -0.7486  0.3419 -0.7669
  165SOPE  H18T18574   5.102   1.394   8.725  0.2685  2.4994 -0.2263
  165SOPE   C3318575   5.538   1.526   9.763 -0.3915 -0.4567  0.4970
  165SOPE   H3X18576   5.627   1.461   9.780 -0.0712  0.5185  2.8463
  165SOPE   H3Y18577   5.576   1.630   9.771 -0.6831 -0.3786  0.9225
  165SOPE   C3418578   5.474   1.501   9.628  0.6456 -0.3847 -0.3836
  165SOPE   H4X18579   5.373   1.546   9.626  0.0195 -1.6899  0.9716
  165SOPE   H4Y18580   5.467   1.391   9.610  1.8263 -0.6177  0.4736
  165SOPE   C3518581   5.558   1.555   9.510  1.1362  0.1678 -0.7828
  165SOPE   H5X18582   5.658   1.507   9.512  0.8106 -0.5750 -1.7989
  165SOPE   H5Y18583   5.566   1.665   9.518  1.6663  0.2147 -1.7852
  165SOPE   C3618584   5.498   1.519   9.366  0.0259  0.5163  0.2531
  165SOPE   H6X18585   5.391   1.546   9.355 -0.7912 -2.0793  1.5833
  165SOPE   H6Y18586   5.489   1.409   9.379  0.0392  0.8419  3.3558
  165SOPE   C3718587   5.573   1.572   9.241 -0.0018 -0.5176  0.4137
  165SOPE   H7X18588   5.682   1.559   9.258  0.0627 -0.9780 -0.3317
  165SOPE   H7Y18589   5.548   1.680   9.225 -0.3380 -0.3547  1.9614
  165SOPE   C3818590   5.541   1.482   9.116 -0.4256  0.4846  0.2927
  165SOPE   H8X18591   5.432   1.467   9.103 -0.3508  1.3912 -1.4153
  165SOPE   H8Y18592   5.587   1.384   9.141  1.3429  0.4142 -2.9546
  165SOPE   C3918593   5.601   1.536   8.985 -0.1465  0.0624 -0.1520
  165SOPE   H9X18594   5.712   1.529   8.974 -0.2881  0.4225 -1.8993
  165SOPE   H9Y18595   5.557   1.636   8.966  0.6032  0.9244  2.4134
  165SOPE  C31018596   5.533   1.469   8.857 -0.3671  0.7313  0.7069
  165SOPE  H10X18597   5.430   1.509   8.859  0.0616  1.8540  0.7062
  165SOPE  H10Y18598   5.523   1.360   8.878 -3.0442  1.0362  1.1775
  165SOPE  C31118599   5.608   1.510   8.726  0.0350 -0.3216  0.2119
  165SOPE  H11X18600   5.712   1.473   8.727  0.2244  0.1341 -1.1648
  165SOPE  H11Y18601   5.619   1.620   8.712 -0.1759 -0.2471  0.6235
  165SOPE  C31218602   5.537   1.448   8.607  0.1882  0.4424  0.4762
  165SOPE  H12X18603   5.465   1.525   8.573  0.0669  1.0704  2.0957
  165SOPE  H12Y18604   5.477   1.361   8.638  0.9281 -0.5950 -0.9366
  165SOPE  C31318605   5.632   1.400   8.495  0.2879  0.1128 -0.5524
  165SOPE  H13X18606   5.686   1.314   8.539  0.7771 -0.5257 -2.3519
  165SOPE  H13Y18607   5.705   1.478   8.463  0.6197  0.8084  1.7900
  165SOPE  C31418608   5.555   1.353   8.373  0.5253 -0.4333  0.1519
  165SOPE  H14X18609   5.486   1.437   8.350  2.2341  1.7011  2.5804
  165SOPE  H14Y18610   5.504   1.257   8.396 -1.8702  1.3679  2.6188
  165SOPE  C31518611   5.649   1.330   8.254  0.3613 -0.6765  0.2342
  165SOPE  H15X18612   5.703   1.235   8.274  1.2296  0.1385  1.9515
  165SOPE  H15Y18613   5.731   1.405   8.249 -0.8700  0.7598  0.9858
  165SOPE  C31618614   5.568   1.322   8.123  0.0763 -0.1782  0.1080
  165SOPE  H16X18615   5.480   1.389   8.119 -0.1302 -0.3175  1.8841
  165SOPE  H16Y18616   5.528   1.219   8.128 -0.8087  0.0961 -1.1035
  165SOPE  C31718617   5.648   1.360   7.998  0.7296 -0.4848 -0.1212
  165SOPE  H17X18618   5.736   1.293   8.011  0.0331 -1.2482  0.7876
  165SOPE  H17Y18619   5.689   1.463   7.997  3.4362 -1.5212  0.0715
  165SOPE  C31818620   5.577   1.318   7.873 -0.0073 -0.1435  0.3016
  165SOPE  H18X18621   5.472   1.353   7.879 -0.3381 -1.1217  0.3949
  165SOPE  H18Y18622   5.581   1.207   7.866  1.1278 -0.0807 -0.1418
  165SOPE  H18Z18623   5.631   1.355   7.783 -3.2531  1.2380 -1.1581
  166SOPE     N18624   2.475   1.702  10.452 -0.3885  0.1709 -0.6252
  166SOPE   HN118625   2.577   1.724  10.449 -0.5123  0.7587 -0.5115
  166SOPE   HN218626   2.459   1.649  10.541 -1.8827 -0.7116 -1.4082
  166SOPE   HN318627   2.453   1.649  10.366  0.1430 -1.2274  0.0797
  166SOPE   C1218628   2.411   1.836  10.443  0.0541 -0.2943  0.8898
  166SOPE  H12A18629   2.300   1.827  10.438  0.0078  1.3713 -2.3008
  166SOPE  H12B18630   2.440   1.888  10.349  0.0245  0.7323  1.4401
  166SOPE   C1118631   2.453   1.917  10.569 -0.5836 -0.3473  0.1940
  166SOPE  H11A18632   2.389   2.008  10.577 -2.2846 -1.4912 -0.1399
  166SOPE  H11B18633   2.557   1.954  10.551 -1.4262  2.2788  0.4239
  166SOPE     P18634   2.313   1.829  10.768 -0.1989  0.2188 -0.2186
  166SOPE   O1318635   2.262   1.962  10.814  0.1876 -0.0800  0.3848
  166SOPE   O1418636   2.318   1.731  10.883 -0.2588  0.7081 -0.4237
  166SOPE   O1218637   2.455   1.836  10.692 -0.5485  0.5432 -0.3147
  166SOPE   O1118638   2.214   1.768  10.661 -0.2956  0.3219  0.1172
  166SOPE    C118639   2.085   1.715  10.707 -0.0105 -0.2290  0.2082
  166SOPE    HA18640   2.039   1.796  10.767  0.7962  0.7376 -0.4370
  166SOPE    HB18641   2.099   1.633  10.780  4.2429 -0.1280 -0.3569
  166SOPE    C218642   1.988   1.671  10.593 -0.4768  0.4845 -0.3107
  166SOPE    HS18643   2.044   1.589  10.542 -2.2959  0.6772 -2.7168
  166SOPE   O2118644   1.966   1.790  10.517 -0.5668 -0.5774 -0.0168
  166SOPE   C2118645   1.944   1.772  10.388 -0.0823  0.5967 -0.1136
  166SOPE   O2218646   1.946   1.660  10.330 -0.1699  0.1581  0.0500
  166SOPE   C2218647   1.902   1.900  10.306 -0.9598 -0.9036 -0.3715
  166SOPE   H2R18648   1.988   1.970  10.308 -2.5091  1.0829 -0.9852
  166SOPE   H2S18649   1.822   1.953  10.363 -0.3735 -0.8689  0.4333
  166SOPE    C318650   1.846   1.634  10.645 -0.0293 -0.4800 -0.3888
  166SOPE    HX18651   1.794   1.713  10.703 -0.5744  0.6918 -2.3995
  166SOPE    HY18652   1.864   1.556  10.721  3.3852  1.9632  1.4354
  166SOPE   O3118653   1.755   1.604  10.538 -0.1825  0.2849 -0.4115
  166SOPE   C3118654   1.760   1.479  10.496 -0.6015  0.2721  0.1738
  166SOPE   O3218655   1.831   1.393  10.537 -0.7227  0.3381 -0.6026
  166SOPE   C3218656   1.646   1.464  10.390  0.1472 -0.9246 -0.2998
  166SOPE   H2X18657   1.656   1.552  10.323  1.6841  0.0211  1.1163
  166SOPE   H2Y18658   1.549   1.466  10.445 -1.1603 -0.7775 -2.5764
  166SOPE   C2318659   1.874   1.866  10.156 -0.7173  0.0199  0.4449
  166SOPE   H3R18660   1.789   1.794  10.153 -0.3575 -0.3694 -1.9201
  166SOPE   H3S18661   1.966   1.814  10.122 -0.7796 -0.6120  1.2299
  166SOPE   C2418662   1.853   1.981  10.055 -0.1564  0.2867  0.4685
  166SOPE   H4R18663   1.753   2.028  10.068  0.3880  1.7040 -0.3803
  166SOPE   H4S18664   1.929   2.058  10.082 -0.9050  0.5892  1.7706
  166SOPE   C2518665   1.878   1.936   9.912 -0.0548 -0.1019  0.4041
  166SOPE   H5R18666   1.952   1.854   9.905 -1.4846 -1.2366 -2.2142
  166SOPE   H5S18667   1.783   1.887   9.881 -0.9163  1.9636 -0.3338
  166SOPE   C2618668   1.903   2.055   9.809 -0.2073 -0.5047  0.1946
  166SOPE   H6R18669   1.814   2.121   9.822 -0.0054 -0.1147 -0.3741
  166SOPE   H6S18670   1.989   2.121   9.831 -0.4387  0.0375 -0.5085
  166SOPE   C2718671   1.906   2.012   9.663 -0.1789 -0.0926 -0.1802
  166SOPE   H7R18672   1.978   1.929   9.677 -0.3621 -0.1859  0.2018
  166SOPE   H7S18673   1.807   1.979   9.626  0.1398 -0.0471 -1.0940
  166SOPE   C2818674   1.968   2.107   9.562 -0.5565  0.4277  0.1455
  166SOPE   H8R18675   1.916   2.206   9.558 -0.5534  0.5707  2.7532
  166SOPE   H8S18676   2.069   2.130   9.602  1.2136 -1.1356 -3.2171
  166SOPE   C2918677   1.988   2.055   9.424 -0.1783  0.1992  0.2554
  166SOPE   H9118678   2.084   2.008   9.398 -1.1893 -1.7257 -0.1700
  166SOPE  C21018679   1.892   2.074   9.332 -0.2563 -1.0070 -0.2121
  166SOPE  H10118680   1.910   2.032   9.232  1.6246 -1.4478  0.2892
  166SOPE  C21118681   1.760   2.141   9.357 -0.1033  1.0848  0.7925
  166SOPE  H11R18682   1.761   2.246   9.393 -0.5977  0.7719  1.7661
  166SOPE  H11S18683   1.701   2.088   9.436  0.9332  0.8997  1.4462
  166SOPE  C21218684   1.659   2.145   9.241  0.1476 -0.2520 -0.8629
  166SOPE  H12R18685   1.571   2.196   9.285  0.8682  0.8586 -0.6851
  166SOPE  H12S18686   1.618   2.042   9.230 -1.5573  0.3559 -0.3407
  166SOPE  C21318687   1.711   2.217   9.122 -0.0055  0.4714 -0.0163
  166SOPE  H13R18688   1.788   2.156   9.069 -1.3912 -2.4666  1.2164
  166SOPE  H13S18689   1.760   2.307   9.164  1.9960  0.9588 -3.2498
  166SOPE  C21418690   1.591   2.250   9.026  0.1460  0.0951 -0.3051
  166SOPE  H14R18691   1.626   2.344   8.979  2.3613  0.6598  2.2961
  166SOPE  H14S18692   1.501   2.260   9.091  1.0429  0.0882  0.9634
  166SOPE  C21518693   1.566   2.140   8.924 -0.7567  0.1046 -0.9817
  166SOPE  H15R18694   1.581   2.041   8.972  0.8998  0.8305  0.0585
  166SOPE  H15S18695   1.651   2.141   8.852  0.3217  0.3021  0.2535
  166SOPE  C21618696   1.432   2.153   8.864  0.0817  0.6843 -0.4475
  166SOPE  H16R18697   1.391   2.252   8.834 -1.8506 -0.4489 -1.6706
  166SOPE  H16S18698   1.358   2.119   8.939 -0.8121  1.7351 -0.8363
  166SOPE  C21718699   1.420   2.055   8.742  0.2562  0.2594 -0.4295
  166SOPE  H17R18700   1.468   1.961   8.775 -0.5518  0.4733  1.4605
  166SOPE  H17S18701   1.487   2.094   8.662  2.1851  1.3911  1.6827
  166SOPE  C21818702   1.281   2.034   8.688  0.6099 -0.3679 -0.4184
  166SOPE  H18R18703   1.289   1.993   8.585  2.7074  0.1240 -0.4684
  166SOPE  H18S18704   1.223   2.129   8.695  0.1752 -0.7314  0.8971
  166SOPE  H18T18705   1.223   1.964   8.752  1.6233 -1.7592 -0.9936
  166SOPE   C3318706   1.659   1.339  10.304 -0.2962  0.0362 -0.0684
  166SOPE   H3X18707   1.559   1.310  10.265 -0.0611 -2.9743  1.4033
  166SOPE   H3Y18708   1.681   1.243  10.355  1.9612 -0.4003 -1.8010
  166SOPE   C3418709   1.757   1.371  10.188  0.4513 -0.0611  0.4753
  166SOPE   H4X18710   1.789   1.276  10.140 -0.5906  1.0184 -2.4668
  166SOPE   H4Y18711   1.840   1.429  10.234  1.1608  0.2444 -1.1439
  166SOPE   C3518712   1.686   1.445  10.077 -0.1710  0.3294 -0.0933
  166SOPE   H5X18713   1.655   1.543  10.120 -1.3523 -0.3370  0.5979
  166SOPE   H5Y18714   1.593   1.401  10.037 -0.0995  1.1787 -1.2191
  166SOPE   C3618715   1.785   1.475   9.958 -0.3214  0.3228  0.2158
  166SOPE   H6X18716   1.824   1.373   9.936  0.9446  0.8659 -0.0583
  166SOPE   H6Y18717   1.870   1.538   9.991 -0.1713  0.0902  0.2726
  166SOPE   C3718718   1.711   1.530   9.839 -0.3312  0.2128 -0.4121
  166SOPE   H7X18719   1.646   1.610   9.882 -0.2579  0.7290 -1.2526
  166SOPE   H7Y18720   1.641   1.455   9.798 -1.4115  1.1365 -0.2923
  166SOPE   C3818721   1.809   1.578   9.728 -0.1228  0.2587 -0.1450
  166SOPE   H8X18722   1.900   1.517   9.709  1.0688  2.3899 -1.4439
  166SOPE   H8Y18723   1.857   1.676   9.749  0.6369 -0.4416  1.4572
  166SOPE   C3918724   1.736   1.603   9.594  0.4837 -0.1624  0.2284
  166SOPE   H9X18725   1.651   1.670   9.618  0.4594  1.3558 -3.8066
  166SOPE   H9Y18726   1.688   1.506   9.568 -0.9228 -0.5641  3.9398
  166SOPE  C31018727   1.827   1.647   9.489 -0.3991 -0.1927  0.0518
  166SOPE  H10X18728   1.918   1.584   9.494  0.7230  1.5139  1.5147
  166SOPE  H10Y18729   1.859   1.750   9.514 -1.9776  0.2984  0.0628
  166SOPE  C31118730   1.759   1.659   9.352  0.3042 -0.0477 -0.3996
  166SOPE  H11X18731   1.674   1.728   9.368  0.7867  0.6604 -0.8869
  166SOPE  H11Y18732   1.722   1.562   9.312 -0.2873 -0.7186  1.6863
  166SOPE  C31218733   1.857   1.708   9.247 -0.2100 -0.2362  0.0083
  166SOPE  H12X18734   1.945   1.641   9.237  0.6854  1.1487 -1.6381
  166SOPE  H12Y18735   1.896   1.808   9.278 -1.1893  0.8528 -2.1785
  166SOPE  C31318736   1.799   1.717   9.105 -0.2411 -0.5217  0.2542
  166SOPE  H13X18737   1.719   1.791   9.088 -0.0840 -0.2774  0.5773
  166SOPE  H13Y18738   1.758   1.618   9.073 -3.4361  0.1534  2.0586
  166SOPE  C31418739   1.920   1.736   9.012  0.2577  0.6028  0.1352
  166SOPE  H14X18740   1.982   1.644   9.017  0.3782  0.7395  1.6101
  166SOPE  H14Y18741   1.994   1.805   9.058 -0.0274  1.1778 -0.2738
  166SOPE  C31518742   1.881   1.778   8.871  0.2810  0.3110 -0.5260
  166SOPE  H15X18743   1.974   1.796   8.814  2.3149 -0.4965  2.4312
  166SOPE  H15Y18744   1.815   1.867   8.881 -2.0414 -1.7159  3.7309
  166SOPE  C31618745   1.818   1.664   8.792  0.2199 -0.4610  0.6010
  166SOPE  H16X18746   1.745   1.612   8.857  0.0878 -1.3136 -0.2057
  166SOPE  H16Y18747   1.890   1.585   8.760  2.3821  2.1220 -1.0876
  166SOPE  C31718748   1.760   1.695   8.661  0.1097 -0.3880  0.2466
  166SOPE  H17X18749   1.732   1.606   8.600  0.0453  0.7149 -1.3799
  166SOPE  H17Y18750   1.823   1.766   8.603 -1.0113  0.8171  0.4844
  166SOPE  C31818751   1.632   1.777   8.674 -0.2255  0.0646  0.3957
  166SOPE  H18X18752   1.578   1.753   8.768  2.1064 -1.2654  1.4441
  166SOPE  H18Y18753   1.564   1.771   8.586 -2.1679  0.2944  1.8425
  166SOPE  H18Z18754   1.654   1.885   8.686 -2.1188  0.4256  0.8107
  167SOPE     N18755   3.191   5.968   5.989 -0.4131  0.2192 -0.0596
  167SOPE   HN118756   3.266   5.965   6.062  0.1913  1.9950 -0.5898
  167SOPE   HN218757   3.093   5.966   6.023 -1.0681  0.3597 -1.9324
  167SOPE   HN318758   3.194   5.879   5.936  0.4641  0.2330 -0.0515
  167SOPE   C1218759   3.228   6.093   5.907  0.3485  0.7150 -0.4085
  167SOPE  H12A18760   3.153   6.101   5.825  1.8325 -3.1838 -2.3155
  167SOPE  H12B18761   3.328   6.068   5.866  0.6493  1.8500 -0.3724
  167SOPE   C1118762   3.232   6.219   5.989 -0.7215  0.6758  0.0545
  167SOPE  H11A18763   3.124   6.233   6.010 -0.7897 -1.5401  1.3918
  167SOPE  H11B18764   3.258   6.313   5.936  1.0201 -0.4618 -1.1570
  167SOPE     P18765   3.318   6.301   6.223  0.0119 -0.5064 -0.2112
  167SOPE   O1318766   3.265   6.434   6.181 -0.3823 -0.4576 -0.2847
  167SOPE   O1418767   3.454   6.303   6.281 -0.3119 -0.3185  0.6573
  167SOPE   O1218768   3.319   6.200   6.100 -0.0502 -0.3438 -0.2606
  167SOPE   O1118769   3.214   6.246   6.334 -0.4088  0.0046 -0.1027
  167SOPE    C118770   3.246   6.110   6.378  0.1614  0.2715  1.1915
  167SOPE    HA18771   3.350   6.072   6.369  0.0558  0.3859 -0.6511
  167SOPE    HB18772   3.179   6.046   6.317 -0.2213  0.8912  0.9656
  167SOPE    C218773   3.197   6.095   6.524 -1.4983 -0.0484  0.0045
  167SOPE    HS18774   3.197   5.988   6.556  0.4225  0.3409  1.4223
  167SOPE   O2118775   3.070   6.151   6.550 -0.0186 -0.0627  0.0566
  167SOPE   C2118776   2.970   6.095   6.481  0.1544 -0.2491  0.6619
  167SOPE   O2218777   2.968   5.992   6.417 -0.5375 -0.5387 -0.0809
  167SOPE   C2218778   2.849   6.184   6.491  0.2139  0.0013  0.7634
  167SOPE   H2R18779   2.760   6.148   6.435 -0.5873  0.3373  1.7875
  167SOPE   H2S18780   2.865   6.282   6.442 -1.2371  0.0798  0.4149
  167SOPE    C318781   3.287   6.162   6.635 -1.0441  0.2055  0.3673
  167SOPE    HX18782   3.227   6.171   6.728  1.9358  2.0602  2.1711
  167SOPE    HY18783   3.303   6.259   6.584  1.4580 -0.6791 -0.6217
  167SOPE   O3118784   3.414   6.087   6.646 -0.3575 -0.0974  0.2701
  167SOPE   C3118785   3.524   6.157   6.671  0.7531  0.0173  0.1338
  167SOPE   O3218786   3.528   6.272   6.712  0.0586 -0.3152  0.0880
  167SOPE   C3218787   3.642   6.059   6.672 -0.0635 -0.4121  0.2274
  167SOPE   H2X18788   3.675   6.058   6.566 -0.6411  2.2817 -0.0341
  167SOPE   H2Y18789   3.601   5.966   6.715 -2.9315  1.0504  0.7982
  167SOPE   C2318790   2.802   6.207   6.637  0.4978 -0.0161 -1.1723
  167SOPE   H3R18791   2.710   6.270   6.630  0.1658 -0.2630  0.6727
  167SOPE   H3S18792   2.884   6.262   6.688 -1.8906  0.9313  1.8337
  167SOPE   C2418793   2.768   6.089   6.716  0.6338  0.4131 -0.1377
  167SOPE   H4R18794   2.716   6.016   6.650 -1.5101 -0.9004  2.8636
  167SOPE   H4S18795   2.862   6.038   6.747  0.3354 -1.2532 -1.8834
  167SOPE   C2518796   2.689   6.111   6.842 -0.1351  0.2638 -0.1890
  167SOPE   H5R18797   2.585   6.134   6.809 -1.2983 -0.6881  2.6808
  167SOPE   H5S18798   2.684   6.014   6.896 -0.2859  1.7015  2.4521
  167SOPE   C2618799   2.739   6.216   6.947 -0.5280 -1.2559  0.1751
  167SOPE   H6R18800   2.842   6.180   6.967 -0.0997 -0.8126 -1.2122
  167SOPE   H6S18801   2.753   6.316   6.901  0.8852 -1.0333  1.0566
  167SOPE   C2718802   2.653   6.198   7.069  0.4223  0.1226  0.3290
  167SOPE   H7R18803   2.558   6.146   7.044  1.3681 -1.8303  0.7229
  167SOPE   H7S18804   2.708   6.130   7.137  0.2160 -1.1421 -0.7329
  167SOPE   C2818805   2.642   6.341   7.133  0.1835 -0.3134 -0.5071
  167SOPE   H8R18806   2.595   6.403   7.054 -1.1717 -2.0208 -1.0741
  167SOPE   H8S18807   2.570   6.334   7.217  0.7322 -0.9330 -0.0755
  167SOPE   C2918808   2.772   6.393   7.184  0.7706 -0.5331  0.2483
  167SOPE   H9118809   2.853   6.428   7.118  2.3241 -0.9210  1.9317
  167SOPE  C21018810   2.796   6.399   7.315 -0.9651 -0.1494  0.0056
  167SOPE  H10118811   2.891   6.445   7.347 -0.5848  0.0699 -1.3912
  167SOPE  C21118812   2.706   6.356   7.425 -0.1272 -0.4832  0.5922
  167SOPE  H11R18813   2.642   6.269   7.398  0.8142 -0.8402 -0.5183
  167SOPE  H11S18814   2.637   6.442   7.439  1.4197  1.0097 -0.7923
  167SOPE  C21218815   2.790   6.307   7.548  0.0440 -0.3225  0.1746
  167SOPE  H12R18816   2.854   6.391   7.580  1.4157 -0.6895 -1.5129
  167SOPE  H12S18817   2.854   6.222   7.514  0.7672  1.2313 -2.5005
  167SOPE  C21318818   2.707   6.261   7.670  0.0331  0.4824 -0.3271
  167SOPE  H13R18819   2.667   6.158   7.668  0.3176  0.3846 -2.2576
  167SOPE  H13S18820   2.615   6.324   7.665 -0.2534 -0.0922 -3.2015
  167SOPE  C21418821   2.773   6.285   7.806 -0.3856  0.5836 -0.1781
  167SOPE  H14R18822   2.814   6.388   7.818 -1.0667  0.7708  0.5783
  167SOPE  H14S18823   2.865   6.222   7.806 -1.0756 -0.4421 -0.7839
  167SOPE  C21518824   2.696   6.283   7.940  0.1235 -0.6980  0.2550
  167SOPE  H15R18825   2.764   6.278   8.028 -0.8390  0.6161  1.0734
  167SOPE  H15S18826   2.631   6.193   7.935  1.9939 -2.0524 -0.8952
  167SOPE  C21618827   2.597   6.400   7.957  0.6398  0.3469 -0.1382
  167SOPE  H16R18828   2.533   6.400   7.867  2.3009  2.0382 -1.3577
  167SOPE  H16S18829   2.652   6.495   7.975  1.1801  0.1167 -0.5558
  167SOPE  C21718830   2.512   6.383   8.085  0.1944  1.0695 -0.2702
  167SOPE  H17R18831   2.429   6.310   8.084  0.6541  0.4693  2.1732
  167SOPE  H17S18832   2.441   6.469   8.090  1.3599  1.9835  1.1210
  167SOPE  C21818833   2.594   6.386   8.205  0.0302 -0.8386  0.5402
  167SOPE  H18R18834   2.655   6.293   8.205  0.2860 -0.6766 -0.8450
  167SOPE  H18S18835   2.533   6.384   8.298 -0.1761 -0.1069  0.4181
  167SOPE  H18T18836   2.651   6.481   8.207 -0.2434 -0.5763 -1.9241
  167SOPE   C3318837   3.765   6.108   6.748 -0.1345 -1.0468 -0.7612
  167SOPE   H3X18838   3.740   6.171   6.837  0.4916  0.6598 -1.7559
  167SOPE   H3Y18839   3.815   6.181   6.681  0.0172  1.3969  1.8797
  167SOPE   C3418840   3.858   5.992   6.793  0.3204 -0.4219 -0.8844
  167SOPE   H4X18841   3.876   5.925   6.707  0.0871 -0.2344 -1.0774
  167SOPE   H4Y18842   3.809   5.937   6.877 -1.1359  0.4074 -1.1689
  167SOPE   C3518843   3.989   6.037   6.867  0.1123  0.0887 -0.1340
  167SOPE   H5X18844   4.039   6.119   6.811  1.8431 -0.9369 -0.1287
  167SOPE   H5Y18845   4.070   5.962   6.852  2.1152  2.1557  0.1430
  167SOPE   C3618846   3.972   6.048   7.020 -0.3995  0.4822 -0.1466
  167SOPE   H6X18847   3.930   5.950   7.053  0.4692  0.7757  1.9274
  167SOPE   H6Y18848   3.908   6.130   7.057 -1.2930 -0.6620  0.8628
  167SOPE   C3718849   4.102   6.058   7.104  0.3213 -0.6858 -0.7071
  167SOPE   H7X18850   4.183   6.097   7.038  0.4577 -2.9595 -1.9231
  167SOPE   H7Y18851   4.126   5.957   7.144 -0.2266  0.3727  2.4279
  167SOPE   C3818852   4.100   6.141   7.231  0.7405  0.2064 -0.0171
  167SOPE   H8X18853   4.059   6.242   7.212  0.3188 -0.2805 -1.8291
  167SOPE   H8Y18854   4.202   6.151   7.274  0.3590  1.1695  0.6517
  167SOPE   C3918855   4.017   6.076   7.335  0.0888  0.0610 -0.4742
  167SOPE   H9X18856   4.068   5.980   7.358 -0.0869  0.5646  2.1395
  167SOPE   H9Y18857   3.916   6.052   7.296  1.0818 -0.8002 -2.5971
  167SOPE  C31018858   4.017   6.148   7.473 -0.3740 -0.1406 -0.3651
  167SOPE  H10X18859   3.932   6.103   7.530 -0.5366  0.7386  0.0869
  167SOPE  H10Y18860   4.004   6.258   7.462 -0.4697 -0.1251 -0.0906
  167SOPE  C31118861   4.148   6.117   7.549 -0.4597 -0.4496 -0.0666
  167SOPE  H11X18862   4.239   6.148   7.492  0.7885 -3.1178  0.3868
  167SOPE  H11Y18863   4.159   6.009   7.569 -0.6938 -0.2663  1.0443
  167SOPE  C31218864   4.145   6.189   7.691  0.0349 -0.0113 -0.3067
  167SOPE  H12X18865   4.073   6.139   7.759  1.8830 -0.1574  1.5677
  167SOPE  H12Y18866   4.119   6.296   7.671  1.4447  0.5160  0.5856
  167SOPE  C31318867   4.284   6.190   7.762 -0.7345  0.2322 -0.1421
  167SOPE  H13X18868   4.355   6.254   7.705  2.3010 -2.9258 -0.0744
  167SOPE  H13Y18869   4.331   6.089   7.764 -1.8033 -0.3149 -2.2790
  167SOPE  C31418870   4.268   6.249   7.902 -0.5159  0.0216  0.0672
  167SOPE  H14X18871   4.367   6.274   7.946 -0.4427  1.0767 -0.6933
  167SOPE  H14Y18872   4.229   6.164   7.962 -2.0513 -1.5215 -3.0554
  167SOPE  C31518873   4.169   6.369   7.914 -0.2017  0.0301 -0.0661
  167SOPE  H15X18874   4.064   6.345   7.888  0.1557 -1.7087  0.0666
  167SOPE  H15Y18875   4.213   6.440   7.841  0.7229  0.9333  1.3599
  167SOPE  C31618876   4.179   6.448   8.045 -0.6319 -0.1440 -0.6790
  167SOPE  H16X18877   4.136   6.549   8.024 -0.6949 -0.4677 -2.1336
  167SOPE  H16Y18878   4.285   6.455   8.078 -0.7632  1.4284 -0.5129
  167SOPE  C31718879   4.111   6.371   8.162 -0.9886 -0.7503  0.4123
  167SOPE  H17X18880   4.145   6.415   8.258  0.9731  0.4405 -0.8032
  167SOPE  H17Y18881   4.148   6.266   8.165 -0.3748 -0.5467 -0.0862
  167SOPE  C31818882   3.962   6.372   8.149 -0.5628 -0.2988  0.0539
  167SOPE  H18X18883   3.924   6.307   8.231  0.7488  0.7752  1.5511
  167SOPE  H18Y18884   3.929   6.325   8.054 -1.7053 -0.3415  0.4610
  167SOPE  H18Z18885   3.926   6.476   8.139 -2.0613 -0.9768 -1.9680
  168SOPE     N18886   4.224   3.073   6.323 -0.5901  0.4661 -0.2012
  168SOPE   HN118887   4.196   2.996   6.388  0.2381 -0.0254 -0.4065
  168SOPE   HN218888   4.323   3.052   6.299 -0.6928  1.1112 -1.2192
  168SOPE   HN318889   4.208   3.165   6.367 -2.3457 -0.8094  1.9408
  168SOPE   C1218890   4.147   3.056   6.185 -0.2293  0.0726  0.1195
  168SOPE  H12A18891   4.189   2.964   6.140  0.7631  1.2622 -1.4307
  168SOPE  H12B18892   4.165   3.149   6.127 -0.9690 -1.2053 -2.2383
  168SOPE   C1118893   4.001   3.051   6.206 -0.9241  0.0851 -0.4784
  168SOPE  H11A18894   3.975   2.962   6.267  1.1335 -1.7354 -2.1760
  168SOPE  H11B18895   3.949   3.039   6.108 -1.3825  2.7216 -0.5971
  168SOPE     P18896   3.810   3.186   6.306 -0.1733  0.2605  0.1141
  168SOPE   O1318897   3.733   3.132   6.194 -0.1735  0.3038 -0.1672
  168SOPE   O1418898   3.778   3.324   6.349  0.0856 -0.0373  0.3032
  168SOPE   O1218899   3.964   3.178   6.259  0.2270  0.0615 -0.6858
  168SOPE   O1118900   3.812   3.083   6.424 -0.2688  0.2591 -0.2048
  168SOPE    C118901   3.869   3.119   6.552 -0.0637  0.5105 -0.1706
  168SOPE    HA18902   3.933   3.209   6.553 -1.2170  1.3364  1.1367
  168SOPE    HB18903   3.946   3.041   6.570  0.7873  0.9145 -1.9158
  168SOPE    C218904   3.761   3.122   6.666  0.6360  0.3491  0.7586
  168SOPE    HS18905   3.813   3.107   6.763 -1.2952 -2.5025  1.4099
  168SOPE   O2118906   3.662   3.012   6.642  0.5979 -0.3463 -0.2621
  168SOPE   C2118907   3.704   2.900   6.689 -0.2239  0.2641  0.6451
  168SOPE   O2218908   3.811   2.878   6.744 -0.5373  0.0524  1.0451
  168SOPE   C2218909   3.595   2.793   6.672  0.1276  0.2476  0.3889
  168SOPE   H2R18910   3.579   2.756   6.569 -0.2125 -1.2463  0.9613
  168SOPE   H2S18911   3.502   2.842   6.707 -1.7470 -1.7291 -1.6548
  168SOPE    C318912   3.682   3.256   6.660 -1.0108  0.0196 -0.1447
  168SOPE    HX18913   3.633   3.255   6.560  0.0495  0.6355 -0.6651
  168SOPE    HY18914   3.758   3.336   6.659 -1.4323  0.4864  2.3358
  168SOPE   O3118915   3.602   3.269   6.777  0.0967  0.4731 -0.0146
  168SOPE   C3118916   3.495   3.350   6.754 -0.2236  0.2770 -0.7824
  168SOPE   O3218917   3.481   3.420   6.654  0.2923  0.0039 -0.1470
  168SOPE   C3218918   3.398   3.332   6.869 -0.3827 -0.0321 -0.3503
  168SOPE   H2X18919   3.363   3.228   6.881  1.7586 -0.7772 -0.3295
  168SOPE   H2Y18920   3.307   3.395   6.860 -0.5139 -0.1615  0.0474
  168SOPE   C2318921   3.626   2.667   6.760 -0.5878  0.2636  0.2568
  168SOPE   H3R18922   3.715   2.608   6.729  0.1143  1.2220  0.4399
  168SOPE   H3S18923   3.538   2.600   6.746 -1.0970  0.7831  0.8835
  168SOPE   C2418924   3.648   2.693   6.912 -0.4088  0.4245 -0.2356
  168SOPE   H4R18925   3.748   2.735   6.938 -0.2031 -1.4567  2.2355
  168SOPE   H4S18926   3.591   2.785   6.938 -2.0572 -0.5444 -0.3572
  168SOPE   C2518927   3.634   2.566   6.994 -0.5287  0.1837  0.4154
  168SOPE   H5R18928   3.538   2.531   6.951 -1.2129  2.2150  0.2133
  168SOPE   H5S18929   3.707   2.488   6.965  0.0761  1.6536 -2.1773
  168SOPE   C2618930   3.613   2.577   7.149  0.1950  0.1438 -0.1429
  168SOPE   H6R18931   3.703   2.613   7.202 -1.6772  2.3732  1.6025
  168SOPE   H6S18932   3.528   2.647   7.158  0.7529  0.9185 -0.8484
  168SOPE   C2718933   3.551   2.451   7.209 -0.0904  0.2855  0.3206
  168SOPE   H7R18934   3.445   2.448   7.173 -0.3556 -0.8548  1.2046
  168SOPE   H7S18935   3.605   2.361   7.174 -1.2164 -0.5011  0.5886
  168SOPE   C2818936   3.555   2.456   7.363 -0.4603  0.3674  0.1905
  168SOPE   H8R18937   3.496   2.546   7.393 -1.9661 -0.4506 -0.2597
  168SOPE   H8S18938   3.507   2.366   7.408 -0.8677  0.9986  1.0211
  168SOPE   C2918939   3.699   2.467   7.414 -0.0016  0.1201 -0.8119
  168SOPE   H9118940   3.770   2.530   7.357 -0.0050  0.0262 -0.9204
  168SOPE  C21018941   3.738   2.432   7.533  0.1544 -0.5727 -0.5113
  168SOPE  H10118942   3.842   2.467   7.542  0.0346 -0.4753  0.5392
  168SOPE  C21118943   3.659   2.366   7.644  0.1230 -0.6866 -0.2494
  168SOPE  H11R18944   3.724   2.285   7.685  1.4303  0.4001 -0.1432
  168SOPE  H11S18945   3.557   2.337   7.612 -0.4043  1.2178 -0.3451
  168SOPE  C21218946   3.630   2.466   7.760  0.0757  0.7245 -0.2914
  168SOPE  H12R18947   3.535   2.436   7.809  0.3484  2.1736  1.1324
  168SOPE  H12S18948   3.610   2.569   7.723  1.2472  2.4339  3.6652
  168SOPE  C21318949   3.743   2.477   7.866 -1.1552  0.2901  0.4849
  168SOPE  H13R18950   3.826   2.528   7.814 -0.4706  0.5196  1.7652
  168SOPE  H13S18951   3.765   2.373   7.898 -1.6103  0.2337  0.6236
  168SOPE  C21418952   3.686   2.555   7.984 -0.7593  0.1231 -0.4374
  168SOPE  H14R18953   3.604   2.502   8.037 -1.9858  1.1756 -1.2475
  168SOPE  H14S18954   3.641   2.646   7.938 -0.6930  0.5596  0.3522
  168SOPE  C21518955   3.788   2.616   8.087  0.2369  1.0536  0.6434
  168SOPE  H15R18956   3.874   2.659   8.032 -0.4165 -2.8254 -3.8264
  168SOPE  H15S18957   3.828   2.531   8.146  0.5628  0.4007 -0.4829
  168SOPE  C21618958   3.714   2.726   8.175  0.0582  0.1697 -0.0855
  168SOPE  H16R18959   3.626   2.679   8.225  0.5217 -0.6605 -0.0443
  168SOPE  H16S18960   3.674   2.798   8.101  0.5399 -1.2931 -1.7911
  168SOPE  C21718961   3.814   2.798   8.271 -0.9709  0.0952 -0.6070
  168SOPE  H17R18962   3.778   2.901   8.291 -2.7317 -0.8023  1.0138
  168SOPE  H17S18963   3.914   2.796   8.221 -0.8956  2.2187 -0.5971
  168SOPE  C21818964   3.830   2.731   8.410 -0.3239  0.8758  0.0650
  168SOPE  H18R18965   3.831   2.620   8.408  0.3472  0.8878 -1.0245
  168SOPE  H18S18966   3.746   2.764   8.475  0.0126  0.6574  0.6113
  168SOPE  H18T18967   3.919   2.781   8.455  1.4309  0.3919 -2.7264
  168SOPE   C3318968   3.463   3.377   7.010  0.1724  0.1961  0.1794
  168SOPE   H3X18969   3.482   3.486   7.012 -3.0252  0.8133  0.0927
  168SOPE   H3Y18970   3.561   3.325   7.007 -1.0492 -2.2377  0.7471
  168SOPE   C3418971   3.379   3.322   7.126 -0.0081  0.5371 -0.6616
  168SOPE   H4X18972   3.349   3.217   7.104 -0.5233  0.6615 -0.5565
  168SOPE   H4Y18973   3.279   3.368   7.131  0.5569  1.6174  1.1042
  168SOPE   C3518974   3.443   3.335   7.268 -0.5809 -0.2683  0.0749
  168SOPE   H5X18975   3.418   3.439   7.299  2.6640  0.8192 -0.7146
  168SOPE   H5Y18976   3.554   3.328   7.261 -0.6706 -0.2500 -1.3982
  168SOPE   C3618977   3.375   3.232   7.363  0.0743 -0.1260 -0.5928
  168SOPE   H6X18978   3.432   3.137   7.353  1.7938  0.8618 -0.4068
  168SOPE   H6Y18979   3.272   3.228   7.322 -0.6253 -1.2415  1.1890
  168SOPE   C3718980   3.380   3.279   7.507 -0.0664  0.3681 -0.0132
  168SOPE   H7X18981   3.306   3.358   7.531 -0.7790 -0.5305  0.7837
  168SOPE   H7Y18982   3.483   3.312   7.535  1.0182 -3.1278  0.3699
  168SOPE   C3818983   3.367   3.162   7.604  0.2842 -0.8923 -0.6616
  168SOPE   H8X18984   3.461   3.103   7.602  0.5459 -0.6558  2.3469
  168SOPE   H8Y18985   3.276   3.101   7.583 -0.1546 -0.0270 -1.2701
  168SOPE   C3918986   3.351   3.212   7.753  0.8676  0.0106 -0.2929
  168SOPE   H9X18987   3.252   3.261   7.764 -0.2330 -2.1381 -0.4140
  168SOPE   H9Y18988   3.430   3.290   7.765  2.4136 -1.4165 -0.9399
  168SOPE  C31018989   3.361   3.109   7.862  0.6759 -0.2052  0.0259
  168SOPE  H10X18990   3.452   3.051   7.835  1.6299  1.8280 -1.2123
  168SOPE  H10Y18991   3.276   3.038   7.863 -1.8882  2.7759  2.1365
  168SOPE  C31118992   3.375   3.170   7.999 -0.0098 -0.0349  0.2893
  168SOPE  H11X18993   3.271   3.205   8.016 -0.7936 -2.2190  0.0660
  168SOPE  H11Y18994   3.433   3.262   8.024  0.8686 -1.6172  4.4844
  168SOPE  C31218995   3.425   3.070   8.107  0.0429  0.0625 -0.2424
  168SOPE  H12X18996   3.534   3.058   8.086  0.7048  1.2624  2.2875
  168SOPE  H12Y18997   3.380   2.969   8.094 -0.5803  0.4639 -1.2203
  168SOPE  C31318998   3.418   3.119   8.246  0.6259 -0.7921  0.1900
  168SOPE  H13X18999   3.316   3.162   8.258  1.3473  1.2182 -0.6869
  168SOPE  H13Y19000   3.477   3.212   8.260 -1.5726  0.6340  0.3615
  168SOPE  C31419001   3.442   3.015   8.351  0.1787  0.6092  0.2546
  168SOPE  H14X19002   3.544   2.978   8.330 -0.3503  0.0867 -1.4646
  168SOPE  H14Y19003   3.388   2.921   8.324  0.9997  0.7038 -1.7918
  168SOPE  C31519004   3.417   3.045   8.502 -0.1155 -0.0970  0.4980
  168SOPE  H15X19005   3.310   3.035   8.528 -0.3517 -0.8185 -0.7012
  168SOPE  H15Y19006   3.446   3.149   8.529 -1.0260  0.1066  0.6918
  168SOPE  C31619007   3.483   2.927   8.590 -0.1182 -0.1293 -0.1943
  168SOPE  H16X19008   3.467   2.833   8.533  3.5990  0.3420 -2.1800
  168SOPE  H16Y19009   3.418   2.912   8.679 -0.3868 -0.2251 -0.4057
  168SOPE  C31719010   3.633   2.930   8.626  0.5756 -0.0548  0.3467
  168SOPE  H17X19011   3.656   3.032   8.665 -1.2365  1.2594 -1.8907
  168SOPE  H17Y19012   3.677   2.937   8.524 -0.8152  0.9947 -0.2084
  168SOPE  C31819013   3.691   2.819   8.712 -0.6572 -0.2964  0.1608
  168SOPE  H18X19014   3.670   2.849   8.817  2.1653  0.4541  0.5506
  168SOPE  H18Y19015   3.797   2.786   8.703  0.2064  1.5069  2.8250
  168SOPE  H18Z19016   3.635   2.727   8.685 -2.3453  1.2067 -1.5309
  169SOPE     N19017   5.578   5.196   6.205 -0.1498 -0.4608 -0.3489
  169SOPE   HN119018   5.652   5.240   6.263  0.6933 -0.3036 -1.5362
  169SOPE   HN219019   5.599   5.095   6.200  0.0954 -0.3684 -1.3070
  169SOPE   HN319020   5.587   5.226   6.106  1.0349  0.3090 -0.0149
  169SOPE   C1219021   5.446   5.224   6.279  0.5184 -0.5917  0.3204
  169SOPE  H12A19022   5.365   5.187   6.213  0.7421  0.9317 -0.8421
  169SOPE  H12B19023   5.429   5.334   6.272  1.2294 -0.5194 -0.3285
  169SOPE   C1119024   5.435   5.153   6.410  0.1512 -0.1465 -0.9175
  169SOPE  H11A19025   5.340   5.180   6.461 -0.3055 -2.2964 -0.6166
  169SOPE  H11B19026   5.517   5.186   6.478  0.5945 -1.5391 -0.7715
  169SOPE     P19027   5.333   4.907   6.361  0.1037 -0.1655 -0.0498
  169SOPE   O1319028   5.398   4.777   6.338 -0.0218 -0.2688  0.1162
  169SOPE   O1419029   5.254   4.964   6.249  0.2078  0.4925  0.1893
  169SOPE   O1219030   5.451   5.011   6.396 -0.2667  0.1581  0.5835
  169SOPE   O1119031   5.243   4.894   6.483  0.4189  0.3730 -0.3822
  169SOPE    C119032   5.291   4.838   6.611  0.0701  0.6232 -0.6917
  169SOPE    HA19033   5.396   4.805   6.601  0.0854 -0.1368  1.6795
  169SOPE    HB19034   5.241   4.739   6.624  1.6093  0.1809  2.1886
  169SOPE    C219035   5.264   4.925   6.741  0.4083 -0.2559 -0.0016
  169SOPE    HS19036   5.330   5.015   6.744 -0.0151  0.0780 -0.6606
  169SOPE   O2119037   5.284   4.841   6.862  0.7918 -0.0501  0.0203
  169SOPE   C2119038   5.394   4.856   6.932 -0.0825 -0.3074 -0.3844
  169SOPE   O2219039   5.489   4.927   6.900  0.3374  0.0928 -0.2267
  169SOPE   C2219040   5.382   4.767   7.059  0.3654 -0.0709 -0.0907
  169SOPE   H2R19041   5.375   4.657   7.045 -0.6972 -0.2680  1.7235
  169SOPE   H2S19042   5.290   4.807   7.106  1.2303  1.3222  0.4514
  169SOPE    C319043   5.118   4.987   6.742 -0.3543  0.2815  0.1907
  169SOPE    HX19044   5.038   4.911   6.731  2.2350 -2.7210  1.2840
  169SOPE    HY19045   5.106   5.052   6.653  1.2192 -0.0234 -0.2704
  169SOPE   O3119046   5.093   5.064   6.863  0.0766 -0.5375 -0.1559
  169SOPE   C3119047   5.043   4.997   6.966 -0.5302  0.4382  0.4072
  169SOPE   O3219048   5.019   4.876   6.963  0.0297 -0.5795  0.4691
  169SOPE   C3219049   5.025   5.092   7.077 -0.0758 -0.3815 -0.6957
  169SOPE   H2X19050   4.939   5.056   7.138  0.0515  0.0060 -0.2804
  169SOPE   H2Y19051   4.989   5.186   7.031 -0.0950 -0.3654 -0.6476
  169SOPE   C2319052   5.520   4.771   7.143 -0.4862 -1.0953  0.8108
  169SOPE   H3R19053   5.561   4.874   7.146 -1.6110 -0.6268  0.4671
  169SOPE   H3S19054   5.588   4.712   7.079 -1.3369 -0.2164 -0.9224
  169SOPE   C2419055   5.489   4.723   7.285  0.3862 -0.2714 -0.1464
  169SOPE   H4R19056   5.417   4.639   7.274  1.9169 -1.6527  0.2206
  169SOPE   H4S19057   5.578   4.681   7.336  0.7580 -3.5227 -3.1947
  169SOPE   C2519058   5.417   4.822   7.377 -0.5404 -0.2591  0.1288
  169SOPE   H5R19059   5.479   4.913   7.395 -0.7789  0.6040 -3.1345
  169SOPE   H5S19060   5.333   4.861   7.316 -1.0156 -2.1580 -0.4468
  169SOPE   C2619061   5.376   4.763   7.511  0.5090 -0.3901 -0.1317
  169SOPE   H6R19062   5.366   4.652   7.510  0.1280 -0.3572 -0.3284
  169SOPE   H6S19063   5.459   4.790   7.579  1.1727 -0.4658 -0.9052
  169SOPE   C2719064   5.246   4.835   7.548  0.2516 -0.8859  0.2520
  169SOPE   H7R19065   5.272   4.944   7.546  0.9126 -0.9832  1.9460
  169SOPE   H7S19066   5.163   4.815   7.478 -1.4403  2.2946  1.2623
  169SOPE   C2819067   5.195   4.800   7.687  0.1818  0.5890 -0.2724
  169SOPE   H8R19068   5.194   4.688   7.691  1.9810  0.6000  1.4124
  169SOPE   H8S19069   5.268   4.843   7.759 -1.3399  1.9111  0.5113
  169SOPE   C2919070   5.061   4.857   7.717  0.1796  0.6158 -0.3025
  169SOPE   H9119071   4.984   4.850   7.638 -0.0324  0.2469 -0.0628
  169SOPE  C21019072   5.023   4.902   7.833  0.1121  0.4474 -0.7542
  169SOPE  H10119073   4.918   4.935   7.834 -0.1369 -0.2833 -2.0017
  169SOPE  C21119074   5.102   4.918   7.963  0.1114 -0.6475  0.1766
  169SOPE  H11R19075   5.087   5.020   8.004  0.7261  0.0865 -1.3840
  169SOPE  H11S19076   5.210   4.902   7.945  0.7206  1.7637  1.4905
  169SOPE  C21219077   5.042   4.830   8.078 -0.1605 -0.1770 -0.6872
  169SOPE  H12R19078   5.109   4.846   8.166  1.2995  1.6462 -2.0628
  169SOPE  H12S19079   5.039   4.724   8.047  1.4042 -0.3674 -0.2664
  169SOPE  C21319080   4.905   4.876   8.118  0.0501 -0.9481 -0.6899
  169SOPE  H13R19081   4.843   4.850   8.029 -1.5885  1.0887 -0.1840
  169SOPE  H13S19082   4.893   4.984   8.142 -0.6831 -0.5902 -2.5101
  169SOPE  C21419083   4.838   4.800   8.233 -1.0091  0.1886  0.4090
  169SOPE  H14R19084   4.744   4.855   8.255 -1.4670 -0.0931 -0.8240
  169SOPE  H14S19085   4.895   4.814   8.328  2.8478 -1.2204 -1.5908
  169SOPE  C21519086   4.805   4.651   8.205 -0.0441  0.2160 -0.1156
  169SOPE  H15R19087   4.897   4.592   8.186  1.4716  1.9027  1.7205
  169SOPE  H15S19088   4.741   4.647   8.114  0.0050  0.8898 -0.1845
  169SOPE  C21619089   4.716   4.592   8.321 -1.0656  0.0552  0.1427
  169SOPE  H16R19090   4.683   4.489   8.294  0.7356  0.1036 -2.3430
  169SOPE  H16S19091   4.638   4.670   8.337 -0.0946  1.4508 -1.8127
  169SOPE  C21719092   4.796   4.577   8.459 -0.1262  0.2671  0.1849
  169SOPE  H17R19093   4.832   4.672   8.503  1.9047 -0.4780  0.1922
  169SOPE  H17S19094   4.892   4.527   8.434 -0.4165 -1.1245  1.7475
  169SOPE  C21819095   4.721   4.497   8.563 -0.0645 -0.0881 -0.7643
  169SOPE  H18R19096   4.631   4.556   8.590  0.0545 -0.9239  1.5601
  169SOPE  H18S19097   4.776   4.454   8.650  0.0970 -0.2088 -0.9263
  169SOPE  H18T19098   4.694   4.394   8.533  2.3811 -0.9457 -0.2054
  169SOPE   C3319099   5.152   5.101   7.164  0.0335  0.4567 -0.2289
  169SOPE   H3X19100   5.239   5.154   7.118 -0.0528 -0.6716 -1.7300
  169SOPE   H3Y19101   5.180   4.995   7.183  1.9374  0.8855 -0.5247
  169SOPE   C3419102   5.127   5.176   7.299  0.0210 -0.2975 -0.2087
  169SOPE   H4X19103   5.065   5.110   7.364  3.4494 -1.2846  2.2466
  169SOPE   H4Y19104   5.080   5.276   7.285  2.9641  1.4709  1.8182
  169SOPE   C3519105   5.257   5.196   7.383  0.9738  0.3793  0.5244
  169SOPE   H5X19106   5.316   5.274   7.330  0.2541  0.4475 -0.1724
  169SOPE   H5Y19107   5.321   5.105   7.379 -0.0153 -0.3084  0.0288
  169SOPE   C3619108   5.240   5.229   7.536 -0.6352 -0.6795 -0.2215
  169SOPE   H6X19109   5.189   5.147   7.589  0.3404 -0.5481  0.9373
  169SOPE   H6Y19110   5.177   5.319   7.555  1.6102  0.7548  0.6645
  169SOPE   C3719111   5.381   5.247   7.608  0.4755 -0.2726 -0.1427
  169SOPE   H7X19112   5.437   5.334   7.568 -0.6675 -0.9980 -3.4704
  169SOPE   H7Y19113   5.428   5.150   7.582 -0.7997 -0.2228 -2.7874
  169SOPE   C3819114   5.380   5.275   7.761 -0.5876  0.3539  0.4408
  169SOPE   H8X19115   5.314   5.364   7.761  1.4649  1.9363 -0.2708
  169SOPE   H8Y19116   5.322   5.196   7.814  0.5396 -1.0696 -0.4014
  169SOPE   C3919117   5.519   5.299   7.821 -0.2875 -0.1214  0.2661
  169SOPE   H9X19118   5.569   5.376   7.759  0.0900 -1.3909 -1.0305
  169SOPE   H9Y19119   5.590   5.214   7.810  1.1490  1.4419 -2.8523
  169SOPE  C31019120   5.522   5.347   7.968 -0.6254  0.3313 -0.2592
  169SOPE  H10X19121   5.503   5.252   8.022  0.7261  1.1063  1.6565
  169SOPE  H10Y19122   5.444   5.424   7.985  1.5433  3.2435 -2.7706
  169SOPE  C31119123   5.654   5.408   8.008  0.3263  0.5908 -0.4711
  169SOPE  H11X19124   5.665   5.502   7.949  2.5867  0.8220  0.2778
  169SOPE  H11Y19125   5.737   5.341   7.977 -1.4568 -1.4803 -0.9187
  169SOPE  C31219126   5.668   5.452   8.156 -0.1743  0.4470 -0.0530
  169SOPE  H12X19127   5.759   5.516   8.163 -0.3950  0.9825 -1.8193
  169SOPE  H12Y19128   5.680   5.362   8.220  0.0081  0.7091  0.2830
  169SOPE  C31319129   5.549   5.530   8.226  0.2157  0.3762  0.0549
  169SOPE  H13X19130   5.465   5.462   8.203  1.3381  0.3995 -4.5762
  169SOPE  H13Y19131   5.534   5.630   8.179 -0.3250 -0.6904 -2.0980
  169SOPE  C31419132   5.576   5.534   8.379 -0.3972  0.0765 -0.6758
  169SOPE  H14X19133   5.645   5.616   8.410  0.3175 -0.0963 -1.7732
  169SOPE  H14Y19134   5.626   5.442   8.416  1.9651  1.0921 -1.2501
  169SOPE  C31519135   5.446   5.552   8.466  0.1081  0.3009  0.0562
  169SOPE  H15X19136   5.382   5.465   8.442 -1.0715  1.3300 -0.5820
  169SOPE  H15Y19137   5.393   5.642   8.429  0.1833  0.0629 -0.6381
  169SOPE  C31619138   5.486   5.559   8.617 -0.0154  0.1340 -0.3335
  169SOPE  H16X19139   5.529   5.659   8.638 -1.0308  0.5587 -0.2777
  169SOPE  H16Y19140   5.576   5.496   8.636  2.4474  3.6351  0.2261
  169SOPE  C31719141   5.385   5.529   8.727 -0.2332 -0.1189  0.1867
  169SOPE  H17X19142   5.421   5.579   8.819 -0.0403  1.2775 -0.6279
  169SOPE  H17Y19143   5.381   5.420   8.746 -0.3633 -0.1164  0.1716
  169SOPE  C31819144   5.247   5.584   8.706 -0.1326 -0.4658  0.1579
  169SOPE  H18X19145   5.223   5.563   8.600  3.5922 -3.9654 -0.1150
  169SOPE  H18Y19146   5.243   5.693   8.722 -0.4219 -0.3502 -0.6985
  169SOPE  H18Z19147   5.174   5.531   8.772  0.5231  1.8660  2.8539
  170SOPE     N19148   0.306   2.932   6.574 -0.5283 -0.0168  0.0865
  170SOPE   HN119149   0.389   2.870   6.585 -0.4234 -0.0501 -0.8849
  170SOPE   HN219150   0.227   2.873   6.540 -0.5992  0.7154 -1.0559
  170SOPE   HN319151   0.321   3.004   6.500  1.1103 -0.4521 -0.0185
  170SOPE   C1219152   0.280   3.005   6.707 -0.0416 -0.0185  0.0388
  170SOPE  H12A19153   0.374   3.017   6.765  0.4726 -0.8996 -0.5959
  170SOPE  H12B19154   0.197   2.949   6.756 -0.7818  0.6029 -0.4954
  170SOPE   C1119155   0.233   3.152   6.683 -0.5136  0.6028  0.0186
  170SOPE  H11A19156   0.308   3.223   6.642  1.3689 -0.5953  1.3479
  170SOPE  H11B19157   0.206   3.187   6.785  0.3935  0.6424  0.2473
  170SOPE     P19158   0.067   3.254   6.501 -0.0194  0.2871 -0.1085
  170SOPE   O1319159  -0.079   3.274   6.510 -0.5902  0.3894 -0.7249
  170SOPE   O1419160   0.116   3.224   6.364  0.0297 -0.5593 -0.1189
  170SOPE   O1219161   0.113   3.152   6.608  0.7521  0.1687 -0.5486
  170SOPE   O1119162   0.138   3.394   6.551 -0.1260 -0.6868  0.2839
  170SOPE    C119163   0.074   3.459   6.664 -0.0289  0.4469 -0.4121
  170SOPE    HA19164   0.039   3.388   6.743 -0.1121  2.6318  1.5424
  170SOPE    HB19165  -0.016   3.515   6.630 -0.6239 -1.1149 -1.4986
  170SOPE    C219166   0.169   3.553   6.743  0.5581 -0.5813 -0.0454
  170SOPE    HS19167   0.212   3.613   6.661 -1.2051  2.5571  1.2440
  170SOPE   O2119168   0.266   3.477   6.810 -0.2801  0.8557 -0.4827
  170SOPE   C2119169   0.364   3.544   6.867 -0.8266  0.2430 -0.6644
  170SOPE   O2219170   0.396   3.654   6.836  0.0507  0.1246  0.5224
  170SOPE   C2219171   0.439   3.450   6.961 -0.0383  0.3342 -0.4781
  170SOPE   H2R19172   0.356   3.412   7.025  0.5115  0.4034  0.2823
  170SOPE   H2S19173   0.511   3.499   7.029 -0.0914 -1.5002  0.9636
  170SOPE    C319174   0.081   3.640   6.837  0.2607 -0.0419  0.1892
  170SOPE    HX19175   0.027   3.719   6.780  0.4678 -1.0402 -1.4233
  170SOPE    HY19176   0.147   3.704   6.899  0.0487  1.0725 -0.7127
  170SOPE   O3119177  -0.021   3.566   6.912  0.3266 -0.2301  0.3511
  170SOPE   C3119178   0.015   3.536   7.040  0.7951  0.4925 -0.4521
  170SOPE   O3219179   0.125   3.552   7.086  0.6258  1.1326 -0.1996
  170SOPE   C3219180  -0.113   3.507   7.119 -0.0093  0.0630  0.4127
  170SOPE   H2X19181  -0.096   3.430   7.198  3.3686  1.0874  0.7355
  170SOPE   H2Y19182  -0.195   3.467   7.055  1.3995 -1.4195 -0.5135
  170SOPE   C2319183   0.518   3.341   6.884  0.9585  0.0462 -0.1781
  170SOPE   H3R19184   0.606   3.376   6.825  2.0919 -2.7614 -0.2508
  170SOPE   H3S19185   0.451   3.285   6.815 -1.5564  1.1833  1.3103
  170SOPE   C2419186   0.569   3.243   6.989 -0.4449  0.5612  0.1805
  170SOPE   H4R19187   0.637   3.298   7.058  1.3644  0.3403 -1.3818
  170SOPE   H4S19188   0.488   3.190   7.045 -1.4367  0.2082 -1.5506
  170SOPE   C2519189   0.652   3.123   6.926 -0.2840  0.1209  0.4035
  170SOPE   H5R19190   0.565   3.063   6.889 -1.2143  1.2411  0.7648
  170SOPE   H5S19191   0.720   3.151   6.843  0.9962 -0.0038  1.4025
  170SOPE   C2619192   0.734   3.049   7.027  0.0109 -0.2336  0.1248
  170SOPE   H6R19193   0.798   3.118   7.086 -0.8902  0.6174  0.1206
  170SOPE   H6S19194   0.660   3.013   7.101 -1.9672  1.1899 -1.1245
  170SOPE   C2719195   0.834   2.948   6.969 -0.6943  0.3784  0.8457
  170SOPE   H7R19196   0.775   2.907   6.885 -1.2184  0.2748  1.2594
  170SOPE   H7S19197   0.926   2.995   6.929  0.0786 -2.7806 -1.2542
  170SOPE   C2819198   0.851   2.829   7.066  0.0146  0.5630 -0.0801
  170SOPE   H8R19199   0.921   2.765   7.008 -1.0778 -1.4307  0.7645
  170SOPE   H8S19200   0.883   2.862   7.167  2.0454 -1.4449 -0.0204
  170SOPE   C2919201   0.724   2.737   7.076 -0.3283  0.2248 -0.2526
  170SOPE   H9119202   0.713   2.681   6.981  2.4181  0.3922 -0.7222
  170SOPE  C21019203   0.647   2.711   7.178  0.6836 -0.2072 -0.6726
  170SOPE  H10119204   0.563   2.641   7.167 -0.8050  1.1994  1.3488
  170SOPE  C21119205   0.659   2.759   7.318  0.4244  0.8026 -0.3993
  170SOPE  H11R19206   0.580   2.835   7.338  1.4543  1.6859  0.4441
  170SOPE  H11S19207   0.759   2.801   7.344  1.7433 -1.8766 -0.9215
  170SOPE  C21219208   0.627   2.639   7.408  0.2212  0.5453  0.0065
  170SOPE  H12R19209   0.707   2.562   7.417 -0.2327  0.1865  1.0398
  170SOPE  H12S19210   0.534   2.582   7.388  0.5036  0.3713 -0.8142
  170SOPE  C21319211   0.607   2.696   7.551  0.6827  0.0337  0.5454
  170SOPE  H13R19212   0.537   2.782   7.547  0.2529 -0.3265  0.2449
  170SOPE  H13S19213   0.704   2.732   7.592  0.8022  0.7793 -0.3815
  170SOPE  C21419214   0.558   2.597   7.648  0.2650  0.0043 -1.0498
  170SOPE  H14R19215   0.629   2.514   7.627 -0.6745 -1.0197 -0.2050
  170SOPE  H14S19216   0.464   2.552   7.611 -0.4864  0.2165  0.5251
  170SOPE  C21519217   0.576   2.624   7.795 -0.9633 -0.1820 -0.5844
  170SOPE  H15R19218   0.507   2.709   7.810 -1.9826 -1.0664 -0.1523
  170SOPE  H15S19219   0.683   2.647   7.807 -0.7091 -1.5896 -0.0149
  170SOPE  C21619220   0.537   2.505   7.885  0.1521 -0.3092  0.2332
  170SOPE  H16R19221   0.602   2.421   7.850 -2.0013 -0.7302 -2.9503
  170SOPE  H16S19222   0.431   2.481   7.864 -0.6037  1.9491  1.3366
  170SOPE  C21719223   0.559   2.538   8.031  0.3642 -0.7137 -0.2709
  170SOPE  H17R19224   0.483   2.593   8.090  0.1211 -0.1886 -1.0578
  170SOPE  H17S19225   0.659   2.582   8.049 -0.5481  0.8543  1.0980
  170SOPE  C21819226   0.560   2.405   8.112  0.7805  0.1479  0.4892
  170SOPE  H18R19227   0.460   2.357   8.106  0.6903  0.1833  1.7250
  170SOPE  H18S19228   0.592   2.430   8.215 -2.4350 -0.2527  1.6504
  170SOPE  H18T19229   0.631   2.326   8.080 -1.1208 -1.8912  1.1603
  170SOPE   C3319230  -0.166   3.635   7.181 -0.5666  0.2025  0.2342
  170SOPE   H3X19231  -0.265   3.610   7.225  0.0374 -1.1860  0.8242
  170SOPE   H3Y19232  -0.189   3.709   7.102  3.1864  0.6612 -0.5029
  170SOPE   C3419233  -0.074   3.694   7.285  0.6192 -0.2362 -0.1682
  170SOPE   H4X19234   0.014   3.732   7.229 -0.8302  0.3866 -2.0664
  170SOPE   H4Y19235  -0.052   3.615   7.360  2.5423 -1.0659 -1.5732
  170SOPE   C3519236  -0.129   3.825   7.351  0.5623 -0.3349  0.2462
  170SOPE   H5X19237  -0.071   3.847   7.443 -1.6844 -1.6235  2.0696
  170SOPE   H5Y19238  -0.234   3.807   7.384 -0.0620 -0.6364 -1.8700
  170SOPE   C3619239  -0.142   3.953   7.263  0.7818 -0.2205  0.1972
  170SOPE   H6X19240  -0.207   3.933   7.175  1.1073 -0.5859  0.0354
  170SOPE   H6Y19241  -0.046   3.990   7.220  0.9335 -2.6396 -1.6785
  170SOPE   C3719242  -0.213   4.074   7.340 -0.6557  0.5739 -0.0735
  170SOPE   H7X19243  -0.276   4.041   7.425 -0.4782  0.7421  0.1264
  170SOPE   H7Y19244  -0.267   4.138   7.267 -1.7593 -1.7258 -1.3234
  170SOPE   C3819245  -0.106   4.155   7.424  0.0203  0.4582  0.1312
  170SOPE   H8X19246  -0.052   4.212   7.345 -1.9428 -1.1587 -2.4581
  170SOPE   H8Y19247  -0.039   4.084   7.476  0.4595  0.7062 -0.0940
  170SOPE   C3919248  -0.165   4.245   7.534  0.3911  0.5867  0.4495
  170SOPE   H9X19249  -0.241   4.306   7.481 -1.4424 -2.1208 -0.1603
  170SOPE   H9Y19250  -0.084   4.309   7.575  0.8045  0.7744 -0.6293
  170SOPE  C31019251  -0.206   4.161   7.661  0.1938  0.2168  0.0287
  170SOPE  H10X19252  -0.136   4.076   7.677  0.0389  0.2155  0.7373
  170SOPE  H10Y19253  -0.303   4.109   7.642  1.0844 -0.6263 -2.4346
  170SOPE  C31119254  -0.237   4.246   7.785 -0.1563  0.4926  0.3042
  170SOPE  H11X19255  -0.296   4.334   7.751  0.0299  0.8658  0.9441
  170SOPE  H11Y19256  -0.145   4.285   7.833  1.1260  1.6800 -2.9382
  170SOPE  C31219257  -0.299   4.155   7.894 -0.5508 -0.2852 -0.0579
  170SOPE  H12X19258  -0.243   4.062   7.916  0.0178  0.0401 -0.1288
  170SOPE  H12Y19259  -0.403   4.125   7.868 -0.4066 -1.2867  0.4961
  170SOPE  C31319260  -0.323   4.232   8.029 -0.6050 -0.3533 -0.5154
  170SOPE  H13X19261  -0.349   4.338   8.007  2.2022  0.5999  0.5148
  170SOPE  H13Y19262  -0.222   4.241   8.075 -1.1784 -0.3297  0.7588
  170SOPE  C31419263  -0.419   4.154   8.135 -1.0154 -0.2663  0.2730
  170SOPE  H14X19264  -0.356   4.068   8.166  1.6030  1.3246 -0.4670
  170SOPE  H14Y19265  -0.495   4.106   8.070 -0.2170 -2.3632  0.8637
  170SOPE  C31519266  -0.467   4.246   8.245  0.1424  0.2782  0.1197
  170SOPE  H15X19267  -0.529   4.189   8.318  0.1812  1.2359  0.9073
  170SOPE  H15Y19268  -0.528   4.333   8.214  1.7277  1.4243  0.1716
  170SOPE  C31619269  -0.358   4.296   8.339  1.1445 -0.3598 -0.3109
  170SOPE  H16X19270  -0.392   4.370   8.414  1.9735  1.3498 -1.5778
  170SOPE  H16Y19271  -0.290   4.348   8.268 -0.6163  2.3385 -0.0835
  170SOPE  C31719272  -0.279   4.184   8.411  0.3371  0.8677 -0.2105
  170SOPE  H17X19273  -0.260   4.106   8.335 -3.1147 -3.0780  2.7010
  170SOPE  H17Y19274  -0.345   4.154   8.496 -1.8631  0.6156 -1.9665
  170SOPE  C31819275  -0.150   4.237   8.468 -0.6038 -0.5812 -0.2017
  170SOPE  H18X19276  -0.095   4.288   8.387 -0.3410  0.7952  0.8193
  170SOPE  H18Y19277  -0.082   4.162   8.513 -0.7688  1.5599  3.9098
  170SOPE  H18Z19278  -0.163   4.308   8.552  2.6763 -0.4974  0.3051
  171SOPE     N19279   0.133   0.565   6.263 -1.2443  0.9411  0.3048
  171SOPE   HN119280   0.213   0.583   6.198 -0.4104  0.7550  1.2715
  171SOPE   HN219281   0.079   0.645   6.300  0.4374  2.9309 -1.4231
  171SOPE   HN319282   0.180   0.509   6.337  1.0382  0.5361 -1.4009
  171SOPE   C1219283   0.029   0.464   6.219  0.9165 -0.3172 -0.0677
  171SOPE  H12A19284   0.072   0.364   6.196  1.2271  0.1265 -1.4247
  171SOPE  H12B19285  -0.021   0.507   6.130  0.3533  0.4360  0.6035
  171SOPE   C1119286  -0.090   0.453   6.319 -0.5205  0.5683  0.9203
  171SOPE  H11A19287  -0.166   0.384   6.276 -1.2172  1.7547  0.2207
  171SOPE  H11B19288  -0.134   0.554   6.332  0.5394  1.1655 -0.0741
  171SOPE     P19289  -0.067   0.261   6.508  0.2661 -0.1013 -0.0202
  171SOPE   O1319290   0.039   0.243   6.608  1.1245 -0.0238  0.1280
  171SOPE   O1419291  -0.059   0.163   6.399  0.0324 -0.1811  0.9763
  171SOPE   O1219292  -0.053   0.413   6.445  0.0781  0.2798  0.4880
  171SOPE   O1119293  -0.207   0.268   6.579 -0.1795 -0.5022 -0.1135
  171SOPE    C119294  -0.293   0.154   6.566 -0.3692 -0.1855 -0.2428
  171SOPE    HA19295  -0.274   0.088   6.479 -3.6924  1.6385 -2.4520
  171SOPE    HB19296  -0.397   0.193   6.562 -0.5510 -0.6438 -0.0850
  171SOPE    C219297  -0.297   0.072   6.696 -0.0278  0.0177  1.0127
  171SOPE    HS19298  -0.201   0.018   6.706 -0.4471 -1.0693 -0.5006
  171SOPE   O2119299  -0.413  -0.019   6.688 -0.7102  0.0187  0.3618
  171SOPE   C2119300  -0.390  -0.132   6.754  0.6457 -0.7107  0.2732
  171SOPE   O2219301  -0.292  -0.150   6.824 -0.2654 -0.1664 -0.0584
  171SOPE   C2219302  -0.503  -0.227   6.727  0.7160  0.0443  0.0919
  171SOPE   H2R19303  -0.477  -0.325   6.773  1.0923 -0.1263 -0.4860
  171SOPE   H2S19304  -0.521  -0.243   6.619  1.1932  2.6309 -0.4021
  171SOPE    C319305  -0.318   0.179   6.806 -0.1312 -0.2049  0.3465
  171SOPE    HX19306  -0.403   0.245   6.776  0.1136 -1.0777 -2.3935
  171SOPE    HY19307  -0.223   0.236   6.809  0.8756 -1.9037  0.7811
  171SOPE   O3119308  -0.351   0.110   6.932  0.0805  0.7525 -0.2649
  171SOPE   C3119309  -0.257   0.090   7.021 -0.2318  0.0345  0.2190
  171SOPE   O3219310  -0.137   0.108   7.006 -0.5845  0.3232  0.0126
  171SOPE   C3219311  -0.319   0.036   7.150  0.2508 -0.0357 -0.1455
  171SOPE   H2X19312  -0.361  -0.066   7.134 -0.8497 -0.1351  2.9414
  171SOPE   H2Y19313  -0.399   0.110   7.171  0.1196 -0.1762 -0.1481
  171SOPE   C2319314  -0.633  -0.195   6.809  0.3838  0.0283 -0.1644
  171SOPE   H3R19315  -0.703  -0.272   6.770 -0.3724  0.8260 -0.4041
  171SOPE   H3S19316  -0.654  -0.087   6.792 -0.6927 -0.1759 -0.1668
  171SOPE   C2419317  -0.606  -0.218   6.965 -0.3769  0.0014  0.2111
  171SOPE   H4R19318  -0.567  -0.320   6.987 -1.1176  0.2426  2.7381
  171SOPE   H4S19319  -0.520  -0.157   6.998 -0.5814 -0.4065  1.5446
  171SOPE   C2519320  -0.732  -0.190   7.045 -0.4362 -0.7069 -0.5581
  171SOPE   H5R19321  -0.767  -0.084   7.037 -1.9511 -1.0825  0.7160
  171SOPE   H5S19322  -0.816  -0.245   6.999 -1.2213 -0.2968  0.3545
  171SOPE   C2619323  -0.721  -0.238   7.192  0.1140 -0.3012 -0.1272
  171SOPE   H6R19324  -0.791  -0.319   7.222  1.1664 -1.5349 -0.9253
  171SOPE   H6S19325  -0.622  -0.288   7.205  0.8497  0.7042 -1.6591
  171SOPE   C2719326  -0.724  -0.122   7.291 -0.2423 -0.2362 -0.0083
  171SOPE   H7R19327  -0.655  -0.042   7.259  0.2686 -1.2040 -1.3291
  171SOPE   H7S19328  -0.824  -0.083   7.263 -0.0795 -0.3758 -0.7771
  171SOPE   C2819329  -0.737  -0.174   7.434 -0.5046 -0.4502  0.0243
  171SOPE   H8R19330  -0.836  -0.222   7.449  0.1656 -1.4893  1.2623
  171SOPE   H8S19331  -0.659  -0.251   7.452  1.5148  1.3297 -0.8753
  171SOPE   C2919332  -0.727  -0.056   7.529  0.0418  0.9403  0.3832
  171SOPE   H9119333  -0.663   0.027   7.498 -0.8730  1.1372 -1.0179
  171SOPE  C21019334  -0.794  -0.050   7.639  0.6189 -0.4648 -0.0241
  171SOPE  H10119335  -0.787   0.045   7.695  2.9130  0.9272 -2.5500
  171SOPE  C21119336  -0.893  -0.147   7.691 -0.0283 -0.1833  0.1163
  171SOPE  H11R19337  -0.892  -0.243   7.636 -0.2830  0.6738 -1.4243
  171SOPE  H11S19338  -0.996  -0.105   7.684 -0.2294 -0.6495  0.2347
  171SOPE  C21219339  -0.868  -0.186   7.835 -0.8955  0.2941 -0.3984
  171SOPE  H12R19340  -0.768  -0.229   7.851 -0.3300  0.7099 -2.6248
  171SOPE  H12S19341  -0.937  -0.269   7.862  0.6827 -1.2821 -1.1250
  171SOPE  C21319342  -0.892  -0.068   7.932  0.0740 -0.5041  0.6736
  171SOPE  H13R19343  -0.991  -0.017   7.921  0.7401  1.5432  3.4635
  171SOPE  H13S19344  -0.824   0.020   7.924 -0.3595  0.0661  2.8902
  171SOPE  C21419345  -0.905  -0.113   8.082 -0.4238 -0.6050 -0.0919
  171SOPE  H14R19346  -0.807  -0.151   8.118  0.1762  0.5865 -0.4531
  171SOPE  H14S19347  -0.970  -0.203   8.083 -1.7317  0.3115 -0.0198
  171SOPE  C21519348  -0.952  -0.006   8.182 -0.0513 -0.7492  0.2474
  171SOPE  H15R19349  -1.063  -0.002   8.186 -0.2174 -0.4559 -3.1662
  171SOPE  H15S19350  -0.911   0.095   8.160  0.1081 -0.7911  0.3516
  171SOPE  C21619351  -0.901  -0.051   8.324 -0.3182 -0.4090  0.1085
  171SOPE  H16R19352  -0.922   0.026   8.402  0.0452 -0.4527  0.2517
  171SOPE  H16S19353  -0.791  -0.065   8.320 -0.0468  1.6133 -0.0373
  171SOPE  C21719354  -0.969  -0.179   8.379  0.2163  0.6171  0.1898
  171SOPE  H17R19355  -1.051  -0.210   8.312 -0.7644  1.5860  0.9188
  171SOPE  H17S19356  -1.021  -0.158   8.475 -0.7579  0.1119 -0.2266
  171SOPE  C21819357  -0.870  -0.292   8.397 -0.4667 -0.1898 -0.0095
  171SOPE  H18R19358  -0.837  -0.330   8.297  0.4728 -0.0844  0.2573
  171SOPE  H18S19359  -0.913  -0.380   8.448  2.3872 -0.9034  1.2388
  171SOPE  H18T19360  -0.779  -0.259   8.452 -0.4072  0.5492 -0.5444
  171SOPE   C3319361  -0.243   0.025   7.284 -1.0431 -0.9780  0.5836
  171SOPE   H3X19362  -0.207   0.121   7.326 -0.2030 -1.3788  0.7949
  171SOPE   H3Y19363  -0.159  -0.048   7.282 -0.3943 -0.2768  1.8026
  171SOPE   C3419364  -0.333  -0.026   7.397 -0.5490 -0.4751  0.8762
  171SOPE   H4X19365  -0.393  -0.110   7.355 -0.7777  0.3802 -0.5612
  171SOPE   H4Y19366  -0.402   0.053   7.432 -1.7336 -1.3866  0.6170
  171SOPE   C3519367  -0.255  -0.072   7.521  0.2488 -0.2213  0.6856
  171SOPE   H5X19368  -0.195   0.016   7.550  1.7537 -0.7694 -0.6602
  171SOPE   H5Y19369  -0.177  -0.148   7.499 -2.4122 -3.0430  0.5619
  171SOPE   C3619370  -0.330  -0.111   7.648  0.1413 -0.1455 -0.6245
  171SOPE   H6X19371  -0.364  -0.216   7.645 -0.7774  0.1270  0.1787
  171SOPE   H6Y19372  -0.421  -0.048   7.646 -0.8646 -1.4428  2.1670
  171SOPE   C3719373  -0.253  -0.086   7.781 -0.1836  0.2329  0.1168
  171SOPE   H7X19374  -0.228   0.022   7.791  2.7425 -0.4706  0.8069
  171SOPE   H7Y19375  -0.169  -0.158   7.788 -2.3052 -2.4211 -0.6743
  171SOPE   C3819376  -0.339  -0.118   7.906 -0.1439 -0.0528 -0.4672
  171SOPE   H8X19377  -0.437  -0.069   7.884 -0.1479  0.6937  1.1465
  171SOPE   H8Y19378  -0.301  -0.064   7.995  0.7069  2.1189 -2.0823
  171SOPE   C3919379  -0.347  -0.270   7.933  0.4524  0.2545  0.1481
  171SOPE   H9X19380  -0.254  -0.324   7.960 -1.0477 -2.8059 -0.5594
  171SOPE   H9Y19381  -0.379  -0.319   7.838  0.1638  3.1632 -1.3038
  171SOPE  C31019382  -0.442  -0.298   8.052 -0.3582 -0.2583  0.2995
  171SOPE  H10X19383  -0.454  -0.409   8.050  0.2839 -0.3221 -0.0745
  171SOPE  H10Y19384  -0.539  -0.256   8.018  0.0981  2.3278  2.0405
  171SOPE  C31119385  -0.388  -0.241   8.186 -0.0864  0.9803  0.2669
  171SOPE  H11X19386  -0.399  -0.130   8.191  0.3422  0.9719  1.4030
  171SOPE  H11Y19387  -0.279  -0.264   8.188  0.7008  4.1239 -1.5345
  171SOPE  C31219388  -0.455  -0.316   8.310 -0.3293 -0.5123  0.0454
  171SOPE  H12X19389  -0.446  -0.425   8.291  1.5187 -0.2992 -0.3700
  171SOPE  H12Y19390  -0.563  -0.292   8.304  0.1075  1.2199 -1.2894
  171SOPE  C31319391  -0.393  -0.281   8.445  0.3134 -0.3497  0.8929
  171SOPE  H13X19392  -0.284  -0.299   8.447  0.2960 -0.6464 -0.2829
  171SOPE  H13Y19393  -0.435  -0.357   8.515 -1.0312 -0.7484 -0.3043
  171SOPE  C31419394  -0.438  -0.147   8.503 -0.6077 -0.3951  0.4137
  171SOPE  H14X19395  -0.549  -0.144   8.514 -0.6863 -0.0183 -0.4589
  171SOPE  H14Y19396  -0.406  -0.063   8.438 -0.0808  0.6810  2.0258
  171SOPE  C31519397  -0.386  -0.105   8.643  0.1863  0.5244  0.9109
  171SOPE  H15X19398  -0.275  -0.108   8.642  0.1856  0.4686  1.0026
  171SOPE  H15Y19399  -0.421  -0.189   8.707 -2.6991  0.9078 -0.1282
  171SOPE  C31619400  -0.424   0.038   8.696  0.0928  0.4471  0.2115
  171SOPE  H16X19401  -0.532   0.062   8.693 -0.4590 -2.0726 -1.1014
  171SOPE  H16Y19402  -0.372   0.113   8.632 -1.5130  0.9586 -0.5092
  171SOPE  C31719403  -0.378   0.059   8.842  0.8766  0.5813  0.4848
  171SOPE  H17X19404  -0.269   0.037   8.853  0.7698 -0.9577 -1.3604
  171SOPE  H17Y19405  -0.432  -0.016   8.903 -1.6448  0.2910 -2.0279
  171SOPE  C31819406  -0.394   0.205   8.888 -0.2826  0.6994  0.0393
  171SOPE  H18X19407  -0.499   0.239   8.898 -0.3695  1.4147 -2.7762
  171SOPE  H18Y19408  -0.349   0.282   8.822 -2.4830 -1.0046 -3.5935
  171SOPE  H18Z19409  -0.340   0.220   8.983  1.1265  0.8119 -0.7693
  172SOPE     N19410   0.869   2.162   5.999  0.6741  0.5588 -0.1331
  172SOPE   HN119411   0.904   2.141   5.904 -1.4294  0.7606 -0.9851
  172SOPE   HN219412   0.789   2.102   6.026  0.0964  1.8216  1.0497
  172SOPE   HN319413   0.840   2.262   6.009  2.8575  1.1083  0.9737
  172SOPE   C1219414   0.975   2.160   6.101 -0.4406  0.3228 -0.0913
  172SOPE  H12A19415   1.060   2.217   6.059  0.7040 -0.3493  1.2510
  172SOPE  H12B19416   1.000   2.053   6.116 -0.7629  0.4975  1.7253
  172SOPE   C1119417   0.927   2.223   6.236 -0.4613 -0.4181  0.1465
  172SOPE  H11A19418   0.894   2.329   6.229 -0.7437 -0.6811 -3.6455
  172SOPE  H11B19419   1.012   2.231   6.307  0.1017  1.5741 -0.7144
  172SOPE     P19420   0.845   2.046   6.408 -0.1720 -0.3593 -0.2036
  172SOPE   O1319421   0.930   1.940   6.349 -0.3086 -0.6677  0.4731
  172SOPE   O1419422   0.720   1.990   6.470  0.6651 -0.1845  0.1714
  172SOPE   O1219423   0.814   2.149   6.287  0.4283  0.1196  0.3824
  172SOPE   O1119424   0.928   2.132   6.512  0.2462  0.0611  0.5104
  172SOPE    C119425   0.871   2.257   6.562  0.1095  0.2983 -0.4593
  172SOPE    HA19426   0.764   2.266   6.537  0.0463 -1.7285 -1.0329
  172SOPE    HB19427   0.926   2.344   6.520 -0.8000  0.4742 -1.2976
  172SOPE    C219428   0.869   2.261   6.718  1.0546 -0.3766  0.6212
  172SOPE    HS19429   0.970   2.247   6.764  2.1737 -1.1307 -2.0013
  172SOPE   O2119430   0.796   2.152   6.778 -0.7290  0.1540 -0.0927
  172SOPE   C2119431   0.664   2.144   6.754  0.1244  0.4825 -0.0351
  172SOPE   O2219432   0.598   2.200   6.672 -0.3205  0.2528  0.1317
  172SOPE   C2219433   0.603   2.031   6.840  0.2902 -0.0584  0.2925
  172SOPE   H2R19434   0.659   1.939   6.811 -2.4064 -1.6631 -0.0444
  172SOPE   H2S19435   0.499   2.014   6.803  0.8680 -0.2678 -1.2657
  172SOPE    C319436   0.816   2.401   6.773  0.1874 -0.3867 -0.0737
  172SOPE    HX19437   0.719   2.417   6.720  0.3269 -0.6273 -0.4029
  172SOPE    HY19438   0.879   2.489   6.751 -1.2299  0.7184  0.1696
  172SOPE   O3119439   0.784   2.394   6.916  0.1369 -0.3157 -0.1472
  172SOPE   C3119440   0.897   2.389   6.994 -0.1595  0.3465  0.4963
  172SOPE   O3219441   1.009   2.386   6.948 -0.0044 -0.0033 -0.2838
  172SOPE   C3219442   0.854   2.383   7.139 -0.0939  0.1779  0.3368
  172SOPE   H2X19443   0.748   2.352   7.136 -0.3101  0.9486 -0.0336
  172SOPE   H2Y19444   0.851   2.487   7.178 -0.7904  0.4803 -0.4997
  172SOPE   C2319445   0.619   2.056   6.990  0.5461  0.4135 -0.0897
  172SOPE   H3R19446   0.578   2.153   7.027  0.0779  1.3140 -2.8430
  172SOPE   H3S19447   0.726   2.053   7.018 -0.1208 -0.1919  2.6152
  172SOPE   C2419448   0.554   1.945   7.071  0.0041 -0.3638  0.1273
  172SOPE   H4R19449   0.444   1.963   7.082 -0.1877 -1.0189 -0.6898
  172SOPE   H4S19450   0.573   1.846   7.023 -1.6200 -0.6385  0.0173
  172SOPE   C2519451   0.615   1.934   7.214 -0.1813  0.3092 -0.1769
  172SOPE   H5R19452   0.719   1.897   7.203  0.1223  1.6382 -1.9237
  172SOPE   H5S19453   0.616   2.029   7.273 -0.5347 -1.2080  2.3531
  172SOPE   C2619454   0.537   1.832   7.301 -0.5452 -0.3240 -0.9082
  172SOPE   H6R19455   0.433   1.821   7.264  0.3592 -0.9659 -3.3015
  172SOPE   H6S19456   0.580   1.730   7.298 -1.2178 -0.6059 -0.9039
  172SOPE   C2719457   0.528   1.877   7.444 -0.1451 -0.1560 -0.7040
  172SOPE   H7R19458   0.623   1.870   7.500 -1.6062  1.0954  2.0309
  172SOPE   H7S19459   0.499   1.984   7.443 -1.1361 -0.4155 -0.8279
  172SOPE   C2819460   0.416   1.799   7.518  0.2951  0.3023 -1.0083
  172SOPE   H8R19461   0.385   1.844   7.614 -1.8899 -2.3197 -0.4092
  172SOPE   H8S19462   0.328   1.792   7.450 -0.4152 -0.8967  0.0108
  172SOPE   C2919463   0.468   1.669   7.553 -0.1766 -0.5168 -0.2690
  172SOPE   H9119464   0.559   1.630   7.505 -0.0785 -1.0016  0.3049
  172SOPE  C21019465   0.416   1.575   7.637 -0.3857 -0.3972 -0.1544
  172SOPE  H10119466   0.463   1.481   7.670 -0.9329 -0.0849  1.5323
  172SOPE  C21119467   0.281   1.578   7.707  0.2644 -0.6939  0.0896
  172SOPE  H11R19468   0.216   1.495   7.669 -0.4494  0.0950 -0.4242
  172SOPE  H11S19469   0.225   1.667   7.672  0.7506 -0.2081  0.5587
  172SOPE  C21219470   0.289   1.592   7.860  0.1804 -0.3465 -0.2370
  172SOPE  H12R19471   0.184   1.610   7.893  0.5729 -1.8211  1.9112
  172SOPE  H12S19472   0.355   1.677   7.890  0.5671 -0.5988 -0.3821
  172SOPE  C21319473   0.336   1.463   7.927 -0.4740 -0.2205 -0.1407
  172SOPE  H13R19474   0.438   1.429   7.898 -0.9319  0.7205 -3.0126
  172SOPE  H13S19475   0.268   1.386   7.885 -1.3541  0.9790 -0.9249
  172SOPE  C21419476   0.342   1.471   8.078 -0.3664 -0.1569 -0.3199
  172SOPE  H14R19477   0.432   1.514   8.127  0.0110  0.1119 -1.2269
  172SOPE  H14S19478   0.364   1.367   8.108  1.0027  0.3018  0.3252
  172SOPE  C21519479   0.222   1.534   8.149 -0.6432 -0.6792  0.4041
  172SOPE  H15R19480   0.134   1.490   8.097 -0.1145 -2.3094  0.8601
  172SOPE  H15S19481   0.219   1.644   8.135  1.5980 -0.8232 -1.5265
  172SOPE  C21619482   0.213   1.481   8.294  0.4260  0.7367  0.4379
  172SOPE  H16R19483   0.292   1.528   8.357 -0.6461  2.0353  0.8457
  172SOPE  H16S19484   0.219   1.370   8.297 -0.1069  0.6963  0.0050
  172SOPE  C21719485   0.083   1.517   8.364 -1.2735  0.3421  0.0310
  172SOPE  H17R19486   0.082   1.457   8.457  1.7041  0.5938  0.2793
  172SOPE  H17S19487   0.001   1.486   8.296 -1.3116  0.4957  0.0083
  172SOPE  C21819488   0.073   1.665   8.389 -0.7334 -0.2477  0.3885
  172SOPE  H18R19489   0.042   1.715   8.295 -0.4532 -3.1154 -1.3060
  172SOPE  H18S19490   0.166   1.709   8.431 -0.9795  0.0572  0.6074
  172SOPE  H18T19491  -0.012   1.684   8.457 -1.7182  0.2759 -0.9868
  172SOPE   C3319492   0.940   2.280   7.220 -0.0550  0.0375 -0.9079
  172SOPE   H3X19493   1.050   2.290   7.208 -0.4274  2.2841 -2.7825
  172SOPE   H3Y19494   0.908   2.179   7.186 -0.6331  0.3753 -1.3878
  172SOPE   C3419495   0.918   2.288   7.371 -0.1147 -0.0062  0.4316
  172SOPE   H4X19496   0.921   2.395   7.402  1.1946  0.3127 -0.7707
  172SOPE   H4Y19497   1.011   2.257   7.424 -0.0683  1.1893  1.0744
  172SOPE   C3519498   0.802   2.200   7.418  0.5752  0.5811 -0.0756
  172SOPE   H5X19499   0.830   2.095   7.394 -2.9746 -0.1993 -1.0982
  172SOPE   H5Y19500   0.714   2.236   7.360 -0.7087 -0.1817  1.3747
  172SOPE   C3619501   0.760   2.204   7.566  0.9427 -0.8609 -0.8536
  172SOPE   H6X19502   0.666   2.146   7.565  1.2323 -1.4073  1.4607
  172SOPE   H6Y19503   0.749   2.308   7.604  0.1526 -1.2833  0.0734
  172SOPE   C3719504   0.854   2.130   7.657  0.1634  0.2077  0.5273
  172SOPE   H7X19505   0.954   2.178   7.653  0.3165 -0.2109 -1.5752
  172SOPE   H7Y19506   0.867   2.030   7.609  2.0613  0.1992  1.0151
  172SOPE   C3819507   0.810   2.119   7.806 -0.7578  0.2679 -0.2519
  172SOPE   H8X19508   0.787   2.222   7.840  2.6825  0.8728  0.4356
  172SOPE   H8Y19509   0.897   2.093   7.869 -0.2161  0.4201 -0.9243
  172SOPE   C3919510   0.690   2.021   7.833  0.4742 -0.9299 -0.6786
  172SOPE   H9X19511   0.699   1.929   7.771 -1.0198 -1.3905 -0.2480
  172SOPE   H9Y19512   0.605   2.085   7.799  1.7642  1.6848  0.8398
  172SOPE  C31019513   0.670   1.991   7.978 -0.2423 -0.2123 -0.0883
  172SOPE  H10X19514   0.683   2.087   8.032 -0.5914  0.8477 -1.8332
  172SOPE  H10Y19515   0.746   1.917   8.011 -1.0945 -0.3842  1.5168
  172SOPE  C31119516   0.532   1.929   8.008  0.5330  0.2100  0.3757
  172SOPE  H11X19517   0.523   1.845   7.935  0.4595  2.1690 -1.9245
  172SOPE  H11Y19518   0.460   2.009   7.984  0.0949 -0.6767 -1.3390
  172SOPE  C31219519   0.516   1.886   8.157  0.4067 -1.2373  0.9373
  172SOPE  H12X19520   0.564   1.788   8.175  1.5104 -1.3951 -2.4618
  172SOPE  H12Y19521   0.408   1.871   8.177 -0.0668  1.3215  0.5011
  172SOPE  C31319522   0.583   1.986   8.259  0.4332 -0.0555  0.7110
  172SOPE  H13X19523   0.548   2.088   8.230  2.9449  1.2798  2.1805
  172SOPE  H13Y19524   0.693   1.972   8.251  0.1539 -2.5976  0.8504
  172SOPE  C31419525   0.533   1.966   8.403 -0.1295 -0.0631 -0.1809
  172SOPE  H14X19526   0.585   1.873   8.434 -0.7797  0.1796  1.6992
  172SOPE  H14Y19527   0.424   1.945   8.402 -0.8313  3.0181  1.7933
  172SOPE  C31519528   0.556   2.077   8.503 -0.4119  1.0387 -0.3833
  172SOPE  H15X19529   0.509   2.161   8.446 -0.6465  2.7201  2.2050
  172SOPE  H15Y19530   0.665   2.099   8.507 -0.7742  2.6291  1.6053
  172SOPE  C31619531   0.486   2.052   8.634  0.5247 -0.0588 -0.8369
  172SOPE  H16X19532   0.516   1.958   8.683 -0.5851  0.6600  1.2721
  172SOPE  H16Y19533   0.375   2.051   8.635  0.5217 -1.2388  1.3819
  172SOPE  C31719534   0.527   2.171   8.724 -0.2671 -0.8009 -0.3896
  172SOPE  H17X19535   0.527   2.269   8.673  2.0084 -0.5055  0.1232
  172SOPE  H17Y19536   0.633   2.156   8.754  0.5359  2.2944 -1.5263
  172SOPE  C31819537   0.443   2.190   8.849 -0.2942  0.2287  0.0851
  172SOPE  H18X19538   0.450   2.114   8.930  0.1749 -0.3226 -0.4655
  172SOPE  H18Y19539   0.336   2.189   8.819  0.6585  0.4871 -3.6056
  172SOPE  H18Z19540   0.471   2.288   8.892 -1.6089 -0.0686  1.6654
  173SAPI   C1219541   2.514   5.834  11.129 -0.5253 -0.6523 -0.1057
  173SAPI    H219542   2.603   5.819  11.063  0.9284  0.4009  1.5611
  173SAPI    O219543   2.438   5.714  11.136 -0.1949  0.2079  0.3207
  173SAPI   HO219544   2.457   5.658  11.060 -0.8684 -1.2956  1.2412
  173SAPI   C1319545   2.584   5.870  11.264 -0.6939  0.0900 -0.3977
  173SAPI    H319546   2.654   5.956  11.251  1.2060 -1.2012  0.8750
  173SAPI    O319547   2.673   5.764  11.303  0.0121 -0.1293 -0.2264
  173SAPI   HO319548   2.756   5.794  11.341 -0.0492  0.1392 -0.2981
  173SAPI   C1419549   2.479   5.903  11.365 -0.4599 -0.5210 -1.0888
  173SAPI    H419550   2.419   5.812  11.385  1.3288 -1.4906  0.0183
  173SAPI    O419551   2.536   5.921  11.496  0.2628 -0.1836  0.4296
  173SAPI   HO419552   2.549   5.835  11.537  0.2201 -0.8619 -0.9410
  173SAPI   C1519553   2.381   6.019  11.326  0.5750  0.8663 -0.2762
  173SAPI    H519554   2.449   6.107  11.324  1.6093  0.0918  0.1600
  173SAPI    O519555   2.275   6.050  11.424 -0.2998 -0.4627  0.2375
  173SAPI   HO519556   2.248   6.139  11.404  1.2029  0.0848  0.5638
  173SAPI   C1619557   2.323   5.987  11.186  0.3004 -0.3604 -0.1194
  173SAPI    H619558   2.254   5.901  11.195  0.2066 -0.2008  0.6627
  173SAPI    O619559   2.253   6.102  11.139 -0.2636  0.0376  0.1177
  173SAPI   HO619560   2.214   6.080  11.054 -0.0728 -2.7391  0.7296
  173SAPI   C1119561   2.438   5.959  11.084 -0.3756 -0.1681 -0.3638
  173SAPI    H119562   2.510   6.041  11.105  0.1360 -0.3996 -1.2174
  173SAPI     P19563   2.455   6.044  10.832  0.3056 -0.6449  0.0512
  173SAPI   O1319564   2.453   5.980  10.702  0.0984  0.7365  0.2344
  173SAPI   O1419565   2.581   6.096  10.884  0.0825 -0.0480 -0.0237
  173SAPI   O1219566   2.396   5.944  10.944 -0.4136  0.3222 -0.3183
  173SAPI   O1119567   2.347   6.160  10.831  0.5273 -0.2195  0.2356
  173SAPI    C119568   2.216   6.148  10.780 -0.2464 -0.0045  0.0470
  173SAPI    HA19569   2.176   6.044  10.785 -1.1197  0.4461  3.2527
  173SAPI    HB19570   2.153   6.213  10.843 -0.4663 -0.0367 -0.1378
  173SAPI    C219571   2.216   6.199  10.634 -0.2958  0.5074  0.2140
  173SAPI    HS19572   2.253   6.109  10.580  3.2403  1.7551  0.4500
  173SAPI   O2119573   2.299   6.314  10.631  0.0911 -0.1271  0.3265
  173SAPI   C2119574   2.382   6.319  10.527  0.0442  0.1133  0.5594
  173SAPI   O2219575   2.381   6.238  10.435 -1.0211  0.2842  0.0204
  173SAPI   C2219576   2.486   6.422  10.549  0.5480 -0.0054  0.0820
  173SAPI   H2R19577   2.486   6.452  10.656  1.9207 -3.5609  1.1342
  173SAPI   H2S19578   2.589   6.387  10.527  0.2228 -1.3978  0.7892
  173SAPI    C319579   2.077   6.233  10.585  1.1118 -0.4556 -0.5639
  173SAPI    HX19580   2.052   6.329  10.635 -0.0273 -0.2105 -1.5784
  173SAPI    HY19581   2.002   6.160  10.623  2.2692  0.0343  2.8387
  173SAPI   O3119582   2.072   6.228  10.441  0.7361  0.3782 -0.0449
  173SAPI   C3119583   2.029   6.349  10.393  0.2519  0.2287 -0.7389
  173SAPI   O3219584   2.004   6.452  10.452 -0.1326  0.8757 -0.5703
  173SAPI   C3219585   2.021   6.341  10.244  0.0601  0.5767  0.3729
  173SAPI   H2X19586   1.988   6.443  10.213 -0.6947  0.4401  0.7171
  173SAPI   H2Y19587   1.944   6.264  10.223 -0.2774  0.5962  1.5012
  173SAPI   C2319588   2.452   6.554  10.473 -0.0157 -0.1269 -0.7006
  173SAPI   H3R19589   2.507   6.640  10.518 -1.4750  0.8695 -0.8051
  173SAPI   H3S19590   2.343   6.569  10.486  0.2191  3.0015 -1.9303
  173SAPI   C2419591   2.491   6.551  10.325 -0.1309 -0.3260  0.4446
  173SAPI   H4R19592   2.488   6.449  10.280  1.2119 -0.5309  0.7968
  173SAPI   H4S19593   2.597   6.583  10.317 -0.5101  0.2064 -2.7633
  173SAPI   C2519594   2.394   6.635  10.238  0.6232 -0.1952 -0.4955
  173SAPI   H5R19595   2.314   6.687  10.292  0.4648 -1.5326  0.5898
  173SAPI   C2619596   2.386   6.639  10.103 -0.2221 -0.0253  0.1432
  173SAPI   H6R19597   2.317   6.710  10.054 -2.1957 -0.3977  2.2907
  173SAPI   C2719598   2.484   6.569  10.009  0.5296 -0.3861  0.1823
  173SAPI   H7R19599   2.437   6.484   9.957 -1.1312  0.7723 -0.2388
  173SAPI   H7S19600   2.568   6.523  10.066  1.9195 -0.3721 -1.7864
  173SAPI   C2819601   2.545   6.668   9.906 -0.4768  0.2216 -0.5264
  173SAPI   H8R19602   2.618   6.736   9.953  0.2631  0.1024 -1.4697
  173SAPI   C2919603   2.509   6.690   9.773 -0.0604  0.2531  0.2071
  173SAPI   H9R19604   2.578   6.756   9.717  0.9078  0.2432  1.3677
  173SAPI  C21019605   2.400   6.623   9.698 -0.3604 -0.0379 -0.0580
  173SAPI  H10R19606   2.350   6.555   9.770 -0.9891  0.6502  0.1666
  173SAPI  H10S19607   2.454   6.554   9.630  0.2321  0.7556 -0.4000
  173SAPI  C21119608   2.307   6.722   9.638 -0.0462  0.0142 -0.0882
  173SAPI  H11R19609   2.253   6.785   9.711  1.9321 -2.3261  3.5745
  173SAPI  C21219610   2.292   6.750   9.505 -0.2985  0.4553  0.3464
  173SAPI  H12R19611   2.227   6.836   9.483 -0.1555  1.0121  2.0471
  173SAPI  C21319612   2.371   6.684   9.397  0.1155  0.3762 -0.1390
  173SAPI  H13R19613   2.298   6.624   9.338  0.8407 -0.2951 -0.3488
  173SAPI  H13S19614   2.448   6.615   9.438 -0.2005 -0.3999 -0.8376
  173SAPI  C21419615   2.450   6.766   9.305 -0.1203 -0.7976  0.5916
  173SAPI  H14R19616   2.521   6.840   9.345 -2.7869  2.6300 -0.7485
  173SAPI  C21519617   2.433   6.767   9.172 -0.2406 -0.5303 -0.5415
  173SAPI  H15R19618   2.497   6.838   9.117 -2.2188  0.3898 -1.7213
  173SAPI  C21619619   2.339   6.693   9.078 -0.1892 -0.4275 -0.3939
  173SAPI  H16R19620   2.239   6.681   9.125  0.2209  0.7933  0.8259
  173SAPI  H16S19621   2.372   6.588   9.068  0.5020 -0.2009 -0.5377
  173SAPI  C21719622   2.322   6.756   8.937  0.0774 -0.3959  0.3102
  173SAPI  H17R19623   2.284   6.669   8.879  0.9844 -1.3472  1.1329
  173SAPI  H17S19624   2.416   6.787   8.887 -0.5520 -0.2411 -0.8062
  173SAPI  C21819625   2.222   6.870   8.933  0.6612  0.3019 -0.5002
  173SAPI  H18R19626   2.257   6.952   8.999  0.4995 -0.2486  0.2826
  173SAPI  H18S19627   2.121   6.832   8.961  0.5467  0.1885 -1.0597
  173SAPI  C21919628   2.201   6.934   8.794 -0.2274  0.9895  0.2320
  173SAPI  H19R19629   2.095   6.932   8.762  0.2981  0.0992 -1.5056
  173SAPI  H19S19630   2.247   6.871   8.715 -0.0459  0.5435  0.6892
  173SAPI  C22019631   2.246   7.075   8.782  0.4717 -0.1575 -0.5911
  173SAPI  H20R19632   2.191   7.144   8.850 -1.3792 -1.3998 -0.8034
  173SAPI  H20S19633   2.225   7.105   8.677  1.8145 -0.0222 -0.8262
  173SAPI  H20T19634   2.355   7.076   8.805  0.3431 -0.2413  0.0314
  173SAPI   C3319635   2.156   6.302  10.178 -0.2286  0.4758  0.4549
  173SAPI   H3X19636   2.186   6.208  10.228 -1.7688 -0.0179  0.4787
  173SAPI   H3Y19637   2.231   6.383  10.194 -1.1387  1.3912  0.1557
  173SAPI   C3419638   2.132   6.262  10.038  0.7888 -0.3193 -0.1078
  173SAPI   H4X19639   2.076   6.166  10.042  0.2180  0.0663  1.5978
  173SAPI   H4Y19640   2.232   6.235   9.996  1.1918  1.9497 -0.6328
  173SAPI   C3519641   2.047   6.357   9.945  0.4920  0.2097  0.1311
  173SAPI   H5X19642   2.072   6.462   9.968  1.8885 -0.2730  0.8718
  173SAPI   H5Y19643   1.938   6.345   9.968 -0.1183  0.8825 -2.3110
  173SAPI   C3619644   2.062   6.323   9.795  0.9200  0.6474  0.1588
  173SAPI   H6X19645   1.984   6.247   9.774  0.4564  1.5901 -1.6612
  173SAPI   H6Y19646   2.165   6.291   9.768  0.2482 -0.7383 -0.8374
  173SAPI   C3719647   2.025   6.439   9.704 -0.8390 -0.5086 -0.1650
  173SAPI   H7X19648   2.106   6.514   9.694 -1.8111  0.3276 -1.8739
  173SAPI   H7Y19649   1.927   6.481   9.736 -0.7797  0.2671 -0.9913
  173SAPI   C3819650   2.011   6.389   9.557 -0.5235  0.3486 -0.3045
  173SAPI   H8X19651   1.942   6.465   9.513 -3.1205 -1.7959 -0.0528
  173SAPI   H8Y19652   1.955   6.294   9.547 -0.6185  0.4872 -1.1199
  173SAPI   C3919653   2.148   6.385   9.485 -0.1370 -0.3303 -0.1383
  173SAPI   H9X19654   2.208   6.316   9.548 -2.4616 -0.9013  1.5435
  173SAPI   H9Y19655   2.204   6.481   9.489  0.4758 -0.7132  0.7554
  173SAPI  C31019656   2.138   6.327   9.342  0.2683 -0.4631 -0.5343
  173SAPI  H10X19657   2.088   6.403   9.278  0.6482 -0.9299 -1.3887
  173SAPI  H10Y19658   2.072   6.237   9.344 -1.0398  0.5015  0.9613
  173SAPI  C31119659   2.273   6.296   9.277 -0.3597  0.2559 -0.0166
  173SAPI  H11X19660   2.320   6.208   9.327 -0.1215  1.0500  1.1499
  173SAPI  H11Y19661   2.343   6.382   9.287  1.0094 -0.9549  1.1057
  173SAPI  C31219662   2.264   6.259   9.125 -0.4521  0.2399 -0.3493
  173SAPI  H12X19663   2.219   6.346   9.073 -0.5749 -0.3334 -1.2025
  173SAPI  H12Y19664   2.195   6.172   9.130  0.0727 -0.1361  0.6624
  173SAPI  C31319665   2.396   6.224   9.065 -0.1497 -0.2743 -0.8740
  173SAPI  H13X19666   2.424   6.122   9.097  0.2996  0.2803  0.5593
  173SAPI  H13Y19667   2.468   6.295   9.112  1.8612 -1.4101 -2.1593
  173SAPI  C31419668   2.393   6.235   8.911 -0.0083  0.1148 -0.3343
  173SAPI  H14X19669   2.361   6.338   8.885  2.2431  1.0043  0.2720
  173SAPI  H14Y19670   2.316   6.172   8.863 -3.2940  2.9456  0.9780
  173SAPI  C31519671   2.527   6.204   8.843 -0.2735 -0.4218 -0.2576
  173SAPI  H15X19672   2.556   6.098   8.857  1.0945  0.2823  2.6385
  173SAPI  H15Y19673   2.601   6.268   8.896  0.9902 -1.7179 -0.4255
  173SAPI  C31619674   2.530   6.242   8.693  1.0654  0.7936  0.7356
  173SAPI  H16X19675   2.574   6.343   8.680 -1.4440  1.7194 -0.8318
  173SAPI  H16Y19676   2.428   6.239   8.650  1.1662 -0.4757  0.5842
  173SAPI  C31719677   2.623   6.151   8.619  0.1207  0.0970  0.2221
  173SAPI  H17X19678   2.574   6.052   8.629  0.5678  0.1148  2.9737
  173SAPI  H17Y19679   2.720   6.150   8.673  1.9962  1.1025 -2.9348
  173SAPI  C31819680   2.656   6.196   8.476  0.0822  0.0605 -0.1417
  173SAPI  H18X19681   2.702   6.297   8.472  1.3875 -0.5522 -0.9555
  173SAPI  H18Y19682   2.559   6.217   8.425 -0.8588 -0.2994  1.4827
  173SAPI  H18Z19683   2.719   6.124   8.419 -0.8329 -2.3579  1.8473
  174SAPI   C1219684   5.922   1.468  10.676 -0.2620 -0.4369 -0.5768
  174SAPI    H219685   5.883   1.434  10.578 -1.5737  1.9724 -0.9176
  174SAPI    O219686   6.062   1.504  10.662  0.1955  0.0830  0.0890
  174SAPI   HO219687   6.105   1.423  10.689 -0.1896 -0.2510 -0.2832
  174SAPI   C1319688   5.852   1.590  10.735  0.5387 -0.6610  0.1664
  174SAPI    H319689   5.744   1.569  10.752  0.6681 -0.7668  0.8964
  174SAPI    O319690   5.859   1.688  10.635  0.0276 -0.7092 -0.2773
  174SAPI   HO319691   5.939   1.675  10.585 -0.0385 -0.2541 -0.5091
  174SAPI   C1419692   5.903   1.630  10.863 -0.2587 -0.5416  0.0364
  174SAPI    H419693   6.007   1.668  10.855 -0.0429 -1.1860 -0.2168
  174SAPI    O419694   5.843   1.749  10.901  0.7909 -0.0430 -0.2492
  174SAPI   HO419695   5.835   1.791  10.816 -1.1700 -2.8474 -1.5507
  174SAPI   C1519696   5.889   1.523  10.966 -0.9727  0.2627  0.2654
  174SAPI    H519697   5.780   1.509  10.984 -1.0526 -0.5651 -0.8593
  174SAPI    O519698   5.942   1.569  11.096  0.0742 -0.5170  0.3555
  174SAPI   HO519699   6.013   1.504  11.105  0.9155  0.5233  1.2550
  174SAPI   C1619700   5.959   1.396  10.923 -0.1168 -0.0564 -0.1244
  174SAPI    H619701   6.067   1.420  10.930  0.1953 -1.9176  2.0238
  174SAPI    O619702   5.942   1.288  11.015  0.2228  0.2281  0.0260
  174SAPI   HO619703   6.003   1.217  10.992  2.0035  1.5157  0.7556
  174SAPI   C1119704   5.915   1.352  10.783 -0.2274 -1.1933  0.9498
  174SAPI    H119705   5.808   1.325  10.789 -0.2690 -1.2837 -0.1717
  174SAPI     P19706   5.944   1.085  10.744  0.4144 -0.4415 -0.1304
  174SAPI   O1319707   5.952   1.046  10.889 -0.6144  0.2835 -0.4053
  174SAPI   O1419708   6.031   1.008  10.656 -0.5797  0.2737  0.2444
  174SAPI   O1219709   5.995   1.246  10.732 -0.3161  0.0759  0.5773
  174SAPI   O1119710   5.802   1.065  10.695 -0.0410 -0.2120 -0.2394
  174SAPI    C119711   5.741   1.131  10.584 -0.4667  0.9265 -0.6453
  174SAPI    HA19712   5.657   1.196  10.617 -0.7970 -0.1457  0.6488
  174SAPI    HB19713   5.814   1.202  10.539  1.0871 -0.6242 -0.6204
  174SAPI    C219714   5.694   1.039  10.473 -0.3825 -0.2192 -0.9998
  174SAPI    HS19715   5.625   0.964  10.517 -1.3113  1.5585  0.6683
  174SAPI   O2119716   5.815   0.989  10.413  0.0797 -0.0059  0.2580
  174SAPI   C2119717   5.799   0.873  10.357  0.0865  0.3426 -0.1186
  174SAPI   O2219718   5.702   0.796  10.375 -0.7571  0.0592  0.4698
  174SAPI   C2219719   5.940   0.833  10.306 -0.2327  0.1819 -0.3916
  174SAPI   H2R19720   5.986   0.920  10.255 -0.7058 -0.0290 -1.1862
  174SAPI   H2S19721   6.007   0.803  10.389 -0.0405 -2.8225 -1.5601
  174SAPI    C319722   5.608   1.118  10.369 -0.1137  0.2042  0.0986
  174SAPI    HX19723   5.659   1.215  10.355  1.0783 -0.5848 -1.1755
  174SAPI    HY19724   5.507   1.148  10.405  0.2522  1.4490  0.1028
  174SAPI   O3119725   5.595   1.051  10.236 -0.6503 -0.4828 -0.0741
  174SAPI   C3119726   5.483   0.979  10.212  0.3817 -0.1337 -0.9754
  174SAPI   O3219727   5.390   0.973  10.286 -0.1857 -0.8992 -0.1221
  174SAPI   C3219728   5.482   0.933  10.067 -0.1983 -1.2106 -0.2500
  174SAPI   H2X19729   5.378   0.896  10.060 -0.4829 -0.1370 -1.8485
  174SAPI   H2Y19730   5.544   0.841  10.061  0.1176 -1.0495  0.4896
  174SAPI   C2319731   5.947   0.704  10.221 -0.3397 -0.6738 -0.4243
  174SAPI   H3R19732   5.930   0.614  10.285  0.2024 -0.5204 -0.0637
  174SAPI   H3S19733   6.049   0.682  10.184  0.5633  1.6560  0.5988
  174SAPI   C2419734   5.855   0.705  10.092  0.1667 -0.1452 -0.0819
  174SAPI   H4R19735   5.748   0.706  10.121  0.3891 -2.8332  0.9744
  174SAPI   H4S19736   5.872   0.615  10.029 -2.0929  0.2403 -1.2970
  174SAPI   C2519737   5.885   0.824  10.003  0.8854 -0.2770 -0.0315
  174SAPI   H5R19738   5.879   0.922  10.052 -0.1893 -0.6555  0.6053
  174SAPI   C2619739   5.926   0.818   9.871 -0.0250  0.5338 -0.9604
  174SAPI   H6R19740   5.944   0.915   9.823  1.6074  0.8568  0.2664
  174SAPI   C2719741   5.964   0.699   9.783  0.2850 -0.4698  0.6529
  174SAPI   H7R19742   6.059   0.656   9.822 -0.6156 -2.1439  1.0349
  174SAPI   H7S19743   5.990   0.737   9.682 -2.2161  1.9367  0.8528
  174SAPI   C2819744   5.871   0.584   9.751 -0.2308  0.6328 -0.2620
  174SAPI   H8R19745   5.815   0.558   9.843  1.6709 -0.3588  0.6293
  174SAPI   C2919746   5.863   0.511   9.645  0.2306  0.2360 -0.1684
  174SAPI   H9R19747   5.777   0.442   9.635  0.3310 -0.1590  1.5676
  174SAPI  C21019748   5.950   0.518   9.517  0.1624  0.4492  0.2465
  174SAPI  H10R19749   6.033   0.444   9.518  0.7775  1.1144 -0.6536
  174SAPI  H10S19750   5.980   0.624   9.502  4.8476 -0.6155  1.2551
  174SAPI  C21119751   5.882   0.471   9.396  0.1813 -0.2488  0.2479
  174SAPI  H11R19752   5.880   0.361   9.390 -0.9492 -0.2401  0.3569
  174SAPI  C21219753   5.830   0.532   9.288 -0.6367  0.2578 -0.1840
  174SAPI  H12R19754   5.801   0.465   9.206 -0.3470 -1.9648  1.4960
  174SAPI  C21319755   5.818   0.678   9.259 -0.2888 -0.2648 -0.2638
  174SAPI  H13R19756   5.911   0.733   9.282  0.3218 -2.1599  2.0167
  174SAPI  H13S19757   5.727   0.714   9.312  0.3020 -1.6615  1.7790
  174SAPI  C21419758   5.789   0.689   9.112  0.5253 -0.3009 -0.4142
  174SAPI  H14R19759   5.683   0.708   9.090  0.4810 -0.3303 -0.2265
  174SAPI  C21519760   5.873   0.658   9.017  0.5113  0.3077  0.4276
  174SAPI  H15R19761   5.842   0.668   8.912 -0.8595  0.0007  0.7933
  174SAPI  C21619762   6.022   0.609   9.034 -0.0713  0.8330 -0.6714
  174SAPI  H16R19763   6.054   0.640   9.136 -0.4754 -1.9005  0.3154
  174SAPI  H16S19764   6.079   0.662   8.955  1.5973 -0.8887 -0.6510
  174SAPI  C21719765   6.037   0.454   9.014  0.0940 -0.6723  1.0543
  174SAPI  H17R19766   5.954   0.398   9.062 -1.1591  0.5496  0.3342
  174SAPI  H17S19767   6.139   0.417   9.040  0.8501  0.3371 -0.4675
  174SAPI  C21819768   6.028   0.417   8.868  0.3566  0.3578 -0.4027
  174SAPI  H18R19769   6.123   0.440   8.815  0.6436 -3.5517 -1.7695
  174SAPI  H18S19770   5.945   0.464   8.812  2.4734  1.5890 -2.6237
  174SAPI  C21919771   6.005   0.260   8.853  0.3959 -0.3471 -0.2453
  174SAPI  H19R19772   5.927   0.226   8.924  0.9473 -0.4952  0.2938
  174SAPI  H19S19773   6.098   0.206   8.881 -1.3252 -2.0466  2.4141
  174SAPI  C22019774   5.993   0.235   8.701  0.6283 -0.6933 -0.0150
  174SAPI  H20R19775   6.091   0.235   8.649 -0.9519 -1.3835 -3.0951
  174SAPI  H20S19776   5.942   0.325   8.662 -0.2888 -0.3574  1.8588
  174SAPI  H20T19777   5.946   0.136   8.682 -0.7031 -0.0859  0.0791
  174SAPI   C3319778   5.516   1.036   9.959  0.2782 -0.1921  0.6792
  174SAPI   H3X19779   5.621   1.073   9.968 -0.0597  1.3627 -1.4083
  174SAPI   H3Y19780   5.437   1.113   9.948  0.2752 -0.1809  0.7806
  174SAPI   C3419781   5.517   0.955   9.827  0.1640 -0.2927 -0.5520
  174SAPI   H4X19782   5.419   0.903   9.832  0.3005 -0.5822 -0.8838
  174SAPI   H4Y19783   5.596   0.879   9.836 -0.3626 -0.8679 -0.7332
  174SAPI   C3519784   5.551   1.029   9.698  0.7361 -0.3115 -0.3668
  174SAPI   H5X19785   5.654   1.071   9.702 -0.3029  2.4316 -1.4365
  174SAPI   H5Y19786   5.483   1.116   9.700  0.0971 -0.7946 -0.8044
  174SAPI   C3619787   5.537   0.944   9.572  0.3155  0.2676  0.0439
  174SAPI   H6X19788   5.432   0.909   9.577  0.3973 -0.4812 -2.7089
  174SAPI   H6Y19789   5.606   0.857   9.568  2.0203  1.6455 -2.0197
  174SAPI   C3719790   5.541   1.019   9.437 -0.3727  0.3068  0.3958
  174SAPI   H7X19791   5.638   1.070   9.419 -0.5625  0.5533  0.0893
  174SAPI   H7Y19792   5.462   1.096   9.447 -0.7952 -0.1563  0.7052
  174SAPI   C3819793   5.500   0.934   9.323 -0.1754  0.4769  0.5478
  174SAPI   H8X19794   5.403   0.883   9.344  0.8947 -1.8742 -0.0703
  174SAPI   H8Y19795   5.576   0.856   9.301  0.2949  0.6248  1.6197
  174SAPI   C3919796   5.484   1.011   9.194 -0.0500 -0.7304  0.0630
  174SAPI   H9X19797   5.579   1.021   9.138 -1.7911 -2.7058 -3.4529
  174SAPI   H9Y19798   5.455   1.115   9.221 -1.9113 -1.0766 -0.5386
  174SAPI  C31019799   5.386   0.951   9.091 -0.2640  0.5442  0.5302
  174SAPI  H10X19800   5.400   1.003   8.994 -0.2209  0.3815  0.4487
  174SAPI  H10Y19801   5.279   0.957   9.120  0.1232 -1.1060  2.4321
  174SAPI  C31119802   5.405   0.808   9.058 -0.1634 -0.2590  0.2694
  174SAPI  H11X19803   5.395   0.735   9.140  1.4677 -1.8647 -0.9279
  174SAPI  H11Y19804   5.514   0.811   9.035 -0.0216 -0.0371  0.9469
  174SAPI  C31219805   5.314   0.764   8.940 -0.4197  0.2263 -0.2843
  174SAPI  H12X19806   5.298   0.843   8.863  0.0090 -0.1341 -0.7510
  174SAPI  H12Y19807   5.215   0.725   8.972  0.2935 -0.0189  1.7012
  174SAPI  C31319808   5.374   0.643   8.874 -0.3506  0.3511 -0.3953
  174SAPI  H13X19809   5.439   0.592   8.948 -1.0901  0.4157  0.3088
  174SAPI  H13Y19810   5.439   0.666   8.788 -0.9347 -0.0650 -0.9527
  174SAPI  C31419811   5.264   0.553   8.810 -0.6290  0.7990 -0.2598
  174SAPI  H14X19812   5.190   0.522   8.886 -0.3004  0.6659  0.0104
  174SAPI  H14Y19813   5.315   0.466   8.763  0.0783  0.9289  0.2613
  174SAPI  C31519814   5.178   0.622   8.697  0.2067 -0.5540  0.2287
  174SAPI  H15X19815   5.142   0.547   8.623 -1.7107  0.0438  0.5330
  174SAPI  H15Y19816   5.239   0.685   8.630 -1.1576  1.3786  0.7663
  174SAPI  C31619817   5.055   0.705   8.739  0.2269 -0.1033  0.3346
  174SAPI  H16X19818   5.094   0.788   8.802  0.3198 -0.3499  0.6043
  174SAPI  H16Y19819   4.980   0.656   8.805  0.5338  1.0853  1.5986
  174SAPI  C31719820   4.984   0.763   8.611 -0.1441 -0.6505  0.0955
  174SAPI  H17X19821   4.901   0.823   8.655  0.6966 -0.6006  1.6411
  174SAPI  H17Y19822   4.946   0.671   8.563 -0.0313 -0.0416 -1.1849
  174SAPI  C31819823   5.061   0.845   8.510 -0.2860  0.4699  0.1763
  174SAPI  H18X19824   5.144   0.788   8.463 -1.7630 -0.6484 -1.1189
  174SAPI  H18Y19825   5.104   0.937   8.555  2.7616 -0.6806 -0.2809
  174SAPI  H18Z19826   4.985   0.871   8.432  2.3285 -0.1832 -2.6902
  175SAPI   C1219827   0.833   5.832   6.037  0.5750  0.0015  0.3605
  175SAPI    H219828   0.828   5.722   6.048  2.3924 -0.2009 -0.5707
  175SAPI    O219829   0.963   5.872   6.002  0.9212 -0.3231 -0.3086
  175SAPI   HO219830   1.028   5.818   6.046 -0.9623 -0.5139  2.3220
  175SAPI   C1319831   0.728   5.883   5.939  0.0156  0.0226  0.2755
  175SAPI    H319832   0.629   5.840   5.964  0.3203 -1.7584 -1.4364
  175SAPI    O319833   0.755   5.846   5.807 -0.1688  0.0817  0.0812
  175SAPI   HO319834   0.703   5.901   5.748  1.5936 -2.3056 -3.9385
  175SAPI   C1419835   0.711   6.036   5.939 -0.3279  0.3231 -0.3556
  175SAPI    H419836   0.801   6.089   5.902  0.0041  1.0983  1.5421
  175SAPI    O419837   0.603   6.077   5.851  0.3257 -0.1477  0.1240
  175SAPI   HO419838   0.615   6.166   5.818 -0.4390 -0.0877 -0.0032
  175SAPI   C1519839   0.681   6.087   6.076  0.8283 -0.3685 -0.7876
  175SAPI    H519840   0.588   6.041   6.116  2.3378 -2.3171  0.6692
  175SAPI    O519841   0.652   6.229   6.079  0.6154 -0.7235 -0.1000
  175SAPI   HO519842   0.733   6.275   6.055 -0.9574  1.2179 -1.8665
  175SAPI   C1619843   0.791   6.044   6.174 -0.7578 -0.5198  0.4469
  175SAPI    H619844   0.886   6.094   6.146  0.6236 -1.7459  2.7849
  175SAPI    O619845   0.763   6.093   6.300 -0.0750  0.1560 -0.1576
  175SAPI   HO619846   0.835   6.073   6.360 -0.9469 -1.5597  0.3523
  175SAPI   C1119847   0.806   5.891   6.169  0.0599  0.1396  0.0649
  175SAPI    H119848   0.700   5.864   6.191  0.4949 -2.0026 -0.3386
  175SAPI     P19849   0.845   5.710   6.360 -0.2063 -0.0399 -0.3178
  175SAPI   O1319850   0.963   5.667   6.439  0.5608 -0.0145 -0.7613
  175SAPI   O1419851   0.768   5.615   6.281  0.2560 -0.5301 -0.7561
  175SAPI   O1219852   0.897   5.842   6.269  0.3466  0.1046  0.8083
  175SAPI   O1119853   0.744   5.775   6.464 -0.6085  0.6681 -0.8144
  175SAPI    C119854   0.788   5.880   6.553  0.2537  0.1536  0.4816
  175SAPI    HA19855   0.867   5.943   6.506  1.3854  0.2755  2.5289
  175SAPI    HB19856   0.703   5.950   6.571 -0.3529 -0.4277 -0.0391
  175SAPI    C219857   0.832   5.817   6.689  0.1596  0.5019  0.0593
  175SAPI    HS19858   0.934   5.777   6.672 -0.1880 -0.2642 -0.2443
  175SAPI   O2119859   0.728   5.718   6.733 -0.1773  0.3671 -0.4944
  175SAPI   C2119860   0.786   5.612   6.780  0.3824 -0.1727  0.4402
  175SAPI   O2219861   0.907   5.594   6.794 -0.0571  0.4023  0.1530
  175SAPI   C2219862   0.681   5.503   6.803 -0.2459  0.3501 -0.2267
  175SAPI   H2R19863   0.610   5.549   6.876  0.1111  0.8128 -0.1729
  175SAPI   H2S19864   0.623   5.494   6.709 -2.1146  3.4030  0.5811
  175SAPI    C319865   0.845   5.924   6.797 -1.4705  0.1540 -0.3523
  175SAPI    HX19866   0.745   5.973   6.799 -0.8230  1.5722 -1.6103
  175SAPI    HY19867   0.917   6.005   6.774  0.1237 -0.4826  2.1644
  175SAPI   O3119868   0.873   5.875   6.930  0.2651 -0.0314  0.5398
  175SAPI   C3119869   0.991   5.827   6.934  0.3662 -0.2670  0.4270
  175SAPI   O3219870   1.080   5.831   6.851 -0.0829 -0.0256 -0.0452
  175SAPI   C3219871   1.006   5.759   7.071 -0.7526 -0.4792  0.0551
  175SAPI   H2X19872   0.927   5.681   7.074 -1.6169  0.3003 -1.8546
  175SAPI   H2Y19873   0.992   5.835   7.151 -1.7506 -0.7942  0.1894
  175SAPI   C2319874   0.741   5.374   6.855  0.1017 -0.1898  0.8239
  175SAPI   H3R19875   0.822   5.336   6.789  1.0723  0.4697  1.6187
  175SAPI   H3S19876   0.657   5.302   6.855  1.2357 -1.5704 -1.0944
  175SAPI   C2419877   0.803   5.380   6.999 -0.0073  0.5413 -1.2446
  175SAPI   H4R19878   0.736   5.439   7.066 -0.6942  0.5444 -1.9304
  175SAPI   H4S19879   0.901   5.430   7.010  0.0678  0.0610  0.4772
  175SAPI   C2519880   0.822   5.240   7.041  0.5258 -0.1181 -0.0276
  175SAPI   H5R19881   0.856   5.164   6.969  0.8413 -1.0705  1.0875
  175SAPI   C2619882   0.780   5.189   7.162 -0.3554  0.0161  0.2154
  175SAPI   H6R19883   0.808   5.084   7.183  0.3031  0.4293  1.4953
  175SAPI   C2719884   0.705   5.266   7.272  0.3571  0.2602 -0.5541
  175SAPI   H7R19885   0.610   5.315   7.243  0.7658  2.0684  1.1195
  175SAPI   H7S19886   0.767   5.353   7.303 -0.1397  0.7365 -0.8882
  175SAPI   C2819887   0.664   5.181   7.390  0.7160  0.4198  0.2448
  175SAPI   H8R19888   0.565   5.137   7.373  1.0077  0.3161 -1.1891
  175SAPI   C2919889   0.715   5.159   7.512 -0.1869 -0.6312 -0.0513
  175SAPI   H9R19890   0.661   5.088   7.575 -2.7481  2.2878  1.1706
  175SAPI  C21019891   0.841   5.215   7.573  0.7932  0.5519  0.0971
  175SAPI  H10R19892   0.887   5.282   7.497 -2.2040  1.1783 -1.2495
  175SAPI  H10S19893   0.907   5.128   7.590 -0.9953 -0.8794 -0.1658
  175SAPI  C21119894   0.820   5.289   7.702 -0.6790  0.2888  0.2500
  175SAPI  H11R19895   0.780   5.391   7.695 -0.0811  0.5260  0.2632
  175SAPI  C21219896   0.865   5.248   7.826 -0.6802 -0.9518 -0.5191
  175SAPI  H12R19897   0.831   5.308   7.911 -0.2325  1.3395 -1.9167
  175SAPI  C21319898   0.926   5.120   7.872  0.0507  0.2540 -0.2879
  175SAPI  H13R19899   1.035   5.133   7.883  0.2939 -0.4474 -1.7945
  175SAPI  H13S19900   0.905   5.044   7.794  1.4368 -0.5574  0.1325
  175SAPI  C21419901   0.875   5.072   8.002  0.3819  0.1247  0.0931
  175SAPI  H14R19902   0.778   5.020   8.000  1.3009 -1.6545  0.8318
  175SAPI  C21519903   0.932   5.077   8.122  0.3046 -0.1447 -0.2134
  175SAPI  H15R19904   0.875   5.033   8.205  0.9323  0.2825  0.4512
  175SAPI  C21619905   1.059   5.142   8.154 -0.7227  0.0724  0.0118
  175SAPI  H16R19906   1.041   5.215   8.236  0.3485 -0.8227  1.0742
  175SAPI  H16S19907   1.093   5.211   8.075 -0.0322 -1.2947 -0.9005
  175SAPI  C21719908   1.168   5.041   8.185 -0.0604 -0.2451 -0.6408
  175SAPI  H17R19909   1.173   4.951   8.120  0.0235  0.5503 -1.7584
  175SAPI  H17S19910   1.164   5.010   8.292  1.8010  1.7306  0.0482
  175SAPI  C21819911   1.306   5.111   8.169  0.0504  0.3281 -0.0123
  175SAPI  H18R19912   1.372   5.042   8.225  1.4417  0.5911 -1.3199
  175SAPI  H18S19913   1.313   5.213   8.213  1.1172  1.1482 -2.0539
  175SAPI  C21919914   1.367   5.115   8.033 -0.1030  0.1352 -0.1862
  175SAPI  H19R19915   1.293   5.157   7.961 -0.1184 -0.7935 -0.7236
  175SAPI  H19S19916   1.384   5.010   8.000  1.3097  0.5452 -0.7763
  175SAPI  C22019917   1.492   5.206   8.034 -0.7781  0.4933  0.2157
  175SAPI  H20R19918   1.565   5.167   8.108 -1.1905  3.8463  2.5234
  175SAPI  H20S19919   1.457   5.303   8.075  1.5992  1.5324 -0.1182
  175SAPI  H20T19920   1.528   5.211   7.929  1.6046  0.0480  0.9855
  175SAPI   C3319921   1.148   5.704   7.084 -0.4556 -0.6577  0.4166
  175SAPI   H3X19922   1.225   5.785   7.088 -1.7363  0.5565  0.8747
  175SAPI   H3Y19923   1.168   5.656   6.986 -1.0031 -0.2362  0.0936
  175SAPI   C3419924   1.175   5.619   7.204  0.0931  0.6506  0.2888
  175SAPI   H4X19925   1.281   5.585   7.209  0.0200  0.0738 -1.8637
  175SAPI   H4Y19926   1.114   5.527   7.193  0.3530  0.5131 -0.0069
  175SAPI   C3519927   1.158   5.694   7.334  0.4846 -0.5367  0.8482
  175SAPI   H5X19928   1.049   5.712   7.347  0.3514 -1.3717  0.8759
  175SAPI   H5Y19929   1.208   5.793   7.327  0.3962 -0.5768 -0.5781
  175SAPI   C3619930   1.213   5.620   7.455 -0.8277 -0.1304 -0.3983
  175SAPI   H6X19931   1.229   5.695   7.536 -2.0154 -1.1728  0.8086
  175SAPI   H6Y19932   1.313   5.576   7.434 -0.4880  2.4997 -4.9097
  175SAPI   C3719933   1.117   5.519   7.507  0.0275 -0.5867  0.0586
  175SAPI   H7X19934   1.105   5.448   7.422  0.7884 -0.1425 -0.4233
  175SAPI   H7Y19935   1.019   5.571   7.520 -1.1068 -1.5886 -3.7375
  175SAPI   C3819936   1.166   5.432   7.630 -0.3787 -0.0185  0.3800
  175SAPI   H8X19937   1.275   5.426   7.606 -0.4220 -1.2300  0.4631
  175SAPI   H8Y19938   1.113   5.335   7.640 -2.0311  0.7374 -0.8377
  175SAPI   C3919939   1.140   5.511   7.758 -0.2942 -0.0640  0.2386
  175SAPI   H9X19940   1.032   5.535   7.756 -0.4061 -0.3361  2.2185
  175SAPI   H9Y19941   1.203   5.603   7.750  1.3158 -1.1438  0.3394
  175SAPI  C31019942   1.175   5.434   7.890  0.0872  0.4286 -0.3113
  175SAPI  H10X19943   1.285   5.421   7.881 -0.1288 -0.3639 -2.2640
  175SAPI  H10Y19944   1.112   5.343   7.900  1.4545 -0.6714 -1.4807
  175SAPI  C31119945   1.147   5.520   8.017  0.0030 -0.8846  0.0878
  175SAPI  H11X19946   1.156   5.453   8.105  2.1321 -1.4854 -0.5592
  175SAPI  H11Y19947   1.047   5.568   8.014  1.0279  1.3593  0.5632
  175SAPI  C31219948   1.241   5.637   8.045 -0.1900  0.2178 -0.3689
  175SAPI  H12X19949   1.249   5.702   7.955  0.8633  1.2798  0.4723
  175SAPI  H12Y19950   1.337   5.585   8.065  1.1345  2.6419 -0.1787
  175SAPI  C31319951   1.200   5.722   8.171 -0.0350 -0.4798 -0.1465
  175SAPI  H13X19952   1.183   5.646   8.249 -0.1951 -1.6298 -1.2770
  175SAPI  H13Y19953   1.105   5.774   8.146 -2.0168 -1.8415  4.1262
  175SAPI  C31419954   1.320   5.815   8.215 -0.0307 -0.5199  0.9519
  175SAPI  H14X19955   1.332   5.896   8.140  0.9126  0.4191  2.0954
  175SAPI  H14Y19956   1.411   5.753   8.223 -0.1163 -0.8551 -0.5461
  175SAPI  C31519957   1.298   5.865   8.364  1.2339 -0.5298 -0.0337
  175SAPI  H15X19958   1.271   5.780   8.430  0.1681 -0.2191 -0.0598
  175SAPI  H15Y19959   1.211   5.933   8.369 -0.0300 -2.0327 -1.1455
  175SAPI  C31619960   1.430   5.946   8.409  0.4413  0.2656  0.5089
  175SAPI  H16X19961   1.512   5.873   8.420  1.5698  1.8029  2.5697
  175SAPI  H16Y19962   1.415   5.993   8.508 -1.5255 -1.1465  0.9049
  175SAPI  C31719963   1.502   6.047   8.318  0.5960  0.0153  0.4772
  175SAPI  H17X19964   1.422   6.120   8.294  1.2638 -0.1200 -2.2559
  175SAPI  H17Y19965   1.535   5.995   8.226 -0.7759 -0.3466  0.1785
  175SAPI  C31819966   1.629   6.121   8.382 -0.3415 -0.0262  0.0034
  175SAPI  H18X19967   1.708   6.044   8.393 -1.8923 -1.3719  2.1021
  175SAPI  H18Y19968   1.597   6.163   8.479  2.0696  1.3477  0.2345
  175SAPI  H18Z19969   1.660   6.212   8.327  1.3016 -1.1310 -0.9400
  176SAPI   C1219970   1.211   3.997   6.135  0.3512 -0.1874 -0.3499
  176SAPI    H219971   1.123   3.992   6.201 -0.6168  0.8599 -1.5306
  176SAPI    O219972   1.296   3.886   6.153  0.1997  0.3963  0.8670
  176SAPI   HO219973   1.364   3.915   6.214  1.5805  1.9326 -1.3324
  176SAPI   C1319974   1.153   4.001   5.990  0.2835  0.5512 -0.2042
  176SAPI    H319975   1.088   4.090   5.979 -3.1297 -1.5834  1.5052
  176SAPI    O319976   1.075   3.884   5.963 -0.5314  0.0087  0.1144
  176SAPI   HO319977   0.998   3.905   5.910  0.1015  2.9916  0.2816
  176SAPI   C1419978   1.266   4.017   5.891 -0.3219  0.7060  0.3933
  176SAPI    H419979   1.328   3.924   5.890 -0.4372  0.6237  0.7976
  176SAPI    O419980   1.225   4.037   5.751 -0.2339 -0.3544  0.5380
  176SAPI   HO419981   1.204   3.954   5.708 -0.4289  0.6242 -1.3326
  176SAPI   C1519982   1.361   4.131   5.929  0.2275 -0.1648 -0.3097
  176SAPI    H519983   1.318   4.227   5.893  2.0006  1.7930  2.6517
  176SAPI    O519984   1.487   4.110   5.862  0.6477  0.4584 -0.4198
  176SAPI   HO519985   1.465   4.055   5.786 -1.7478 -0.3023  0.7810
  176SAPI   C1619986   1.397   4.143   6.075 -0.2365 -0.4366 -0.7429
  176SAPI    H619987   1.481   4.075   6.103  0.7684  0.5862 -1.2461
  176SAPI    O619988   1.449   4.271   6.102  0.0200 -0.3028  0.0555
  176SAPI   HO619989   1.509   4.262   6.177  0.7721 -0.5204 -0.5684
  176SAPI   C1119990   1.279   4.123   6.163  0.6080 -0.4026 -0.9364
  176SAPI    H119991   1.206   4.205   6.151 -0.2129 -1.1796 -1.2876
  176SAPI     P19992   1.232   4.176   6.432  0.2271  0.5862  0.0161
  176SAPI   O1319993   1.133   4.268   6.382 -0.0822  0.2493 -0.1731
  176SAPI   O1419994   1.330   4.230   6.526 -0.8785 -1.0226  0.2734
  176SAPI   O1219995   1.317   4.115   6.303  0.1635 -0.1301 -0.4719
  176SAPI   O1119996   1.167   4.044   6.483 -0.0354  0.1534  0.4884
  176SAPI    C119997   1.252   3.940   6.537  1.0368 -0.1975 -0.9668
  176SAPI    HA19998   1.225   3.843   6.490  1.3640 -0.1262 -1.3127
  176SAPI    HB19999   1.359   3.956   6.512  1.4381 -0.8002  0.3594
  176SAPI    C220000   1.246   3.927   6.685  0.8518  0.3633 -0.4042
  176SAPI    HS20001   1.141   3.903   6.714 -0.0596  1.2223 -2.8758
  176SAPI   O2120002   1.289   4.053   6.737 -0.0375 -0.1661 -0.4764
  176SAPI   C2120003   1.205   4.130   6.796 -0.0312  0.0370 -0.0328
  176SAPI   O2220004   1.086   4.113   6.797 -0.3583  0.7340  0.2113
  176SAPI   C2220005   1.285   4.250   6.857 -0.3897  0.3271 -0.8009
  176SAPI   H2R20006   1.385   4.259   6.810  0.0047  1.9211  0.3008
  176SAPI   H2S20007   1.228   4.341   6.828 -1.6143 -0.2171 -0.1181
  176SAPI    C320008   1.336   3.816   6.747 -0.2182  0.1790  0.4940
  176SAPI    HX20009   1.440   3.834   6.715 -0.0754 -1.6896 -0.1231
  176SAPI    HY20010   1.307   3.719   6.700 -1.6353  0.3682  0.9459
  176SAPI   O3120011   1.331   3.822   6.889  0.1398  0.1185  0.0408
  176SAPI   C3120012   1.232   3.765   6.952 -0.5493  0.3592 -0.3504
  176SAPI   O3220013   1.131   3.723   6.894 -0.0184  0.3745 -0.5586
  176SAPI   C3220014   1.254   3.766   7.101 -0.6159 -0.1484  0.6139
  176SAPI   H2X20015   1.275   3.868   7.139  0.1197 -1.0475  2.6680
  176SAPI   H2Y20016   1.331   3.689   7.119 -1.2422 -0.7479  0.7503
  176SAPI   C2320017   1.294   4.243   7.010 -0.3526  0.6041 -1.0208
  176SAPI   H3R20018   1.381   4.297   7.052 -1.2928  0.1698  1.5947
  176SAPI   H3S20019   1.307   4.137   7.043  0.0751 -0.2296 -3.7463
  176SAPI   C2420020   1.177   4.303   7.095  0.5066  0.1509 -0.1512
  176SAPI   H4R20021   1.145   4.399   7.051  0.8056  0.1220 -0.4400
  176SAPI   H4S20022   1.213   4.341   7.193 -2.6570  1.2387  0.6478
  176SAPI   C2520023   1.061   4.213   7.128  0.5551 -0.3235 -0.7322
  176SAPI   H5R20024   1.022   4.160   7.040  0.4824  0.0590 -0.9344
  176SAPI   C2620025   0.998   4.203   7.246  0.5241 -0.3796  0.2399
  176SAPI   H6R20026   0.907   4.141   7.255 -1.2590  2.2760  1.3331
  176SAPI   C2720027   1.034   4.270   7.382  0.4592 -0.2013  0.1528
  176SAPI   H7R20028   1.137   4.311   7.377  0.0138  1.0909  1.1041
  176SAPI   H7S20029   1.045   4.200   7.468 -1.0540 -3.4445 -2.2023
  176SAPI   C2820030   0.955   4.392   7.420 -0.4309  0.1380  0.3387
  176SAPI   H8R20031   0.994   4.488   7.383  1.4878 -0.2984  1.1832
  176SAPI   C2920032   0.845   4.395   7.500  0.0709 -0.1937 -0.1529
  176SAPI   H9R20033   0.808   4.496   7.525 -0.4688 -0.1023 -1.3059
  176SAPI  C21020034   0.788   4.278   7.578  0.5593  0.0007  0.2410
  176SAPI  H10R20035   0.711   4.313   7.650  0.8590  1.9779 -0.3752
  176SAPI  H10S20036   0.873   4.235   7.634 -1.3123 -1.8268  1.7859
  176SAPI  C21120037   0.718   4.178   7.488 -0.1037 -0.5664  0.4627
  176SAPI  H11R20038   0.707   4.213   7.384  2.3046  0.4431  0.5104
  176SAPI  C21220039   0.665   4.059   7.528 -0.5483 -0.7415  0.9112
  176SAPI  H12R20040   0.608   4.009   7.449 -0.4083 -0.9569  0.9437
  176SAPI  C21320041   0.673   3.998   7.663 -0.3115  0.2361  0.0309
  176SAPI  H13R20042   0.707   4.074   7.737  0.9961 -0.3324  0.0221
  176SAPI  H13S20043   0.747   3.916   7.666  0.4836  0.9331 -0.0980
  176SAPI  C21420044   0.534   3.943   7.692 -0.7403  0.8464 -0.3679
  176SAPI  H14R20045   0.465   3.939   7.606  0.2691  0.2473 -1.1687
  176SAPI  C21520046   0.491   3.889   7.803  0.3953  0.6820 -0.0104
  176SAPI  H15R20047   0.385   3.862   7.809  0.1184  1.7995  0.2216
  176SAPI  C21620048   0.558   3.866   7.943 -0.1796  0.2354 -0.3205
  176SAPI  H16R20049   0.669   3.867   7.934 -0.0976  1.7194  0.6371
  176SAPI  H16S20050   0.522   3.766   7.976  1.7681 -0.6754 -0.8685
  176SAPI  C21720051   0.522   3.972   8.049 -0.2406 -0.2326  0.5317
  176SAPI  H17R20052   0.412   3.988   8.052 -0.6612 -3.0169  0.8201
  176SAPI  H17S20053   0.553   4.078   8.038  1.1432 -0.6003  0.7972
  176SAPI  C21820054   0.574   3.939   8.187 -0.9037  0.1406  0.2665
  176SAPI  H18R20055   0.572   4.034   8.244  3.5594  0.6948 -0.3282
  176SAPI  H18S20056   0.682   3.910   8.186 -1.2982 -1.3097 -0.5578
  176SAPI  C21920057   0.497   3.843   8.273 -0.0841  0.1082 -0.0474
  176SAPI  H19R20058   0.480   3.748   8.218 -0.5010 -1.7016  3.0436
  176SAPI  H19S20059   0.399   3.895   8.283 -0.6290 -0.8908 -0.1279
  176SAPI  C22020060   0.557   3.800   8.415 -0.5979  0.4344  0.0241
  176SAPI  H20R20061   0.508   3.713   8.464  0.0355 -0.6989 -1.3055
  176SAPI  H20S20062   0.541   3.890   8.477  0.9955  1.1675 -0.5996
  176SAPI  H20T20063   0.665   3.782   8.396  0.1926  2.5434  2.2767
  176SAPI   C3320064   1.124   3.707   7.172  0.2170  0.1647 -0.2817
  176SAPI   H3X20065   1.112   3.613   7.113  1.7877 -0.5647  0.5291
  176SAPI   H3Y20066   1.039   3.778   7.179  1.1424  1.5802 -2.7818
  176SAPI   C3420067   1.159   3.661   7.323 -0.3877  0.2683  0.2009
  176SAPI   H4X20068   1.245   3.592   7.312 -0.5947 -0.2381  1.6578
  176SAPI   H4Y20069   1.075   3.604   7.368 -0.1256 -0.7028 -0.5296
  176SAPI   C3520070   1.188   3.779   7.414  0.0495  0.1355 -0.0681
  176SAPI   H5X20071   1.213   3.863   7.345  0.7309 -0.5358 -0.6386
  176SAPI   H5Y20072   1.289   3.764   7.459  0.0992  2.0597  0.5083
  176SAPI   C3620073   1.082   3.801   7.520 -0.3261  0.0758 -0.2133
  176SAPI   H6X20074   0.987   3.792   7.463  0.9963 -0.9335 -2.3277
  176SAPI   H6Y20075   1.096   3.906   7.551  1.1485  0.0928 -0.8946
  176SAPI   C3720076   1.089   3.697   7.638 -0.1090 -0.3647 -0.3051
  176SAPI   H7X20077   1.188   3.708   7.686 -1.3140 -0.7770  2.3439
  176SAPI   H7Y20078   1.073   3.594   7.600 -0.9631  0.3533 -1.9646
  176SAPI   C3820079   0.972   3.723   7.739 -0.6322 -0.0877  0.3109
  176SAPI   H8X20080   0.873   3.709   7.690 -0.2326  0.8439 -0.7911
  176SAPI   H8Y20081   0.987   3.828   7.771  2.1383 -0.4264  0.1943
  176SAPI   C3920082   0.978   3.637   7.863  0.3038  0.0823 -0.1867
  176SAPI   H9X20083   0.967   3.530   7.836 -3.8941  0.6147 -0.9244
  176SAPI   H9Y20084   0.890   3.665   7.925 -0.0159  1.5859 -1.2987
  176SAPI  C31020085   1.109   3.658   7.936  0.2250 -0.0163  0.0388
  176SAPI  H10X20086   1.141   3.764   7.934 -1.2653  0.5002  1.7224
  176SAPI  H10Y20087   1.188   3.605   7.879 -0.7662  0.2294 -1.5933
  176SAPI  C31120088   1.115   3.599   8.074  0.2215  0.5490 -0.4452
  176SAPI  H11X20089   1.219   3.596   8.112  0.1403 -1.0640 -0.3196
  176SAPI  H11Y20090   1.071   3.500   8.055 -2.7316  1.9820 -1.3668
  176SAPI  C31220091   1.036   3.680   8.176  0.3010 -0.2588  0.6221
  176SAPI  H12X20092   0.928   3.672   8.150  0.7164  0.1045 -1.3248
  176SAPI  H12Y20093   1.073   3.784   8.165 -1.5015  0.1519 -2.1610
  176SAPI  C31320094   1.069   3.615   8.318 -0.3255  0.4905  0.9623
  176SAPI  H13X20095   1.171   3.651   8.344 -0.6444  0.1683  2.7313
  176SAPI  H13Y20096   1.059   3.506   8.300  2.6508  0.3651 -0.2913
  176SAPI  C31420097   0.978   3.673   8.421  0.3966 -0.1998 -0.5596
  176SAPI  H14X20098   0.879   3.629   8.398  1.2900 -1.6277 -1.7177
  176SAPI  H14Y20099   0.969   3.783   8.409 -1.6580 -0.5700 -2.8080
  176SAPI  C31520100   1.012   3.635   8.562  0.5598 -0.0582  0.4716
  176SAPI  H15X20101   0.945   3.686   8.635  1.3018  0.9922  0.4195
  176SAPI  H15Y20102   1.113   3.678   8.581  1.3541 -0.9765 -1.6168
  176SAPI  C31620103   1.023   3.491   8.599  0.3592 -0.7026  0.1095
  176SAPI  H16X20104   1.046   3.489   8.708 -1.3201  1.4035  0.5316
  176SAPI  H16Y20105   1.105   3.435   8.549 -0.0114  0.5868 -1.9695
  176SAPI  C31720106   0.899   3.408   8.566  0.2119  0.3646  0.0773
  176SAPI  H17X20107   0.886   3.401   8.456  0.6076 -1.5596  0.1396
  176SAPI  H17Y20108   0.808   3.453   8.612  0.4998  0.0272  0.9907
  176SAPI  C31820109   0.905   3.266   8.608  0.1511  0.0942  0.0743
  176SAPI  H18X20110   0.923   3.259   8.717  1.3810 -2.1992 -0.2315
  176SAPI  H18Y20111   0.995   3.218   8.562  0.9531 -0.1677  1.8742
  176SAPI  H18Z20112   0.811   3.220   8.573 -0.2803  1.7326 -0.9680
  177SLPC     N20113   0.546   1.675  11.132  0.8727 -0.2083 -0.2609
  177SLPC   C1320114   0.466   1.730  11.250  0.1771 -0.2083  0.1926
  177SLPC  H13A20115   0.481   1.837  11.254 -1.2522  0.0648 -1.2188
  177SLPC  H13B20116   0.362   1.702  11.239 -0.2320  0.7169  1.5625
  177SLPC  H13C20117   0.506   1.686  11.340  3.6104 -0.1983 -1.2548
  177SLPC   C1420118   0.541   1.522  11.141  0.7213 -0.4237 -0.2439
  177SLPC  H14A20119   0.442   1.480  11.140  0.3069  0.4381  1.7849
  177SLPC  H14B20120   0.603   1.473  11.068  0.3801  0.2483 -1.0010
  177SLPC  H14C20121   0.576   1.498  11.240  0.1515  0.5726  0.2092
  177SLPC   C1520122   0.682   1.735  11.146 -0.2491 -0.4146  0.5004
  177SLPC  H15A20123   0.720   1.705  11.243 -2.6543  1.0153  1.9323
  177SLPC  H15B20124   0.754   1.696  11.076 -1.0126  0.9698 -1.0917
  177SLPC  H15C20125   0.676   1.843  11.144 -1.6419 -0.5128 -2.2694
  177SLPC   C1220126   0.477   1.712  10.995  0.2595 -0.0925  0.0079
  177SLPC  H12A20127   0.536   1.662  10.920  1.4225  0.9223  0.2325
  177SLPC  H12B20128   0.478   1.819  10.978 -2.2464  0.1596  1.2345
  177SLPC   C1120129   0.335   1.660  10.957 -0.0851  0.4118 -0.1136
  177SLPC  H11A20130   0.295   1.713  10.868  0.8713  0.7369 -0.3592
  177SLPC  H11B20131   0.276   1.678  11.049  0.3149 -2.1890  0.6869
  177SLPC     P20132   0.194   1.452  10.891  0.3061 -0.0654 -0.1492
  177SLPC   O1320133   0.112   1.445  11.014  0.3684  0.1032  0.1191
  177SLPC   O1420134   0.136   1.514  10.769  0.7417 -0.0040 -0.4563
  177SLPC   O1220135   0.336   1.520  10.928  0.0109 -0.2876 -0.1959
  177SLPC   O1120136   0.238   1.299  10.860 -0.0077  0.4024  0.0945
  177SLPC    C120137   0.377   1.270  10.824 -0.6759  0.0124 -0.0493
  177SLPC    HA20138   0.458   1.326  10.876  1.3745  0.1046 -3.2298
  177SLPC    HB20139   0.400   1.165  10.851 -0.7004 -0.4750 -1.8744
  177SLPC    C220140   0.399   1.265  10.669  0.4532 -0.0488 -0.2834
  177SLPC    HS20141   0.500   1.220  10.658  0.3024 -0.5897  0.5374
  177SLPC   O2120142   0.386   1.401  10.622 -0.3679  0.3363 -0.0051
  177SLPC   C2120143   0.503   1.473  10.636  0.0894 -0.0068 -0.1702
  177SLPC   O2220144   0.611   1.427  10.670 -0.3688  0.2467 -0.0480
  177SLPC   C2220145   0.487   1.621  10.613  0.0927  0.1464  0.4533
  177SLPC   H2R20146   0.381   1.656  10.615  0.2413  0.5784  0.9406
  177SLPC   H2S20147   0.531   1.664  10.705  1.6804  0.8838 -0.6402
  177SLPC    C320148   0.296   1.171  10.594 -0.6394 -0.0980 -0.3625
  177SLPC    HX20149   0.194   1.205  10.623 -0.7444  1.4049 -2.3673
  177SLPC    HY20150   0.304   1.071  10.641  0.8777  0.3648  0.3890
  177SLPC   O3120151   0.333   1.152  10.457 -0.3329  0.3549  0.4644
  177SLPC   C3120152   0.285   1.243  10.370  0.2203 -0.1216 -0.3197
  177SLPC   O3220153   0.225   1.340  10.412 -0.1693  0.4239  0.1791
  177SLPC   C3220154   0.314   1.199  10.229  0.4834 -0.1738 -1.0610
  177SLPC   H2X20155   0.252   1.109  10.207  1.4279 -1.0844 -0.0637
  177SLPC   H2Y20156   0.422   1.177  10.217  1.2908  1.7322  2.0962
  177SLPC   C2320157   0.570   1.677  10.495  0.3910 -0.0749  0.7348
  177SLPC   H3R20158   0.680   1.664  10.498  0.3087 -0.7089  1.2228
  177SLPC   H3S20159   0.555   1.786  10.482 -2.9417 -0.3394  1.9394
  177SLPC   C2420160   0.523   1.611  10.357 -0.1584  0.3300  0.0402
  177SLPC   H4R20161   0.412   1.608  10.354 -0.1335 -2.1147  0.8093
  177SLPC   H4S20162   0.556   1.506  10.372  1.3289  0.8169  0.2564
  177SLPC   C2520163   0.580   1.677  10.227  0.2123 -0.6284 -0.0324
  177SLPC   H5R20164   0.681   1.633  10.212 -0.3531 -1.0056 -2.9792
  177SLPC   H5S20165   0.591   1.784  10.255  0.5828 -0.1575 -1.9221
  177SLPC   C2620166   0.512   1.669  10.093  1.1068  0.1572 -0.4425
  177SLPC   H6R20167   0.410   1.711  10.104  0.2733 -1.6537 -1.0079
  177SLPC   H6S20168   0.505   1.561  10.067  1.4550  0.5290 -2.1227
  177SLPC   C2720169   0.579   1.738   9.970 -0.0013  0.0077  0.0331
  177SLPC   H7R20170   0.656   1.665   9.937 -1.8875 -1.2059 -1.7813
  177SLPC   H7S20171   0.631   1.831  10.002  0.2885  0.7496 -2.4698
  177SLPC   C2820172   0.469   1.787   9.882  0.8079  0.6312 -0.5851
  177SLPC   H8R20173   0.523   1.854   9.812 -1.9584  1.8165 -1.6503
  177SLPC   H8S20174   0.386   1.850   9.921  1.9869  2.3117 -0.7798
  177SLPC   C2920175   0.397   1.674   9.808 -0.0615  0.6375  1.0897
  177SLPC   H9R20176   0.333   1.609   9.869 -0.4494  1.7821  1.9105
  177SLPC  C21020177   0.398   1.659   9.674  0.1403 -0.1690 -0.9406
  177SLPC  H10R20178   0.338   1.572   9.643 -0.9235  1.3180 -3.1601
  177SLPC  C21120179   0.459   1.748   9.565  0.2133 -0.1989  0.5613
  177SLPC  H11R20180   0.391   1.836   9.568 -1.3166 -1.3942  2.7907
  177SLPC  H11S20181   0.560   1.778   9.600  0.9096  0.1332 -1.6318
  177SLPC  C21220182   0.484   1.696   9.426 -0.1000  0.1745  0.8233
  177SLPC  H12R20183   0.483   1.586   9.418 -0.4994  0.3656 -2.4300
  177SLPC  C21320184   0.490   1.768   9.311 -0.6630  0.3684  0.0573
  177SLPC  H13R20185   0.506   1.720   9.213 -1.9943  0.1431 -0.0678
  177SLPC  C21420186   0.488   1.917   9.300  0.0581 -0.0227  0.5525
  177SLPC  H14R20187   0.589   1.948   9.267 -0.9369  2.8114 -0.0059
  177SLPC  H14S20188   0.476   1.960   9.402  0.7736  1.2578  0.1163
  177SLPC  C21520189   0.373   1.968   9.207 -0.2366 -0.4890 -0.2186
  177SLPC  H15R20190   0.391   1.918   9.109 -2.1877 -1.1764 -0.2565
  177SLPC  H15S20191   0.374   2.079   9.206  1.5115 -0.4879 -1.3975
  177SLPC  C21620192   0.227   1.946   9.250 -0.1093 -0.4456  0.9404
  177SLPC  H16R20193   0.208   1.838   9.270 -1.1984  0.0817  2.8404
  177SLPC  H16S20194   0.163   1.978   9.165  1.3183 -0.1526 -0.0523
  177SLPC  C21720195   0.185   2.028   9.377  0.3731  0.1725 -0.3805
  177SLPC  H17R20196   0.204   2.136   9.357  1.6259  0.0602  0.1626
  177SLPC  H17S20197   0.252   2.001   9.461  1.2939 -3.6957 -2.2552
  177SLPC  C21820198   0.042   2.006   9.411  0.2980  0.4355 -0.1821
  177SLPC  H18R20199   0.014   2.071   9.497 -0.6284 -2.7033  1.9485
  177SLPC  H18S20200   0.035   1.902   9.448 -2.4511  0.7634  0.3295
  177SLPC  H18T20201  -0.031   2.030   9.330 -3.0468 -0.2101  2.5328
  177SLPC   C3320202   0.272   1.305  10.119 -0.5635  0.1226  1.2659
  177SLPC   H3X20203   0.354   1.379  10.112  0.9452 -1.5383  0.8179
  177SLPC   H3Y20204   0.187   1.371  10.144 -1.1755 -0.0397 -0.3508
  177SLPC   C3420205   0.250   1.236   9.981  1.1266  0.2866 -0.3895
  177SLPC   H4X20206   0.171   1.158   9.991  1.6577 -0.0853  1.0317
  177SLPC   H4Y20207   0.341   1.182   9.948  0.6158 -1.2240  0.6396
  177SLPC   C3520208   0.230   1.335   9.867  0.3797 -0.0497  0.5981
  177SLPC   H5X20209   0.318   1.373   9.812 -0.8115 -0.9540 -2.0594
  177SLPC   H5Y20210   0.187   1.430   9.905  0.9946  0.0888  0.9449
  177SLPC   C3620211   0.143   1.273   9.759  0.8207  0.5970  0.0092
  177SLPC   H6X20212   0.048   1.245   9.808  1.7017 -1.4245  0.6035
  177SLPC   H6Y20213   0.178   1.178   9.712 -0.1121  0.6853 -0.9000
  177SLPC   C3720214   0.115   1.370   9.637 -0.8989  0.5886  0.6579
  177SLPC   H7X20215   0.098   1.476   9.665  0.3380  1.9146 -3.2098
  177SLPC   H7Y20216   0.027   1.339   9.576 -2.1232 -0.1154  2.7560
  177SLPC   C3820217   0.226   1.346   9.525  0.4748 -0.0541 -0.1791
  177SLPC   H8X20218   0.308   1.280   9.558  1.5709  0.7662 -1.2388
  177SLPC   H8Y20219   0.264   1.447   9.497  1.6004 -0.8755 -1.6575
  177SLPC   C3920220   0.178   1.286   9.395 -0.1590 -0.3411 -0.0140
  177SLPC   H9X20221   0.075   1.320   9.372 -0.0640 -1.3799 -2.0943
  177SLPC   H9Y20222   0.169   1.175   9.401  3.2352 -0.6467  0.7008
  177SLPC  C31020223   0.262   1.326   9.272 -0.4214 -0.4565 -0.2563
  177SLPC  H10X20224   0.367   1.292   9.283 -0.8803 -2.3404 -1.7122
  177SLPC  H10Y20225   0.257   1.436   9.258 -2.6130 -0.5962 -0.6996
  177SLPC  C31120226   0.198   1.266   9.142  0.1566 -0.3368 -0.3077
  177SLPC  H11X20227   0.090   1.288   9.134  0.3430  0.5096 -0.5207
  177SLPC  H11Y20228   0.216   1.157   9.144 -0.0300 -0.3597  0.4676
  177SLPC  C31220229   0.256   1.324   9.010  0.5625 -0.2453  0.0270
  177SLPC  H12X20230   0.238   1.434   9.009 -1.1535 -0.5150 -1.2649
  177SLPC  H12Y20231   0.194   1.282   8.928  0.8476  0.6491 -0.6594
  177SLPC  C31320232   0.403   1.289   8.991 -0.6095 -0.3616  0.7260
  177SLPC  H13X20233   0.412   1.183   8.959 -2.4514  1.1011 -5.2655
  177SLPC  H13Y20234   0.464   1.315   9.080 -0.4327 -2.0376  1.1177
  177SLPC  C31420235   0.464   1.354   8.873 -0.4726  0.1470 -0.7193
  177SLPC  H14X20236   0.558   1.302   8.843 -0.8195 -1.2257  0.5080
  177SLPC  H14Y20237   0.497   1.458   8.892 -0.4713  0.1965 -0.9923
  177SLPC  C31520238   0.378   1.352   8.744 -0.0058 -0.0760 -0.1892
  177SLPC  H15X20239   0.305   1.435   8.757  2.6870  2.4033 -0.5073
  177SLPC  H15Y20240   0.328   1.254   8.728  0.2859  0.2661 -3.6373
  177SLPC  C31620241   0.453   1.384   8.615 -0.5623  0.9610 -0.1464
  177SLPC  H16X20242   0.386   1.362   8.529  1.6668  2.0234 -2.1997
  177SLPC  H16Y20243   0.533   1.308   8.608 -2.6255 -1.2329 -0.9326
  177SLPC  C31720244   0.532   1.523   8.594 -0.5811  0.4598 -0.4562
  177SLPC  H17X20245   0.556   1.539   8.486  2.7120  0.0696  0.1645
  177SLPC  H17Y20246   0.630   1.531   8.645 -0.8013  0.4791 -0.0370
  177SLPC  C31820247   0.463   1.653   8.626 -0.3074 -0.3740 -0.2630
  177SLPC  H18X20248   0.372   1.664   8.563 -0.3530 -0.0694 -0.1496
  177SLPC  H18Y20249   0.527   1.739   8.596 -1.1581  0.3861  0.0677
  177SLPC  H18Z20250   0.437   1.675   8.732  1.8953  0.3340  0.1428
  178SLPC     N20251   2.044   2.252  11.181  0.5375  0.9413 -0.2947
  178SLPC   C1320252   1.905   2.303  11.214  0.1621  0.7758 -0.0879
  178SLPC  H13A20253   1.892   2.329  11.318 -0.0776  1.3971 -0.2691
  178SLPC  H13B20254   1.887   2.399  11.167  1.2413  0.5171 -1.0476
  178SLPC  H13C20255   1.824   2.237  11.190 -0.7340  1.0490  2.0576
  178SLPC   C1420256   2.037   2.165  11.060 -0.0118 -0.2244 -0.4265
  178SLPC  H14A20257   1.987   2.217  10.979  0.2925  2.0298  0.7766
  178SLPC  H14B20258   2.139   2.140  11.034 -0.4063 -2.7425  0.2888
  178SLPC  H14C20259   1.997   2.065  11.072  1.9677 -1.0399 -0.5018
  178SLPC   C1520260   2.095   2.162  11.293  0.5012  0.3449  0.3727
  178SLPC  H15A20261   2.097   2.208  11.391 -1.0158 -1.2136  1.1524
  178SLPC  H15B20262   2.032   2.075  11.300  0.4620  0.3622  0.2301
  178SLPC  H15C20263   2.195   2.125  11.278  0.4654  0.6438 -0.6243
  178SLPC   C1220264   2.135   2.368  11.162  0.2240 -0.7075 -0.1955
  178SLPC  H12A20265   2.236   2.328  11.163 -0.1904 -1.8464 -1.9744
  178SLPC  H12B20266   2.130   2.424  11.254 -1.7259  1.0000 -1.2987
  178SLPC   C1120267   2.118   2.452  11.038 -0.5224 -1.2503 -0.0083
  178SLPC  H11A20268   2.121   2.382  10.952  0.1316 -1.0015 -0.1921
  178SLPC  H11B20269   2.200   2.527  11.027  1.7529 -3.9027 -1.6804
  178SLPC     P20270   1.969   2.668  11.020 -0.5009 -0.1472 -0.6218
  178SLPC   O1320271   1.829   2.688  10.986  0.1937  0.2796  0.4301
  178SLPC   O1420272   2.023   2.736  11.139 -0.2521  0.2189 -0.4799
  178SLPC   O1220273   1.996   2.514  11.031  0.4647  0.0467  0.3922
  178SLPC   O1120274   2.064   2.709  10.897  0.5314 -0.7375  1.3448
  178SLPC    C120275   2.045   2.646  10.764 -0.2972 -1.0211 -0.2273
  178SLPC    HA20276   2.146   2.607  10.739 -0.1176 -0.8226  0.1799
  178SLPC    HB20277   1.977   2.561  10.782 -1.0079 -0.4592 -0.2486
  178SLPC    C220278   2.006   2.739  10.648 -0.1354 -0.5273 -0.5819
  178SLPC    HS20279   2.016   2.686  10.551 -0.0160 -0.4102 -0.6324
  178SLPC   O2120280   2.064   2.869  10.654  0.1117 -0.5218  0.2357
  178SLPC   C2120281   2.183   2.874  10.598 -1.5348 -0.3704 -0.0435
  178SLPC   O2220282   2.227   2.792  10.516  0.7069 -0.0270 -0.1563
  178SLPC   C2220283   2.260   3.002  10.633 -0.9037 -0.2293 -0.4278
  178SLPC   H2R20284   2.302   2.991  10.735 -2.4464  0.7983  0.3313
  178SLPC   H2S20285   2.353   3.014  10.573  0.1969 -1.2936  1.0224
  178SLPC    C320286   1.854   2.773  10.664 -0.1997 -0.1455 -0.5498
  178SLPC    HX20287   1.834   2.842  10.749  0.1890 -0.1045 -0.4918
  178SLPC    HY20288   1.797   2.681  10.689 -0.8854  0.5975  0.6565
  178SLPC   O3120289   1.802   2.826  10.542  0.5909  0.0827  0.4863
  178SLPC   C3120290   1.767   2.950  10.519  0.4497  0.4315 -0.2355
  178SLPC   O3220291   1.781   3.048  10.593 -0.5005  0.3242  0.1236
  178SLPC   C3220292   1.661   2.949  10.406 -0.4124 -0.2564  0.3404
  178SLPC   H2X20293   1.602   3.044  10.404 -1.7498 -1.0938 -1.9289
  178SLPC   H2Y20294   1.592   2.865  10.428 -0.7399  0.4887  2.2736
  178SLPC   C2320295   2.171   3.128  10.640 -0.0358  0.2337 -0.6972
  178SLPC   H3R20296   2.217   3.215  10.690  0.0781 -0.5625  0.6303
  178SLPC   H3S20297   2.079   3.097  10.695 -0.4421  0.0049 -1.4931
  178SLPC   C2420298   2.133   3.172  10.500  0.0095 -0.2403  0.2775
  178SLPC   H4R20299   2.064   3.258  10.515  0.0640 -0.3013  0.8568
  178SLPC   H4S20300   2.082   3.096  10.437  0.8658 -0.6059  0.0099
  178SLPC   C2520301   2.259   3.218  10.425  0.8474  0.0069  0.4079
  178SLPC   H5R20302   2.344   3.148  10.413  2.2948  1.7230  0.3896
  178SLPC   H5S20303   2.304   3.303  10.481  0.0859  1.6697 -1.4614
  178SLPC   C2620304   2.225   3.266  10.280 -0.2085  0.1123  0.0870
  178SLPC   H6R20305   2.152   3.348  10.297  1.5685  1.8991 -0.7602
  178SLPC   H6S20306   2.166   3.190  10.225  0.4307  0.3545 -0.9344
  178SLPC   C2720307   2.347   3.327  10.213 -0.2086 -1.2209  0.8088
  178SLPC   H7R20308   2.424   3.247  10.221  0.2629 -0.7933  0.5570
  178SLPC   H7S20309   2.387   3.416  10.267 -1.7896  1.3846 -2.1806
  178SLPC   C2820310   2.319   3.356  10.063  0.0025  0.6291  0.5125
  178SLPC   H8R20311   2.258   3.269  10.031 -0.5213  0.8170  0.9819
  178SLPC   H8S20312   2.414   3.360  10.006  0.1504 -0.5067  0.6694
  178SLPC   C2920313   2.227   3.473  10.035 -0.4049 -0.1631  0.7624
  178SLPC   H9R20314   2.179   3.512  10.126 -1.3659 -1.9084  1.0124
  178SLPC  C21020315   2.194   3.531   9.918  0.2566 -0.6657 -0.1508
  178SLPC  H10R20316   2.116   3.608   9.914  1.0976  0.1295 -2.3419
  178SLPC  C21120317   2.246   3.497   9.787  0.4631  0.0143  0.0360
  178SLPC  H11R20318   2.188   3.414   9.741 -1.9374  2.2507 -1.1167
  178SLPC  H11S20319   2.350   3.460   9.793  1.6419  2.7899 -1.8705
  178SLPC  C21220320   2.240   3.622   9.697  0.3229 -0.5805 -0.0943
  178SLPC  H12R20321   2.211   3.714   9.751 -0.4988 -1.2368  0.5940
  178SLPC  C21320322   2.265   3.625   9.562  0.4333  0.0291 -0.0099
  178SLPC  H13R20323   2.254   3.722   9.511 -0.8064 -0.6598 -1.1115
  178SLPC  C21420324   2.302   3.508   9.476  0.2982 -0.2899 -0.5746
  178SLPC  H14R20325   2.253   3.517   9.377 -1.1788 -0.3773  0.1365
  178SLPC  H14S20326   2.268   3.410   9.517  0.1222  1.0584  2.6606
  178SLPC  C21520327   2.456   3.490   9.441  0.2266 -0.4078 -0.2970
  178SLPC  H15R20328   2.513   3.468   9.534 -0.1822  0.6194  0.2053
  178SLPC  H15S20329   2.515   3.572   9.394 -0.4742  0.2483 -0.0441
  178SLPC  C21620330   2.468   3.370   9.340  0.0652 -0.1382 -0.0330
  178SLPC  H16R20331   2.415   3.276   9.367  2.0579 -0.9550  1.1764
  178SLPC  H16S20332   2.574   3.341   9.361 -0.5061 -1.7245  0.8059
  178SLPC  C21720333   2.457   3.400   9.192  0.3139 -0.2610  1.2984
  178SLPC  H17R20334   2.501   3.499   9.168  1.2011 -1.1088 -0.7149
  178SLPC  H17S20335   2.354   3.412   9.152  0.9746  0.0891 -0.3422
  178SLPC  C21820336   2.517   3.297   9.100  0.0325  1.1966 -0.5153
  178SLPC  H18R20337   2.606   3.258   9.154  0.1575  0.4847 -1.2292
  178SLPC  H18S20338   2.563   3.348   9.012 -1.4210  2.1313 -0.7504
  178SLPC  H18T20339   2.444   3.222   9.064  0.3883  0.9145 -0.6539
  178SLPC   C3320340   1.727   2.917  10.269  0.0978 -0.0239 -0.4215
  178SLPC   H3X20341   1.768   2.814  10.260 -0.0198 -0.1751  0.7717
  178SLPC   H3Y20342   1.805   2.993  10.250 -0.3967  0.4527 -0.5695
  178SLPC   C3420343   1.621   2.918  10.155 -0.2537 -0.5906 -0.1961
  178SLPC   H4X20344   1.569   3.016  10.151 -1.5206 -1.2004  0.7945
  178SLPC   H4Y20345   1.567   2.827  10.187  2.2716 -1.4623  1.7540
  178SLPC   C3520346   1.697   2.904  10.021  0.0518  0.6244 -0.2161
  178SLPC   H5X20347   1.750   2.806  10.020  0.7441  0.9908  0.3051
  178SLPC   H5Y20348   1.785   2.971  10.007  0.3896 -0.0947 -1.7464
  178SLPC   C3620349   1.611   2.927   9.902 -0.3271 -0.5823 -0.2538
  178SLPC   H6X20350   1.549   3.019   9.908 -0.0160 -0.4513  0.9964
  178SLPC   H6Y20351   1.548   2.837   9.883  2.3839 -2.7054  0.4905
  178SLPC   C3720352   1.695   2.939   9.766  0.0162 -0.2432 -0.4769
  178SLPC   H7X20353   1.753   2.847   9.746  0.5611 -0.0578  0.2109
  178SLPC   H7Y20354   1.765   3.025   9.776  1.5619 -1.3187 -1.9007
  178SLPC   C3820355   1.601   2.969   9.655 -0.5062  0.1436 -0.3176
  178SLPC   H8X20356   1.542   3.056   9.690 -2.6813 -1.0511 -0.9577
  178SLPC   H8Y20357   1.533   2.884   9.635 -1.3753  0.6418  0.5244
  178SLPC   C3920358   1.677   2.995   9.522  0.1477 -0.1390 -0.3181
  178SLPC   H9X20359   1.739   2.909   9.489  0.7767 -0.1681  0.9026
  178SLPC   H9Y20360   1.755   3.074   9.535  0.9413 -0.9986  0.1919
  178SLPC  C31020361   1.583   3.025   9.405  0.5911  0.5054  0.5765
  178SLPC  H10X20362   1.531   3.118   9.436  2.1843  1.6160  0.0121
  178SLPC  H10Y20363   1.505   2.947   9.395  1.2144 -0.1437  0.7007
  178SLPC  C31120364   1.652   3.058   9.271 -0.1105 -0.9838  0.2479
  178SLPC  H11X20365   1.732   3.132   9.292 -0.1877 -0.7669 -0.2187
  178SLPC  H11Y20366   1.576   3.115   9.213  0.5840 -0.2888  0.0031
  178SLPC  C31220367   1.697   2.934   9.186 -0.0314 -0.5126 -0.0207
  178SLPC  H12X20368   1.617   2.858   9.177 -1.2324  0.5940  1.1295
  178SLPC  H12Y20369   1.790   2.890   9.230 -0.3816 -1.8981 -0.6252
  178SLPC  C31320370   1.724   2.988   9.040 -0.1320  0.3437 -0.0883
  178SLPC  H13X20371   1.802   3.066   9.037  2.2567 -2.0193 -1.7000
  178SLPC  H13Y20372   1.629   3.034   9.004 -1.9948 -2.3977  1.0646
  178SLPC  C31420373   1.757   2.885   8.931 -0.3148  0.0434  0.5584
  178SLPC  H14X20374   1.679   2.810   8.906  0.1653 -0.7838  1.5076
  178SLPC  H14Y20375   1.842   2.826   8.972 -0.5694  0.1660  1.2618
  178SLPC  C31520376   1.796   2.947   8.796 -0.0491 -0.5136  0.5667
  178SLPC  H15X20377   1.701   2.979   8.748  1.4438 -0.2766 -2.3133
  178SLPC  H15Y20378   1.838   3.045   8.826  0.2137 -0.6629  0.6893
  178SLPC  C31620379   1.878   2.865   8.699  0.0046  0.1480 -0.5844
  178SLPC  H16X20380   1.961   2.817   8.756  0.6213  1.9499  0.0807
  178SLPC  H16Y20381   1.945   2.936   8.646  0.9566  0.0751  0.4910
  178SLPC  C31720382   1.794   2.782   8.601 -0.0195 -0.2080  0.4569
  178SLPC  H17X20383   1.708   2.843   8.567 -0.7141 -0.7999  1.1308
  178SLPC  H17Y20384   1.746   2.696   8.653 -1.2060 -0.9544 -1.8029
  178SLPC  C31820385   1.867   2.738   8.477 -0.4454 -0.6158  0.5299
  178SLPC  H18X20386   1.950   2.667   8.496  1.1791  0.6816 -1.5451
  178SLPC  H18Y20387   1.903   2.829   8.425  2.5326 -1.7525  0.5357
  178SLPC  H18Z20388   1.787   2.684   8.422 -1.0367 -0.8555  1.5958
  179SLPC     N20389   4.615   0.422  10.245 -0.1976  0.6819  0.1160
  179SLPC   C1320390   4.660   0.560  10.260  0.5104  0.0446  0.2257
  179SLPC  H13A20391   4.759   0.584  10.225  0.1514  0.1002 -0.7709
  179SLPC  H13B20392   4.592   0.628  10.213  0.6547  0.1254  0.1367
  179SLPC  H13C20393   4.667   0.576  10.367 -0.4439 -0.0351  0.3001
  179SLPC   C1420394   4.717   0.333  10.310  0.8861  0.2583  0.2438
  179SLPC  H14A20395   4.813   0.342  10.260 -0.5292  0.0151 -2.6274
  179SLPC  H14B20396   4.719   0.343  10.417 -1.4294 -0.0042  0.3264
  179SLPC  H14C20397   4.695   0.229  10.292  1.4611 -0.0203  1.1380
  179SLPC   C1520398   4.608   0.389  10.096  1.4101  0.0610 -0.1150
  179SLPC  H15A20399   4.543   0.460  10.046  0.9908 -0.6969 -0.6456
  179SLPC  H15B20400   4.708   0.385  10.057  0.7141  2.4497 -2.2574
  179SLPC  H15C20401   4.563   0.294  10.075  2.2806 -1.3086  3.8463
  179SLPC   C1220402   4.475   0.389  10.303 -0.1626  0.4568 -0.3069
  179SLPC  H12A20403   4.443   0.290  10.274 -0.6296  1.2379 -2.6296
  179SLPC  H12B20404   4.403   0.459  10.263 -2.4006 -1.2556  0.5570
  179SLPC   C1120405   4.462   0.391  10.463 -0.4458 -0.0324  0.6149
  179SLPC  H11A20406   4.353   0.387  10.484 -1.1150 -1.6797 -2.8188
  179SLPC  H11B20407   4.518   0.479  10.500 -0.6424 -0.7768  2.7892
  179SLPC     P20408   4.476   0.123  10.487  0.1099 -0.0847  0.0975
  179SLPC   O1320409   4.570   0.042  10.409  0.3416  0.3179  0.4703
  179SLPC   O1420410   4.437   0.064  10.620  0.5401  0.0469 -0.5783
  179SLPC   O1220411   4.529   0.272  10.511  0.0107  0.4584  0.2628
  179SLPC   O1120412   4.343   0.157  10.399 -0.6502 -0.3709  0.0566
  179SLPC    C120413   4.236   0.066  10.400  0.1287 -0.4348  0.0538
  179SLPC    HA20414   4.264  -0.018  10.333 -1.0204 -0.8956  0.1378
  179SLPC    HB20415   4.215   0.043  10.507 -0.3914 -0.3613 -0.0290
  179SLPC    C220416   4.101   0.119  10.346 -0.2250  1.1058  0.0051
  179SLPC    HS20417   4.024   0.047  10.378  1.6746 -1.9542 -2.0077
  179SLPC   O2120418   4.108   0.127  10.200  0.3913  0.1648 -0.1783
  179SLPC   C2120419   3.997   0.114  10.139  0.2552 -0.1635 -0.0723
  179SLPC   O2220420   3.890   0.095  10.191 -0.2924  0.1954 -0.1060
  179SLPC   C2220421   4.028   0.133   9.993 -0.3970  0.2894 -0.2603
  179SLPC   H2R20422   3.994   0.234   9.964 -0.1456 -0.0673 -1.8491
  179SLPC   H2S20423   4.134   0.104   9.975 -0.3183  0.0866  0.5102
  179SLPC    C320424   4.068   0.260  10.406 -0.5965 -0.3096  0.1407
  179SLPC    HX20425   4.145   0.324  10.358 -1.8924  1.1064 -0.0773
  179SLPC    HY20426   4.095   0.249  10.513  0.6929 -1.9056 -0.3262
  179SLPC   O3120427   3.942   0.316  10.384  0.0412  1.1191 -0.3117
  179SLPC   C3120428   3.928   0.424  10.303 -0.2413 -0.6017  0.1539
  179SLPC   O3220429   4.022   0.488  10.260 -0.4362 -0.2557 -0.7125
  179SLPC   C3220430   3.781   0.427  10.266  0.3930 -0.6597  0.5010
  179SLPC   H2X20431   3.716   0.482  10.337 -0.3840 -1.3950  0.3678
  179SLPC   H2Y20432   3.736   0.327  10.282 -0.0860 -0.4298  0.6158
  179SLPC   C2320433   3.950   0.033   9.903  0.1364  0.3734 -0.1806
  179SLPC   H3R20434   3.846   0.055   9.936 -1.3694 -1.7101 -3.3152
  179SLPC   H3S20435   3.961  -0.074   9.931 -0.4615 -0.0878 -1.6605
  179SLPC   C2420436   3.964   0.052   9.752  0.1280 -0.3594 -0.3233
  179SLPC   H4R20437   4.054   0.000   9.715 -0.2438 -0.8990 -0.4749
  179SLPC   H4S20438   3.977   0.160   9.726  0.2432 -0.8214 -2.2620
  179SLPC   C2520439   3.846  -0.002   9.670 -0.2340  0.1717 -0.0489
  179SLPC   H5R20440   3.754   0.049   9.706 -0.1012  1.6413 -1.7162
  179SLPC   H5S20441   3.820  -0.109   9.683 -1.4267  0.5470  0.7268
  179SLPC   C2620442   3.868   0.016   9.522  0.1299 -0.3352  0.0464
  179SLPC   H6R20443   3.947  -0.056   9.491 -0.1117 -1.4014  1.8356
  179SLPC   H6S20444   3.903   0.121   9.509  1.0314 -0.4754  1.1924
  179SLPC   C2720445   3.742   0.001   9.447 -0.4428  0.2030  0.0152
  179SLPC   H7R20446   3.662   0.062   9.492  0.0946  0.3710  0.7470
  179SLPC   H7S20447   3.704  -0.102   9.465 -1.7272  0.9638  1.8312
  179SLPC   C2820448   3.747   0.039   9.292  0.4274  0.3340 -0.0997
  179SLPC   H8R20449   3.799   0.137   9.293  1.3197 -0.0885 -1.8196
  179SLPC   H8S20450   3.645   0.051   9.251  0.3880 -3.4320 -1.3556
  179SLPC   C2920451   3.830  -0.060   9.215 -0.7236 -0.4649  0.1001
  179SLPC   H9R20452   3.885  -0.132   9.277  1.7777  1.7046  0.4748
  179SLPC  C21020453   3.855  -0.058   9.083 -0.2305 -0.0576  0.0693
  179SLPC  H10R20454   3.908  -0.138   9.031  0.4162  0.5999 -0.2864
  179SLPC  C21120455   3.790   0.042   9.002  0.6307 -0.1297  0.7463
  179SLPC  H11R20456   3.718   0.112   9.050  0.4122 -0.4498  0.8892
  179SLPC  H11S20457   3.740  -0.001   8.913  1.1787  2.4778 -0.8750
  179SLPC  C21220458   3.901   0.140   8.960 -0.7153 -0.4602 -0.4305
  179SLPC  H12R20459   3.972   0.172   9.037  0.7729 -1.5641 -1.3075
  179SLPC  C21320460   3.928   0.184   8.832  0.5229 -0.1441 -0.4892
  179SLPC  H13R20461   4.010   0.254   8.811  0.6658 -0.2623 -0.3293
  179SLPC  C21420462   3.861   0.151   8.702  0.4749 -0.4401 -0.2117
  179SLPC  H14R20463   3.798   0.239   8.678 -0.7895 -0.7718  1.7381
  179SLPC  H14S20464   3.784   0.071   8.713 -0.4506  0.4289 -0.3533
  179SLPC  C21520465   3.949   0.120   8.580 -0.3749  0.9223  0.6824
  179SLPC  H15R20466   4.019   0.035   8.594 -2.4671 -0.9686 -0.1932
  179SLPC  H15S20467   4.019   0.205   8.561  1.6953 -0.2378  2.9233
  179SLPC  C21620468   3.863   0.089   8.455  0.5097 -0.1205  0.1488
  179SLPC  H16R20469   3.797   0.177   8.435  0.8352 -0.0227 -0.4863
  179SLPC  H16S20470   3.797   0.009   8.495  1.6832 -1.1796  0.0127
  179SLPC  C21720471   3.932   0.033   8.329 -0.0658  0.1052  0.1174
  179SLPC  H17R20472   3.998   0.114   8.291 -0.9331  0.8357  0.1574
  179SLPC  H17S20473   3.855   0.010   8.252  0.2941 -0.0750 -0.1922
  179SLPC  C21820474   4.019  -0.090   8.340  0.5283  0.5318  0.1290
  179SLPC  H18R20475   4.060  -0.122   8.241 -2.2816 -1.7418 -0.3479
  179SLPC  H18S20476   3.976  -0.180   8.387  3.2486 -0.4371  0.8495
  179SLPC  H18T20477   4.111  -0.056   8.393 -0.5690  1.7621  1.2732
  179SLPC   C3320478   3.756   0.480  10.120 -0.5715  0.3980 -1.2113
  179SLPC   H3X20479   3.834   0.442  10.050  1.1429  1.8322 -0.1155
  179SLPC   H3Y20480   3.765   0.590  10.134 -0.3897  0.0858  1.2540
  179SLPC   C3420481   3.618   0.428  10.067  0.3008 -0.1949  0.2019
  179SLPC   H4X20482   3.532   0.455  10.131  0.2962 -1.2561  0.6476
  179SLPC   H4Y20483   3.613   0.317  10.071 -0.5095 -0.1700  0.0117
  179SLPC   C3520484   3.590   0.475   9.925 -0.1637 -0.2080 -0.5403
  179SLPC   H5X20485   3.616   0.583   9.920 -0.4354 -0.1744 -1.4182
  179SLPC   H5Y20486   3.487   0.452   9.889  0.3401  0.0849 -2.2377
  179SLPC   C3620487   3.677   0.395   9.819 -0.0352  0.6599 -0.0450
  179SLPC   H6X20488   3.627   0.296   9.807 -0.5324  0.9428 -0.3314
  179SLPC   H6Y20489   3.779   0.378   9.858 -0.4567 -0.8966  0.4036
  179SLPC   C3720490   3.695   0.478   9.689  0.4862 -0.0832 -0.5336
  179SLPC   H7X20491   3.765   0.558   9.719  0.3502  0.1905 -0.9344
  179SLPC   H7Y20492   3.595   0.526   9.676 -0.0124 -0.7134  0.9646
  179SLPC   C3820493   3.746   0.393   9.577  0.0839  1.3747  0.1333
  179SLPC   H8X20494   3.751   0.289   9.617  2.0077  1.8195  1.0706
  179SLPC   H8Y20495   3.847   0.419   9.541 -0.4981  2.8683 -0.4720
  179SLPC   C3920496   3.654   0.390   9.455  0.1111 -0.1581  0.4568
  179SLPC   H9X20497   3.548   0.369   9.482  0.1235 -0.1571  0.5054
  179SLPC   H9Y20498   3.698   0.313   9.389  2.8679  0.9068  1.0014
  179SLPC  C31020499   3.653   0.524   9.385 -0.0326 -0.0381 -0.8522
  179SLPC  H10X20500   3.747   0.558   9.336 -1.3426  2.7896 -1.5046
  179SLPC  H10Y20501   3.618   0.605   9.452  4.2302  0.0999  1.3945
  179SLPC  C31120502   3.550   0.526   9.257 -0.1264  0.1940  0.5482
  179SLPC  H11X20503   3.544   0.630   9.218 -0.9057 -1.1947 -3.2388
  179SLPC  H11Y20504   3.454   0.504   9.308 -0.1785 -0.4994  0.1602
  179SLPC  C31220505   3.578   0.425   9.153 -0.5988  0.4548 -0.0752
  179SLPC  H12X20506   3.552   0.327   9.199 -1.4513 -0.2279 -1.9449
  179SLPC  H12Y20507   3.688   0.424   9.135 -0.5642  0.7321  0.1183
  179SLPC  C31320508   3.510   0.448   9.019  0.2501  0.4135  0.0894
  179SLPC  H13X20509   3.549   0.546   8.985  0.7682  0.4304  0.7166
  179SLPC  H13Y20510   3.402   0.447   9.043  0.1305  0.9676 -0.4202
  179SLPC  C31420511   3.543   0.338   8.917 -0.2622 -0.2928  0.5376
  179SLPC  H14X20512   3.525   0.239   8.966 -1.0557  0.0282  0.8904
  179SLPC  H14Y20513   3.651   0.335   8.891 -0.6245  0.9956 -1.1957
  179SLPC  C31520514   3.458   0.364   8.787 -0.6456 -1.1308 -0.3275
  179SLPC  H15X20515   3.350   0.356   8.814 -0.4268  1.4502  1.5183
  179SLPC  H15Y20516   3.485   0.293   8.705 -1.0950 -1.6649 -0.0145
  179SLPC  C31620517   3.482   0.505   8.731  0.0509 -0.3403 -0.1043
  179SLPC  H16X20518   3.591   0.512   8.710 -0.1204  1.5857 -0.4521
  179SLPC  H16Y20519   3.439   0.576   8.805 -1.7147 -1.0084 -0.4704
  179SLPC  C31720520   3.406   0.520   8.600  0.3116  0.5495  0.0286
  179SLPC  H17X20521   3.303   0.482   8.615 -0.2298  2.8394  2.4676
  179SLPC  H17Y20522   3.449   0.450   8.525  0.6157  0.5565  0.1919
  179SLPC  C31820523   3.407   0.655   8.543 -0.4741 -0.4289 -0.5684
  179SLPC  H18X20524   3.339   0.659   8.455  0.8215 -0.5011 -1.5853
  179SLPC  H18Y20525   3.507   0.690   8.510  0.2569 -3.3284 -1.5692
  179SLPC  H18Z20526   3.357   0.733   8.605  3.2765  0.1820  1.8740
  180SLPC     N20527   5.286   5.032  11.158 -0.1599  0.1659 -0.4779
  180SLPC   C1320528   5.196   4.939  11.244  0.7004  0.3256  0.7251
  180SLPC  H13A20529   5.216   4.838  11.213 -0.7263  0.5684 -1.0745
  180SLPC  H13B20530   5.219   4.949  11.349  1.5609  0.3150  0.5423
  180SLPC  H13C20531   5.093   4.968  11.230  1.0104  1.1961  0.1360
  180SLPC   C1420532   5.436   4.988  11.179  0.6392 -0.0166 -0.2843
  180SLPC  H14A20533   5.444   4.883  11.156 -0.5786 -0.8137  2.5984
  180SLPC  H14B20534   5.496   5.037  11.104  0.5208 -0.0131 -0.3778
  180SLPC  H14C20535   5.477   5.002  11.278 -0.6322  0.4021  0.1975
  180SLPC   C1520536   5.270   5.169  11.206 -0.8791  0.7466  0.2994
  180SLPC  H15A20537   5.168   5.202  11.194 -1.8701 -2.3578 -0.0380
  180SLPC  H15B20538   5.285   5.185  11.312  0.4901 -0.4054  0.2838
  180SLPC  H15C20539   5.324   5.236  11.140 -2.8700  2.2634  0.1615
  180SLPC   C1220540   5.249   5.014  11.017  0.8155 -0.0034 -0.3696
  180SLPC  H12A20541   5.292   5.097  10.962  0.6252 -0.2116 -0.8399
  180SLPC  H12B20542   5.143   5.037  11.012  0.5263 -0.8664  1.4320
  180SLPC   C1120543   5.256   4.885  10.945  0.2650  0.3190  0.1204
  180SLPC  H11A20544   5.190   4.880  10.856  0.8039  0.9327 -0.3214
  180SLPC  H11B20545   5.225   4.801  11.009  2.3281  0.2967  1.1375
  180SLPC     P20546   5.473   4.940  10.810  0.4994 -0.1809 -0.2685
  180SLPC   O1320547   5.470   5.081  10.857 -0.2347 -0.1101 -0.5936
  180SLPC   O1420548   5.610   4.877  10.805 -0.1965  0.0120 -0.1564
  180SLPC   O1220549   5.391   4.845  10.912 -0.4842  0.4387  0.1840
  180SLPC   O1120550   5.388   4.915  10.682  0.2772  0.1371  0.1066
  180SLPC    C120551   5.349   5.004  10.586  0.2769 -0.5932  0.8277
  180SLPC    HA20552   5.244   5.037  10.599  0.0175 -1.3699  0.7035
  180SLPC    HB20553   5.415   5.093  10.584  0.9377 -1.0398  2.1490
  180SLPC    C220554   5.366   4.945  10.441 -0.0575  0.6500 -0.1269
  180SLPC    HS20555   5.339   5.020  10.364  0.7644  0.2617 -0.8095
  180SLPC   O2120556   5.279   4.833  10.427  0.2262 -0.1791 -0.2248
  180SLPC   C2120557   5.152   4.853  10.420  0.3532 -0.4977 -0.0539
  180SLPC   O2220558   5.098   4.960  10.393 -0.2405 -0.1170  0.0477
  180SLPC   C2220559   5.076   4.729  10.445 -0.1233 -0.2050  0.5228
  180SLPC   H2R20560   5.129   4.689  10.534  3.9247  2.4744 -0.5382
  180SLPC   H2S20561   4.968   4.750  10.465 -0.2131  2.0122 -1.9448
  180SLPC    C320562   5.506   4.900  10.393 -1.4409  0.4402  0.0638
  180SLPC    HX20563   5.536   4.821  10.465  0.0600  2.7152  2.0119
  180SLPC    HY20564   5.575   4.987  10.399 -1.5426  0.7198 -2.3589
  180SLPC   O3120565   5.495   4.857  10.256  0.1240 -0.6622 -0.3083
  180SLPC   C3120566   5.479   4.728  10.231 -0.2343  0.0147  0.4138
  180SLPC   O3220567   5.479   4.638  10.311 -0.1519  0.1591 -0.1256
  180SLPC   C3220568   5.465   4.712  10.079  0.1422 -0.1714 -0.1090
  180SLPC   H2X20569   5.546   4.758  10.017  1.1907 -0.6953  0.8492
  180SLPC   H2Y20570   5.379   4.774  10.045  0.6536 -0.8471 -2.7280
  180SLPC   C2320571   5.086   4.635  10.323 -0.6860  0.0762  0.1679
  180SLPC   H3R20572   5.054   4.534  10.357  2.2359 -0.9481  0.0637
  180SLPC   H3S20573   5.191   4.625  10.289 -0.9534 -0.2581 -0.5623
  180SLPC   C2420574   4.985   4.676  10.214  0.4028  0.5876  0.7577
  180SLPC   H4R20575   4.991   4.786  10.202  0.5292  0.3184 -2.0955
  180SLPC   H4S20576   4.880   4.651  10.240 -0.3837  1.4747 -1.4778
  180SLPC   C2520577   5.027   4.612  10.078  0.3608  0.0093 -1.2097
  180SLPC   H5R20578   5.023   4.501  10.090  3.2691  0.1844  1.9988
  180SLPC   H5S20579   5.125   4.650  10.043  0.2773 -1.1809 -2.8302
  180SLPC   C2620580   4.930   4.644   9.967 -0.2633  0.2761  0.3651
  180SLPC   H6R20581   4.919   4.755   9.971 -1.2754  0.3062 -2.4145
  180SLPC   H6S20582   4.829   4.604   9.992 -0.0042 -1.6389 -1.5797
  180SLPC   C2720583   4.968   4.600   9.827 -0.4701 -0.6346  0.5187
  180SLPC   H7R20584   4.994   4.493   9.813  0.0203 -0.7914  2.5399
  180SLPC   H7S20585   5.072   4.635   9.808 -0.2145 -0.8927  1.4262
  180SLPC   C2820586   4.889   4.657   9.710 -0.0797  0.2219  0.3218
  180SLPC   H8R20587   4.896   4.767   9.721 -0.5827  0.5411 -2.2534
  180SLPC   H8S20588   4.781   4.628   9.712  0.2387 -0.9473  1.9048
  180SLPC   C2920589   4.942   4.624   9.576  0.0544 -0.0578  0.1188
  180SLPC   H9R20590   5.029   4.686   9.548 -1.7994  3.3525  1.7063
  180SLPC  C21020591   4.898   4.512   9.507  0.3082  0.4305 -0.3167
  180SLPC  H10R20592   4.939   4.492   9.407 -0.6052 -1.4452 -0.3471
  180SLPC  C21120593   4.786   4.410   9.544 -0.4698 -0.2217 -0.1488
  180SLPC  H11R20594   4.789   4.392   9.654  2.0867 -0.5274 -0.2361
  180SLPC  H11S20595   4.806   4.307   9.508 -1.5153 -0.2179 -0.7598
  180SLPC  C21220596   4.649   4.458   9.501 -0.4424 -1.3145  0.2689
  180SLPC  H12R20597   4.639   4.565   9.477 -1.6342 -2.2973 -3.8562
  180SLPC  C21320598   4.539   4.388   9.479 -0.5053 -0.2169 -0.3717
  180SLPC  H13R20599   4.441   4.433   9.459  0.3261  0.9353 -1.9617
  180SLPC  C21420600   4.529   4.237   9.477  0.0231  0.1804  0.4985
  180SLPC  H14R20601   4.628   4.188   9.473  0.0000  0.2048 -0.5903
  180SLPC  H14S20602   4.472   4.205   9.387 -0.2250  0.6854  0.4736
  180SLPC  C21520603   4.437   4.188   9.598  0.2869 -0.2751 -0.6015
  180SLPC  H15R20604   4.412   4.080   9.594  0.8289 -0.4166 -0.2454
  180SLPC  H15S20605   4.345   4.249   9.606  0.2510 -0.1450 -1.9479
  180SLPC  C21620606   4.519   4.199   9.736 -0.2045  0.0315  0.1966
  180SLPC  H16R20607   4.561   4.301   9.747  0.7943 -0.3147 -0.3701
  180SLPC  H16S20608   4.606   4.132   9.753 -1.7768 -1.7288  1.6111
  180SLPC  C21720609   4.440   4.201   9.868  0.5465 -0.1287  0.1718
  180SLPC  H17R20610   4.504   4.143   9.937 -1.2523 -1.5342  0.7116
  180SLPC  H17S20611   4.345   4.143   9.858  0.3007  0.2600  0.2446
  180SLPC  C21820612   4.414   4.341   9.922 -0.1802 -0.1359 -0.3347
  180SLPC  H18R20613   4.347   4.404   9.860 -0.6484 -0.9691 -0.6788
  180SLPC  H18S20614   4.507   4.401   9.929  1.3497 -2.4627  0.0586
  180SLPC  H18T20615   4.367   4.347  10.022 -0.8368 -0.3911 -0.6297
  180SLPC   C3320616   5.432   4.571  10.038  0.3239 -0.1925 -0.4842
  180SLPC   H3X20617   5.351   4.533  10.103  0.7264 -1.9399 -0.9792
  180SLPC   H3Y20618   5.515   4.504  10.070  0.6090  0.7521  0.8196
  180SLPC   C3420619   5.413   4.545   9.888 -0.0413  0.7626  0.1078
  180SLPC   H4X20620   5.508   4.552   9.831  0.5846  0.9107  1.1482
  180SLPC   H4Y20621   5.343   4.617   9.841 -2.1453 -2.1306 -1.4107
  180SLPC   C3520622   5.353   4.413   9.851  0.0680 -0.5575  0.1250
  180SLPC   H5X20623   5.243   4.418   9.866 -0.2781  0.1114 -2.4390
  180SLPC   H5Y20624   5.392   4.328   9.910  1.1311  1.3332  2.2131
  180SLPC   C3620625   5.376   4.387   9.701 -0.3211 -0.1271 -0.0479
  180SLPC   H6X20626   5.484   4.376   9.677 -0.2702 -2.9017  1.1290
  180SLPC   H6Y20627   5.332   4.469   9.641  1.8189  1.6881  0.7723
  180SLPC   C3720628   5.296   4.263   9.656  0.1278 -0.3627  0.5009
  180SLPC   H7X20629   5.188   4.276   9.676  0.4485  1.4966  1.0723
  180SLPC   H7Y20630   5.329   4.169   9.707 -0.9897 -1.2645 -0.4335
  180SLPC   C3820631   5.315   4.237   9.504  0.1455 -0.9923 -0.3314
  180SLPC   H8X20632   5.267   4.140   9.478 -1.2901 -0.5673  0.6597
  180SLPC   H8Y20633   5.424   4.245   9.485  0.1891 -0.3223  0.1781
  180SLPC   C3920634   5.234   4.337   9.424 -0.2749  0.4637  0.6701
  180SLPC   H9X20635   5.274   4.440   9.435  1.3485  0.2071 -2.4212
  180SLPC   H9Y20636   5.129   4.332   9.461 -0.8726 -0.6859 -1.1519
  180SLPC  C31020637   5.222   4.309   9.275 -0.3848  0.0120  0.3396
  180SLPC  H10X20638   5.153   4.381   9.224 -0.0488 -0.1575 -0.3538
  180SLPC  H10Y20639   5.187   4.204   9.271  2.7442 -1.0492  0.1615
  180SLPC  C31120640   5.347   4.316   9.193 -0.0209  0.1273  0.3699
  180SLPC  H11X20641   5.417   4.238   9.230 -0.3150 -0.1936  0.2516
  180SLPC  H11Y20642   5.396   4.416   9.201 -1.4302  0.8919 -0.5491
  180SLPC  C31220643   5.334   4.303   9.039 -0.2724 -0.1195  0.2419
  180SLPC  H12X20644   5.253   4.361   8.990 -0.9156 -0.0285  1.3973
  180SLPC  H12Y20645   5.325   4.195   9.011 -2.3053 -0.5052  2.1697
  180SLPC  C31320646   5.454   4.367   8.975 -1.1001 -0.2194 -0.2512
  180SLPC  H13X20647   5.551   4.330   9.013 -0.9949 -1.0604 -1.2895
  180SLPC  H13Y20648   5.463   4.476   8.994 -1.9068 -0.1702 -0.1288
  180SLPC  C31420649   5.457   4.346   8.822  0.1119  0.0392  1.3403
  180SLPC  H14X20650   5.546   4.404   8.792 -0.7079  1.6030  1.8835
  180SLPC  H14Y20651   5.368   4.395   8.775  0.2767  0.0164  1.0009
  180SLPC  C31520652   5.458   4.202   8.771 -0.3568 -0.0864 -0.6668
  180SLPC  H15X20653   5.357   4.163   8.796 -0.7160  1.7523  0.9169
  180SLPC  H15Y20654   5.529   4.144   8.835  1.2876  1.8763 -0.6609
  180SLPC  C31620655   5.488   4.186   8.617  0.8504  0.1046 -0.4124
  180SLPC  H16X20656   5.414   4.242   8.556  1.6184  0.6171 -0.8957
  180SLPC  H16Y20657   5.470   4.078   8.596  0.0607  0.1400  0.0768
  180SLPC  C31720658   5.628   4.226   8.583  0.2204 -0.2114 -0.0051
  180SLPC  H17X20659   5.658   4.152   8.506  0.0563 -0.5528  0.2586
  180SLPC  H17Y20660   5.694   4.212   8.671  0.9357  2.1488 -0.1182
  180SLPC  C31820661   5.646   4.365   8.522 -0.5966  0.1756 -0.2118
  180SLPC  H18X20662   5.627   4.448   8.593 -2.4561  0.2701 -0.7939
  180SLPC  H18Y20663   5.579   4.384   8.435 -2.0807 -1.0646  0.6351
  180SLPC  H18Z20664   5.750   4.379   8.484 -0.8808  2.3938 -0.2096
  181SLPC     N20665   1.397   1.072  11.116  0.0752 -0.2523  0.1379
  181SLPC   C1320666   1.279   1.094  11.208  0.6862 -0.7380 -0.1863
  181SLPC  H13A20667   1.186   1.053  11.170  0.4713  0.8147 -1.4173
  181SLPC  H13B20668   1.308   1.053  11.304 -1.0885  1.1123  1.1971
  181SLPC  H13C20669   1.266   1.201  11.215 -1.3018 -0.9133 -0.7001
  181SLPC   C1420670   1.427   0.925  11.094 -0.6804  0.4105 -0.3605
  181SLPC  H14A20671   1.347   0.868  11.048 -0.5509 -1.0884  1.2344
  181SLPC  H14B20672   1.518   0.914  11.037  0.1631 -0.3609  1.1058
  181SLPC  H14C20673   1.444   0.874  11.187  1.4639 -1.2752 -1.6252
  181SLPC   C1520674   1.511   1.138  11.184  0.1464 -0.3455  0.1289
  181SLPC  H15A20675   1.532   1.115  11.287  1.2950  2.6353  0.6138
  181SLPC  H15B20676   1.602   1.121  11.127  0.4834  0.1252  0.5257
  181SLPC  H15C20677   1.500   1.244  11.171 -2.6419 -0.5625  0.5281
  181SLPC   C1220678   1.361   1.132  10.982 -0.0936 -0.4733 -0.5149
  181SLPC  H12A20679   1.255   1.121  10.965 -0.8777  2.3532  2.1579
  181SLPC  H12B20680   1.415   1.082  10.902  0.8027  1.1449 -0.9378
  181SLPC   C1120681   1.382   1.285  10.960  0.0875 -0.1437 -0.0861
  181SLPC  H11A20682   1.369   1.303  10.851  2.2351  0.1925 -0.3139
  181SLPC  H11B20683   1.489   1.305  10.983 -0.0855 -1.6566  2.2260
  181SLPC     P20684   1.340   1.496  11.105  0.2894 -0.4172  0.3818
  181SLPC   O1320685   1.234   1.539  11.199  0.8534 -0.1480  0.0177
  181SLPC   O1420686   1.470   1.475  11.171 -0.2156  0.5232  0.2807
  181SLPC   O1220687   1.287   1.362  11.036 -0.4998  0.4230  0.5221
  181SLPC   O1120688   1.357   1.594  10.984 -0.1497  0.1752 -0.4832
  181SLPC    C120689   1.249   1.604  10.894 -0.1438  0.1739  0.5358
  181SLPC    HA20690   1.192   1.509  10.885  1.2223 -0.4845 -1.5687
  181SLPC    HB20691   1.173   1.675  10.933  0.4002  2.2059 -1.9578
  181SLPC    C220692   1.289   1.647  10.750  0.5909 -0.2639  0.2570
  181SLPC    HS20693   1.299   1.757  10.764 -0.7236 -0.0573 -0.3838
  181SLPC   O2120694   1.190   1.614  10.654  0.0855  0.2338 -0.5108
  181SLPC   C2120695   1.086   1.694  10.648 -0.4815  0.1017  0.6727
  181SLPC   O2220696   1.064   1.782  10.726  0.6066  0.6350 -0.2698
  181SLPC   C2220697   1.009   1.674  10.514 -0.1569 -0.3911  0.4267
  181SLPC   H2R20698   0.993   1.565  10.499  0.6408 -0.3126 -1.1652
  181SLPC   H2S20699   0.911   1.719  10.538 -0.9155 -0.8126 -1.7460
  181SLPC    C320700   1.428   1.596  10.702  0.0707  0.1158  0.5061
  181SLPC    HX20701   1.411   1.486  10.699  2.2317 -0.2089 -3.5300
  181SLPC    HY20702   1.514   1.617  10.770 -0.7448  0.0682  1.5650
  181SLPC   O3120703   1.450   1.648  10.568  0.0169 -0.0537 -0.5781
  181SLPC   C3120704   1.505   1.770  10.567 -0.4381 -0.4431  0.0500
  181SLPC   O3220705   1.521   1.844  10.664  0.1987 -0.2154  0.7886
  181SLPC   C3220706   1.553   1.823  10.437  0.2322  0.1347  0.2175
  181SLPC   H2X20707   1.543   1.744  10.359 -1.6143  1.8621 -1.3845
  181SLPC   H2Y20708   1.658   1.857  10.449  0.3249  0.1832 -0.7018
  181SLPC   C2320709   1.082   1.743  10.398  0.0448  0.0018 -0.7906
  181SLPC   H3R20710   1.179   1.697  10.368  0.4119  0.4851 -0.3585
  181SLPC   H3S20711   1.102   1.849  10.425  2.4190 -0.7902  0.7047
  181SLPC   C2420712   0.985   1.744  10.276  0.5289 -0.2308 -0.4514
  181SLPC   H4R20713   0.893   1.790  10.318  0.3058 -1.1190  0.0539
  181SLPC   H4S20714   0.942   1.646  10.246 -2.1608  1.2229 -1.5813
  181SLPC   C2520715   1.043   1.828  10.168 -0.6214 -0.4132  0.7889
  181SLPC   H5R20716   1.151   1.805  10.150 -0.7992  0.0918 -1.0217
  181SLPC   H5S20717   1.043   1.936  10.191  2.6008 -0.2321  0.2100
  181SLPC   C2620718   0.964   1.819  10.039  0.5719  0.7008  0.6675
  181SLPC   H6R20719   0.866   1.858  10.075 -0.2246 -1.2218  0.6209
  181SLPC   H6S20720   0.955   1.713  10.008  1.2246  0.5415  1.0181
  181SLPC   C2720721   1.025   1.885   9.917 -0.1776 -0.5327  0.3001
  181SLPC   H7R20722   1.117   1.845   9.869  0.9801  1.8754  0.4786
  181SLPC   H7S20723   1.059   1.984   9.953 -0.2052 -0.7627  0.9628
  181SLPC   C2820724   0.916   1.903   9.810 -0.1637 -0.2187 -0.0252
  181SLPC   H8R20725   0.947   1.976   9.733 -3.4357  2.4122  1.0441
  181SLPC   H8S20726   0.835   1.943   9.875  0.1413  3.3871 -1.7345
  181SLPC   C2920727   0.882   1.772   9.749  0.0901 -0.3245  0.3885
  181SLPC   H9R20728   0.815   1.701   9.799  0.8083  0.8517  3.1040
  181SLPC  C21020729   0.922   1.729   9.628  0.2052  0.3840 -0.7440
  181SLPC  H10R20730   0.869   1.638   9.595  2.4904 -0.3487 -2.4967
  181SLPC  C21120731   1.009   1.805   9.537 -0.2146  0.4752  0.1637
  181SLPC  H11R20732   1.089   1.742   9.492  0.2167  1.2839 -0.2270
  181SLPC  H11S20733   1.064   1.883   9.594  0.4445  0.0359  0.1417
  181SLPC  C21220734   0.917   1.866   9.442  1.3524 -0.1402  0.4357
  181SLPC  H12R20735   0.859   1.949   9.485 -1.2851 -1.4928 -0.4375
  181SLPC  C21320736   0.877   1.819   9.324  0.4045  0.0543  0.0791
  181SLPC  H13R20737   0.796   1.875   9.276  0.3325 -0.2325 -0.1327
  181SLPC  C21420738   0.926   1.690   9.261  0.1956  0.0965 -0.4055
  181SLPC  H14R20739   0.844   1.616   9.275  0.7660  0.0225  2.8068
  181SLPC  H14S20740   1.013   1.648   9.315  0.3233 -0.5430 -1.0934
  181SLPC  C21520741   0.951   1.707   9.106  0.1722  0.3535 -0.2692
  181SLPC  H15R20742   1.006   1.617   9.074 -0.9671 -0.3625 -0.2282
  181SLPC  H15S20743   1.020   1.791   9.079  0.1472  0.1774 -0.8801
  181SLPC  C21620744   0.823   1.716   9.022  0.4617  0.2659  0.1041
  181SLPC  H16R20745   0.742   1.676   9.087 -0.9015  0.6260 -1.3202
  181SLPC  H16S20746   0.832   1.668   8.922  1.7624  1.1871 -0.2260
  181SLPC  C21720747   0.778   1.859   8.975 -0.2493  0.2229  0.3154
  181SLPC  H17R20748   0.847   1.908   8.904 -2.0663 -0.3399 -1.9353
  181SLPC  H17S20749   0.781   1.915   9.071  2.2647 -0.2701  0.5394
  181SLPC  C21820750   0.633   1.868   8.926 -0.7167 -0.4905  0.3463
  181SLPC  H18R20751   0.564   1.808   8.989 -1.2112  0.2499  0.5183
  181SLPC  H18S20752   0.620   1.835   8.820  2.3923 -0.7862  0.0156
  181SLPC  H18T20753   0.604   1.975   8.923 -1.9933 -0.8503 -2.8096
  181SLPC   C3320754   1.458   1.937  10.395 -0.4421  0.1661  0.0452
  181SLPC   H3X20755   1.474   2.023  10.464 -2.2375 -0.0833  0.8096
  181SLPC   H3Y20756   1.348   1.920  10.400 -0.8199  2.3145 -0.7552
  181SLPC   C3420757   1.493   1.988  10.254 -0.1459 -0.1211  1.0868
  181SLPC   H4X20758   1.603   1.976  10.241 -0.5873 -2.6397 -0.5605
  181SLPC   H4Y20759   1.470   2.097  10.251  1.7986  0.2760 -0.1584
  181SLPC   C3520760   1.429   1.925  10.130 -0.1732  0.2631 -0.4375
  181SLPC   H5X20761   1.319   1.937  10.140 -0.4028 -1.5374 -0.6968
  181SLPC   H5Y20762   1.461   1.819  10.124 -0.4435  0.1307  0.4089
  181SLPC   C3620763   1.487   1.989  10.004  0.0057  0.1759  0.5631
  181SLPC   H6X20764   1.588   1.946   9.986  0.1337  0.3086  0.9421
  181SLPC   H6Y20765   1.500   2.099  10.013 -0.7751  0.4490 -1.5279
  181SLPC   C3720766   1.410   1.957   9.874 -0.1162  0.0112 -0.4523
  181SLPC   H7X20767   1.319   2.018   9.860  0.1378 -0.0643 -2.5089
  181SLPC   H7Y20768   1.370   1.853   9.880  1.5512 -0.6136  0.4063
  181SLPC   C3820769   1.506   1.975   9.750  0.6194 -0.0831 -0.3688
  181SLPC   H8X20770   1.603   1.921   9.763  1.4490  0.9602 -2.0932
  181SLPC   H8Y20771   1.531   2.081   9.772  1.3655 -0.4266  0.5158
  181SLPC   C3920772   1.454   1.932   9.614  0.3658  0.1638  0.2842
  181SLPC   H9X20773   1.417   1.828   9.625  0.3410  0.2977  1.5243
  181SLPC   H9Y20774   1.544   1.930   9.549 -1.5727 -2.2387 -2.4143
  181SLPC  C31020775   1.358   2.036   9.551 -0.0855  0.0260 -0.1394
  181SLPC  H10X20776   1.410   2.134   9.541 -0.8138  0.2534 -1.8815
  181SLPC  H10Y20777   1.271   2.053   9.618  0.1350  2.1778 -0.3504
  181SLPC  C31120778   1.322   2.001   9.408  0.2836  0.3008  0.0783
  181SLPC  H11X20779   1.265   1.906   9.400  2.3192 -1.2628  3.0468
  181SLPC  H11Y20780   1.415   1.982   9.350  0.6836 -1.1289  1.1561
  181SLPC  C31220781   1.234   2.107   9.343 -0.4197  0.9670 -0.1476
  181SLPC  H12X20782   1.285   2.206   9.349 -0.8147  1.1891 -0.4404
  181SLPC  H12Y20783   1.147   2.117   9.411  0.1754 -1.0000  0.9310
  181SLPC  C31320784   1.183   2.084   9.200 -0.0273  0.4728 -0.5585
  181SLPC  H13X20785   1.147   1.979   9.197 -1.4963  0.9501 -0.0573
  181SLPC  H13Y20786   1.269   2.088   9.129  1.0981 -2.6551  0.5502
  181SLPC  C31420787   1.064   2.170   9.159  0.0971 -0.3038 -0.0931
  181SLPC  H14X20788   1.096   2.275   9.178 -0.6597  0.0114 -0.5200
  181SLPC  H14Y20789   0.980   2.145   9.227  0.7147 -1.4430  0.2693
  181SLPC  C31520790   1.037   2.149   9.010  0.2692  0.5048  0.6911
  181SLPC  H15X20791   1.013   2.042   8.994  0.6564  0.5079  0.0324
  181SLPC  H15Y20792   1.128   2.163   8.948  0.5220 -0.2511  0.8878
  181SLPC  C31620793   0.928   2.245   8.947 -0.7780  0.0179 -0.4909
  181SLPC  H16X20794   0.878   2.290   9.036 -0.9688  3.2183 -2.1256
  181SLPC  H16Y20795   0.858   2.188   8.882  0.2618 -0.2229 -1.4085
  181SLPC  C31720796   0.981   2.351   8.855 -0.3074 -0.1301 -0.2433
  181SLPC  H17X20797   0.904   2.416   8.809 -1.1470 -0.6852  0.3473
  181SLPC  H17Y20798   1.024   2.286   8.776  1.0237  4.6824 -3.6705
  181SLPC  C31820799   1.107   2.431   8.893  0.9462  0.3027 -0.6060
  181SLPC  H18X20800   1.077   2.515   8.960  0.7147 -1.3387  1.3980
  181SLPC  H18Y20801   1.153   2.473   8.801 -0.4349 -0.9984 -1.9217
  181SLPC  H18Z20802   1.181   2.364   8.943 -0.7355 -1.5131 -0.4717
  182SLPC     N20803   0.288   3.601  10.867 -0.2347  1.0257 -0.5362
  182SLPC   C1320804   0.304   3.453  10.865 -0.4159  0.9643 -0.6428
  182SLPC  H13A20805   0.375   3.416  10.792 -1.8385 -0.4595 -1.3206
  182SLPC  H13B20806   0.355   3.423  10.955 -1.3500  0.4134 -0.3017
  182SLPC  H13C20807   0.205   3.412  10.860 -0.2347  0.5407 -0.8118
  182SLPC   C1420808   0.427   3.658  10.873  0.5114  0.1940 -0.4184
  182SLPC  H14A20809   0.434   3.761  10.843  0.5142  0.1656 -0.5209
  182SLPC  H14B20810   0.485   3.645  10.964  1.9663  1.3172 -1.1607
  182SLPC  H14C20811   0.486   3.602  10.801 -0.7452 -0.5112 -0.9134
  182SLPC   C1520812   0.209   3.636  10.995 -0.3940  0.3505  0.0522
  182SLPC  H15A20813   0.113   3.585  10.995  0.9130 -2.2206 -1.3404
  182SLPC  H15B20814   0.275   3.617  11.078 -2.3802  1.5651  1.9639
  182SLPC  H15C20815   0.189   3.742  10.992  2.1548  0.8418 -0.6960
  182SLPC   C1220816   0.223   3.653  10.738  0.5020 -0.8167 -0.0425
  182SLPC  H12A20817   0.280   3.616  10.654 -0.7792 -0.2100 -1.1811
  182SLPC  H12B20818   0.232   3.760  10.746 -2.5628 -0.5996  1.0478
  182SLPC   C1120819   0.078   3.621  10.729  0.6884 -0.7549  0.4431
  182SLPC  H11A20820   0.047   3.670  10.634  0.2474  0.7029  1.3158
  182SLPC  H11B20821   0.026   3.670  10.815  1.7131  2.5973 -0.7971
  182SLPC     P20822  -0.062   3.395  10.762 -0.1142 -0.1854 -0.4272
  182SLPC   O1320823  -0.003   3.277  10.821  0.5614  0.2308 -0.4064
  182SLPC   O1420824  -0.164   3.481  10.835 -0.5117 -0.0434 -0.0134
  182SLPC   O1220825   0.063   3.478  10.718 -0.0542 -0.7937 -0.0598
  182SLPC   O1120826  -0.118   3.340  10.626 -0.4180  0.5465 -0.2288
  182SLPC    C120827  -0.037   3.258  10.542  0.4671 -0.2576  0.2461
  182SLPC    HA20828   0.054   3.310  10.504  1.6360 -2.3507  0.1088
  182SLPC    HB20829  -0.015   3.168  10.603 -0.8326 -0.1628  0.8690
  182SLPC    C220830  -0.101   3.215  10.406  0.3707 -0.0958 -0.5167
  182SLPC    HS20831  -0.080   3.296  10.333  1.7118 -0.1650 -0.2350
  182SLPC   O2120832  -0.241   3.180  10.422  0.3373  0.2215 -0.0127
  182SLPC   C2120833  -0.313   3.200  10.314 -0.1349 -0.2278  0.3682
  182SLPC   O2220834  -0.273   3.270  10.221 -0.3835  0.0044  0.2157
  182SLPC   C2220835  -0.453   3.135  10.325 -0.2472 -0.6539  0.0319
  182SLPC   H2R20836  -0.435   3.025  10.326  0.1720 -0.5778  2.0177
  182SLPC   H2S20837  -0.495   3.174  10.420 -2.8421 -0.4492 -1.1644
  182SLPC    C320838  -0.015   3.098  10.344  0.8733  0.3378 -0.3869
  182SLPC    HX20839  -0.043   3.005  10.399 -0.9424  1.5490  0.7829
  182SLPC    HY20840   0.090   3.129  10.362  0.9438 -0.2792  0.3177
  182SLPC   O3120841  -0.016   3.103  10.198 -0.0634  0.4191 -0.2183
  182SLPC   C3120842  -0.109   3.025  10.149 -0.3736 -0.5793  0.4098
  182SLPC   O3220843  -0.187   2.965  10.219 -0.1250 -0.2941  0.0145
  182SLPC   C3220844  -0.114   3.025   9.993  0.6496  0.1433 -0.1722
  182SLPC   H2X20845  -0.034   2.959   9.952  0.1549 -1.6486  1.6307
  182SLPC   H2Y20846  -0.101   3.131   9.965 -0.3797 -0.0483 -1.4395
  182SLPC   C2320847  -0.530   3.188  10.201  0.7914  0.1533  0.0449
  182SLPC   H3R20848  -0.480   3.160  10.105  0.8156  0.3257  0.0078
  182SLPC   H3S20849  -0.531   3.299  10.199 -0.4752  0.1603  0.7495
  182SLPC   C2420850  -0.673   3.137  10.202 -0.1470 -0.7029 -0.0131
  182SLPC   H4R20851  -0.721   3.154  10.301 -1.4196  2.3462 -1.0887
  182SLPC   H4S20852  -0.658   3.028  10.187  0.1287 -0.6655 -0.0202
  182SLPC   C2520853  -0.766   3.181  10.089  0.0471  0.2503  0.0149
  182SLPC   H5R20854  -0.775   3.287  10.120 -0.9915  0.5817 -1.3351
  182SLPC   H5S20855  -0.861   3.129  10.115  0.1292  0.2158  0.2455
  182SLPC   C2620856  -0.714   3.175   9.951  0.1140 -0.2188  0.5109
  182SLPC   H6R20857  -0.667   3.077   9.924  1.5957  0.3692  0.8796
  182SLPC   H6S20858  -0.627   3.243   9.940  0.0490 -0.3159 -0.6636
  182SLPC   C2720859  -0.822   3.206   9.848 -0.5935 -0.5224  0.4359
  182SLPC   H7R20860  -0.834   3.316   9.842  2.2828 -0.2328 -0.9252
  182SLPC   H7S20861  -0.920   3.164   9.879 -0.8473 -0.2136  0.0496
  182SLPC   C2820862  -0.800   3.152   9.700 -0.1432  0.8868 -0.1500
  182SLPC   H8R20863  -0.700   3.181   9.660 -0.2404  0.4183 -0.7267
  182SLPC   H8S20864  -0.870   3.209   9.636 -0.0839  0.5107 -0.5467
  182SLPC   C2920865  -0.831   3.006   9.688 -0.2157  0.0493  0.3079
  182SLPC   H9R20866  -0.863   2.949   9.776 -2.7550  1.2343  0.2269
  182SLPC  C21020867  -0.842   2.946   9.565 -0.4039 -0.8819  0.1511
  182SLPC  H10R20868  -0.856   2.837   9.553 -1.1390 -0.8121  0.3909
  182SLPC  C21120869  -0.825   3.005   9.426 -0.2714 -0.2768  0.7249
  182SLPC  H11R20870  -0.777   2.932   9.359 -1.7794 -1.9400  1.3928
  182SLPC  H11S20871  -0.753   3.089   9.429 -0.2983 -0.2423  0.3408
  182SLPC  C21220872  -0.957   3.052   9.369 -0.0899  0.1689  0.4413
  182SLPC  H12R20873  -0.991   3.152   9.403 -3.9755 -0.6389 -0.8550
  182SLPC  C21320874  -1.033   2.990   9.277 -0.3482  0.2859  0.3249
  182SLPC  H13R20875  -1.127   3.033   9.238  1.0064  1.4141 -1.8087
  182SLPC  C21420876  -1.001   2.856   9.218  0.3722  0.2364  0.3573
  182SLPC  H14R20877  -1.083   2.788   9.248 -0.3361  0.8460 -0.1723
  182SLPC  H14S20878  -0.906   2.815   9.258 -0.7442 -0.4218  2.4279
  182SLPC  C21520879  -0.998   2.864   9.064  0.1299 -0.1075  0.3093
  182SLPC  H15R20880  -1.097   2.890   9.020  0.8980 -2.0465 -2.7137
  182SLPC  H15S20881  -0.992   2.757   9.034 -2.9434  0.2955 -2.0396
  182SLPC  C21620882  -0.887   2.933   8.998 -0.6697 -0.8896 -0.8220
  182SLPC  H16R20883  -0.797   2.899   9.053 -0.7798 -1.6594 -1.1039
  182SLPC  H16S20884  -0.894   3.041   9.021  2.7468 -0.7613 -0.1992
  182SLPC  C21720885  -0.873   2.910   8.848 -0.6151 -0.0946  0.4741
  182SLPC  H17R20886  -0.809   2.990   8.806 -0.6138 -1.2249 -1.7300
  182SLPC  H17S20887  -0.971   2.920   8.797  0.4541 -2.4023 -2.1522
  182SLPC  C21820888  -0.798   2.783   8.810  0.4076 -0.0347 -0.5324
  182SLPC  H18R20889  -0.700   2.798   8.860 -0.2777  0.1772  0.7743
  182SLPC  H18S20890  -0.790   2.759   8.702  2.6049  0.4996 -0.5171
  182SLPC  H18T20891  -0.846   2.694   8.855  0.7764  0.7072  1.3753
  182SLPC   C3320892  -0.261   2.977   9.944  0.2550  0.8208 -0.3958
  182SLPC   H3X20893  -0.341   3.038   9.991 -0.3710  0.1348 -0.5667
  182SLPC   H3Y20894  -0.276   2.871   9.972 -3.6425  0.9287 -1.7678
  182SLPC   C3420895  -0.269   2.983   9.788  0.5071  0.8142  0.2580
  182SLPC   H4X20896  -0.203   2.903   9.749 -0.9773  0.5679 -1.8189
  182SLPC   H4Y20897  -0.237   3.085   9.760 -0.1489  1.1990  0.8788
  182SLPC   C3520898  -0.417   2.962   9.735 -0.3993  0.1331  0.2889
  182SLPC   H5X20899  -0.471   3.045   9.785 -2.2045 -0.2522 -0.9483
  182SLPC   H5Y20900  -0.457   2.863   9.766 -0.0757 -0.5237 -1.3164
  182SLPC   C3620901  -0.440   2.966   9.588  0.2398  0.1102  0.3131
  182SLPC   H6X20902  -0.550   2.975   9.572 -0.4030 -0.3308  4.1065
  182SLPC   H6Y20903  -0.406   2.870   9.543  1.5446  0.5504  0.3432
  182SLPC   C3720904  -0.368   3.078   9.509  0.6455  0.8078  0.2566
  182SLPC   H7X20905  -0.259   3.056   9.509  0.2148 -1.5599 -0.5551
  182SLPC   H7Y20906  -0.387   3.174   9.560  0.1915  1.8092 -1.7526
  182SLPC   C3820907  -0.427   3.076   9.372  0.2388 -0.1960  0.2367
  182SLPC   H8X20908  -0.537   3.087   9.385  0.2606 -0.6707  0.8179
  182SLPC   H8Y20909  -0.409   2.980   9.321 -0.1134  0.3477 -0.9453
  182SLPC   C3920910  -0.378   3.193   9.286  0.1199  0.1335  0.1695
  182SLPC   H9X20911  -0.269   3.207   9.299  0.1028  0.9640 -0.5706
  182SLPC   H9Y20912  -0.410   3.285   9.339 -1.3321  1.1930 -2.4755
  182SLPC  C31020913  -0.434   3.194   9.138  0.1723 -0.6733  0.4706
  182SLPC  H10X20914  -0.424   3.094   9.093 -1.1056 -0.0762 -1.1932
  182SLPC  H10Y20915  -0.366   3.256   9.075  0.6380  0.2565  1.8710
  182SLPC  C31120916  -0.577   3.236   9.106 -0.6765 -0.9617  0.6895
  182SLPC  H11X20917  -0.597   3.336   9.149  0.6811  0.4777 -1.9037
  182SLPC  H11Y20918  -0.642   3.164   9.161 -0.2363  0.2518  2.8349
  182SLPC  C31220919  -0.623   3.235   8.961 -0.3926 -0.1063  0.6397
  182SLPC  H12X20920  -0.627   3.131   8.922  1.5965  1.0280 -2.8156
  182SLPC  H12Y20921  -0.556   3.292   8.893 -0.9603 -0.9473 -0.6215
  182SLPC  C31320922  -0.759   3.291   8.948  0.6178  0.1820 -0.6451
  182SLPC  H13X20923  -0.759   3.395   8.987 -0.0722 -0.6006  1.5055
  182SLPC  H13Y20924  -0.833   3.244   9.016  1.9338  1.5325  1.7606
  182SLPC  C31420925  -0.815   3.312   8.802 -0.4018  0.0070  0.3082
  182SLPC  H14X20926  -0.846   3.212   8.765  2.7521  0.1492 -2.9653
  182SLPC  H14Y20927  -0.730   3.354   8.744 -1.1286  1.1051  0.0143
  182SLPC  C31520928  -0.939   3.397   8.797 -0.5045 -0.0541 -0.4110
  182SLPC  H15X20929  -0.930   3.494   8.849 -1.8502  0.5226 -1.2117
  182SLPC  H15Y20930  -1.019   3.348   8.856  2.2050 -1.9524  1.8239
  182SLPC  C31620931  -0.989   3.428   8.652 -0.0233  0.0923 -0.8475
  182SLPC  H16X20932  -0.910   3.481   8.595  0.6651 -0.3704 -0.3350
  182SLPC  H16Y20933  -1.082   3.490   8.655 -0.1957 -0.1790 -0.5378
  182SLPC  C31720934  -1.032   3.303   8.571  0.1459  0.4944  0.3724
  182SLPC  H17X20935  -1.115   3.246   8.619 -0.1851  2.1155  1.7664
  182SLPC  H17Y20936  -0.949   3.233   8.551 -0.2315 -0.1186  0.9222
  182SLPC  C31820937  -1.082   3.354   8.432  0.3238 -0.2360 -0.1363
  182SLPC  H18X20938  -1.172   3.420   8.432 -0.5923 -1.4362 -2.0326
  182SLPC  H18Y20939  -1.114   3.272   8.364  3.8530 -0.1100 -2.0514
  182SLPC  H18Z20940  -1.005   3.415   8.382 -0.5400 -0.3347 -1.6280
  183SLPC     N20941   1.825   4.016  11.073  1.0214  0.1134  0.6471
  183SLPC   C1320942   1.957   4.016  11.136 -0.6358 -0.2627  0.1094
  183SLPC  H13A20943   2.037   4.062  11.079 -0.9572  0.8540  0.5396
  183SLPC  H13B20944   1.967   4.072  11.227 -1.4457 -0.9327  0.6094
  183SLPC  H13C20945   1.986   3.913  11.149  0.4225 -0.1374 -1.0966
  183SLPC   C1420946   1.771   4.160  11.074 -0.2573  0.3453  0.0459
  183SLPC  H14A20947   1.837   4.223  11.017 -2.3632  1.8627 -0.7703
  183SLPC  H14B20948   1.668   4.155  11.041 -0.5333 -0.4302  0.9745
  183SLPC  H14C20949   1.779   4.200  11.174  0.8710  1.4685 -0.4827
  183SLPC   C1520950   1.727   3.932  11.150 -1.0498  1.2273  0.6930
  183SLPC  H15A20951   1.689   3.998  11.227 -1.5658 -0.3211  1.7871
  183SLPC  H15B20952   1.656   3.894  11.077  0.6282 -0.0892 -0.2877
  183SLPC  H15C20953   1.775   3.856  11.209 -0.4824  1.4825  0.5570
  183SLPC   C1220954   1.833   3.962  10.934  0.4200 -0.1477  0.0584
  183SLPC  H12A20955   1.855   3.857  10.947 -3.8763 -0.8956  1.8972
  183SLPC  H12B20956   1.915   4.004  10.876 -0.8410  0.8012 -1.0687
  183SLPC   C1120957   1.705   3.974  10.847 -0.2137  0.3978 -0.1655
  183SLPC  H11A20958   1.733   3.938  10.746 -2.6109 -5.1735  0.9983
  183SLPC  H11B20959   1.679   4.082  10.840 -3.4862 -0.0309  3.7842
  183SLPC     P20960   1.448   3.940  10.881 -0.0229 -0.0458  0.1866
  183SLPC   O1320961   1.352   3.826  10.885 -0.2377 -0.2616 -0.4156
  183SLPC   O1420962   1.427   4.048  10.977 -0.2435  0.3447  0.3390
  183SLPC   O1220963   1.597   3.893  10.890  0.6911 -0.2149  0.1624
  183SLPC   O1120964   1.423   4.008  10.743  0.1411 -0.7231  0.0395
  183SLPC    C120965   1.488   3.962  10.625 -0.1390  0.6275  0.4359
  183SLPC    HA20966   1.516   4.050  10.563  3.5093  0.4152  1.6918
  183SLPC    HB20967   1.575   3.894  10.638 -0.0738  0.7837  0.8249
  183SLPC    C220968   1.388   3.888  10.531 -0.4561  0.8562  0.2943
  183SLPC    HS20969   1.328   3.816  10.591  0.7838 -0.5637 -0.1483
  183SLPC   O2120970   1.460   3.820  10.426  0.1759 -0.0675  0.6524
  183SLPC   C2120971   1.388   3.727  10.370 -0.5124  0.4471  0.3014
  183SLPC   O2220972   1.293   3.670  10.417 -0.2804 -0.4782  0.4517
  183SLPC   C2220973   1.445   3.693  10.238 -0.0471 -0.2661  0.3436
  183SLPC   H2R20974   1.504   3.775  10.192  1.2782 -1.1535  0.4341
  183SLPC   H2S20975   1.518   3.610  10.252  0.5297  0.0796 -0.6171
  183SLPC    C320976   1.289   3.991  10.468  0.4309  0.0904 -0.1439
  183SLPC    HX20977   1.261   4.053  10.555 -0.4946 -2.5368  1.4856
  183SLPC    HY20978   1.197   3.939  10.432  0.4012 -0.0432  0.1239
  183SLPC   O3120979   1.341   4.062  10.351 -0.1922  0.9519  0.5196
  183SLPC   C3120980   1.371   4.187  10.367  0.2807 -0.0110 -0.0456
  183SLPC   O3220981   1.360   4.258  10.466 -0.6607 -0.3074  0.1359
  183SLPC   C3220982   1.420   4.251  10.239  0.7396  0.3960  0.4296
  183SLPC   H2X20983   1.448   4.166  10.173 -1.1962  0.8073 -0.9473
  183SLPC   H2Y20984   1.513   4.306  10.267 -0.1374  1.7577  0.6962
  183SLPC   C2320985   1.344   3.633  10.138 -0.2678 -0.0531  0.9635
  183SLPC   H3R20986   1.285   3.717  10.097  1.1439  0.0761 -0.8587
  183SLPC   H3S20987   1.274   3.569  10.196 -0.2738  0.1565  1.1891
  183SLPC   C2420988   1.414   3.544  10.034 -0.6986 -0.0984  0.3087
  183SLPC   H4R20989   1.452   3.459  10.095 -0.1681  1.2750  1.9324
  183SLPC   H4S20990   1.494   3.596   9.977 -0.0811 -0.8230  0.5128
  183SLPC   C2520991   1.328   3.478   9.918 -0.1728 -0.0584 -0.6417
  183SLPC   H5R20992   1.286   3.558   9.854  0.0028  0.7892  0.2942
  183SLPC   H5S20993   1.246   3.419   9.963 -0.4087  0.9606  0.2751
  183SLPC   C2620994   1.412   3.377   9.839  0.1621  0.8531  0.3957
  183SLPC   H6R20995   1.446   3.294   9.904 -2.6583 -1.1861 -0.6625
  183SLPC   H6S20996   1.495   3.425   9.782  1.5330 -1.3998  0.4298
  183SLPC   C2720997   1.333   3.286   9.736  0.2562  0.7745 -0.4280
  183SLPC   H7R20998   1.240   3.250   9.785  0.8287  0.6008  0.5632
  183SLPC   H7S20999   1.390   3.194   9.713  0.2542  0.3439  1.2281
  183SLPC   C2821000   1.310   3.356   9.600 -0.1549 -0.4667  0.4518
  183SLPC   H8R21001   1.255   3.451   9.616  0.6516 -0.0464  0.7121
  183SLPC   H8S21002   1.239   3.291   9.544  0.8871 -0.5433 -0.8145
  183SLPC   C2921003   1.442   3.380   9.529  0.0164 -0.5606  0.1813
  183SLPC   H9R21004   1.535   3.380   9.589  0.2487  2.0013 -0.1271
  183SLPC  C21021005   1.450   3.412   9.394 -0.4880 -0.4760  0.7886
  183SLPC  H10R21006   1.546   3.444   9.352 -1.6260  0.0238 -1.4934
  183SLPC  C21121007   1.345   3.423   9.294 -0.3647 -0.5929 -0.0817
  183SLPC  H11R21008   1.321   3.528   9.268 -1.6784 -0.9021 -0.1503
  183SLPC  H11S21009   1.250   3.376   9.328 -0.6219 -0.1914 -0.2391
  183SLPC  C21221010   1.395   3.374   9.156  0.1134  0.3787 -0.0900
  183SLPC  H12R21011   1.374   3.268   9.136  3.3481 -0.2180 -0.6514
  183SLPC  C21321012   1.462   3.443   9.066  0.7501  0.0184  0.0422
  183SLPC  H13R21013   1.501   3.382   8.983 -1.6931 -0.7554 -0.5635
  183SLPC  C21421014   1.515   3.584   9.081  0.2730  0.6888  0.1388
  183SLPC  H14R21015   1.609   3.608   9.027 -0.3351  0.6265 -0.9466
  183SLPC  H14S21016   1.532   3.618   9.186 -0.2357  1.6340 -0.0862
  183SLPC  C21521017   1.430   3.704   9.020 -0.4900 -0.0063 -0.6564
  183SLPC  H15R21018   1.470   3.807   9.035 -0.0025 -0.1447 -0.9873
  183SLPC  H15S21019   1.332   3.705   9.073 -1.0805  1.3167 -1.7591
  183SLPC  C21621020   1.392   3.671   8.880  0.6032  0.3189  0.3642
  183SLPC  H16R21021   1.345   3.574   8.856  1.1161 -0.1075  1.0844
  183SLPC  H16S21022   1.480   3.653   8.815 -1.0521 -2.0721 -1.3194
  183SLPC  C21721023   1.317   3.783   8.815  0.2792  0.2419 -0.1931
  183SLPC  H17R21024   1.316   3.745   8.711 -0.7253 -1.1328  0.2912
  183SLPC  H17S21025   1.374   3.878   8.815  2.0950 -0.8227 -0.6968
  183SLPC  C21821026   1.170   3.794   8.857 -0.8523 -0.0752 -0.9345
  183SLPC  H18R21027   1.115   3.864   8.790  0.1853  0.7604 -0.9293
  183SLPC  H18S21028   1.166   3.849   8.953  1.2612 -0.6898 -0.4784
  183SLPC  H18T21029   1.117   3.697   8.860 -1.1155  0.0734 -0.7565
  183SLPC   C3321030   1.323   4.347  10.171  0.4613 -0.2723 -0.1606
  183SLPC   H3X21031   1.297   4.434  10.236  0.0811 -1.0646  0.7538
  183SLPC   H3Y21032   1.232   4.283  10.166  0.5335 -0.2843 -1.4767
  183SLPC   C3421033   1.365   4.399  10.031 -0.0680  0.8647  0.0872
  183SLPC   H4X21034   1.460   4.457  10.045 -0.5577  1.6556  0.1765
  183SLPC   H4Y21035   1.304   4.484   9.994  1.0134  1.0685 -1.3039
  183SLPC   C3521036   1.365   4.297   9.918 -0.0453  0.3014  0.0517
  183SLPC   H5X21037   1.278   4.230   9.933  0.5400 -0.0885  1.8262
  183SLPC   H5Y21038   1.458   4.236   9.927  0.6829  1.5281  1.0899
  183SLPC   C3621039   1.379   4.367   9.783 -0.2286 -0.5790  0.3043
  183SLPC   H6X21040   1.478   4.418   9.792  0.2693 -1.3809 -0.5213
  183SLPC   H6Y21041   1.292   4.432   9.759 -0.8509 -1.4989  0.0557
  183SLPC   C3721042   1.375   4.269   9.668 -0.0920  0.4085  0.3935
  183SLPC   H7X21043   1.301   4.187   9.676  0.0817  0.3681  1.7331
  183SLPC   H7Y21044   1.471   4.213   9.662 -1.0001 -1.1375  0.1313
  183SLPC   C3821045   1.345   4.344   9.536 -0.0048  0.8215 -0.1683
  183SLPC   H8X21046   1.423   4.421   9.524  0.7070 -0.0085 -0.8328
  183SLPC   H8Y21047   1.245   4.392   9.528 -0.0984  0.6363 -0.1076
  183SLPC   C3921048   1.350   4.264   9.401 -0.0685  0.1110  0.7411
  183SLPC   H9X21049   1.277   4.186   9.432  1.3586 -0.2093  3.4984
  183SLPC   H9Y21050   1.447   4.210   9.400 -1.0793 -1.7738 -2.9115
  183SLPC  C31021051   1.328   4.358   9.277  0.0115 -0.5291 -0.5721
  183SLPC  H10X21052   1.352   4.303   9.183  0.8533 -0.3979 -0.4416
  183SLPC  H10Y21053   1.393   4.448   9.277  0.5521 -0.9039  0.7173
  183SLPC  C31121054   1.186   4.414   9.271 -0.8564 -0.2713 -0.1493
  183SLPC  H11X21055   1.151   4.467   9.363 -1.9846  1.8691 -1.7743
  183SLPC  H11Y21056   1.112   4.332   9.265 -1.8708  0.6335 -0.1609
  183SLPC  C31221057   1.165   4.500   9.148  0.0342  0.0907  0.2871
  183SLPC  H12X21058   1.218   4.456   9.060  0.4589  0.5231  0.3254
  183SLPC  H12Y21059   1.224   4.593   9.165  1.0772 -0.2763 -1.1899
  183SLPC  C31321060   1.019   4.523   9.104 -0.0424 -0.4329 -0.1093
  183SLPC  H13X21061   0.966   4.560   9.195 -0.3661  1.9953 -1.2315
  183SLPC  H13Y21062   0.979   4.426   9.068 -1.1219 -0.3333  0.7870
  183SLPC  C31421063   1.003   4.627   8.992  0.1363 -0.3567 -0.1296
  183SLPC  H14X21064   1.041   4.725   9.026 -2.5887  0.0390  1.9481
  183SLPC  H14Y21065   0.893   4.641   8.982  0.2081  0.3343  0.0315
  183SLPC  C31521066   1.073   4.606   8.856  0.3094  0.1573 -0.5601
  183SLPC  H15X21067   1.044   4.503   8.824  2.0975 -0.9866  1.3157
  183SLPC  H15Y21068   1.183   4.612   8.867 -0.0093  3.7166  1.4376
  183SLPC  C31621069   1.014   4.696   8.744 -0.5751  0.0468  0.1540
  183SLPC  H16X21070   1.041   4.801   8.769 -1.6409 -0.0110  1.6333
  183SLPC  H16Y21071   0.905   4.679   8.753 -0.0942 -3.2354  0.5573
  183SLPC  C31721072   1.068   4.677   8.603 -0.2228  0.5246 -0.3059
  183SLPC  H17X21073   1.040   4.762   8.537  0.5589  1.0840  0.0812
  183SLPC  H17Y21074   1.014   4.591   8.555 -2.4051 -0.0928  3.1193
  183SLPC  C31821075   1.224   4.651   8.590  0.2195  0.9390  0.3279
  183SLPC  H18X21076   1.258   4.556   8.637 -4.0851 -0.1003  1.5605
  183SLPC  H18Y21077   1.274   4.740   8.634  0.5785  0.2454  1.3483
  183SLPC  H18Z21078   1.257   4.647   8.484  0.4909  3.1215  0.3036
  184SLPC     N21079   3.307   1.127  10.675 -0.5677 -0.3592  0.7480
  184SLPC   C1321080   3.250   1.066  10.556  0.7055  0.2203  0.1160
  184SLPC  H13A21081   3.239   0.960  10.573  0.9714  0.3479  1.1736
  184SLPC  H13B21082   3.148   1.099  10.538 -0.9049 -3.1749  2.4140
  184SLPC  H13C21083   3.308   1.084  10.468 -0.8859  1.6308 -0.6737
  184SLPC   C1421084   3.412   1.034  10.732 -0.4582 -0.8387  0.3547
  184SLPC  H14A21085   3.382   0.931  10.741 -1.9196 -0.7512 -2.8472
  184SLPC  H14B21086   3.495   1.031  10.663 -1.7896  0.0932 -1.3220
  184SLPC  H14C21087   3.460   1.071  10.822 -2.9891 -0.1730  1.4619
  184SLPC   C1521088   3.197   1.143  10.768  0.3182 -1.0042 -0.6073
  184SLPC  H15A21089   3.227   1.180  10.865 -0.0797 -0.1334 -0.8156
  184SLPC  H15B21090   3.118   1.208  10.735 -1.5560 -2.4174  0.9584
  184SLPC  H15C21091   3.156   1.044  10.785 -2.0354  0.0204 -0.1119
  184SLPC   C1221092   3.376   1.264  10.646 -0.3070 -0.3702  0.4617
  184SLPC  H12A21093   3.450   1.240  10.571 -1.6261  0.1303 -1.0135
  184SLPC  H12B21094   3.433   1.302  10.730  1.5157 -0.5792 -0.6521
  184SLPC   C1121095   3.284   1.385  10.598 -0.0018 -0.0607 -0.3702
  184SLPC  H11A21096   3.234   1.352  10.504  0.6736  1.5351 -1.3241
  184SLPC  H11B21097   3.361   1.463  10.579 -2.3819  2.2538 -0.8035
  184SLPC     P21098   3.111   1.560  10.678  0.0540  0.2314 -0.2151
  184SLPC   O1321099   2.969   1.528  10.644  0.8057 -0.1105  0.2817
  184SLPC   O1421100   3.141   1.648  10.796  0.1649  0.4687  0.5930
  184SLPC   O1221101   3.187   1.429  10.700 -0.9139 -0.0892 -0.6948
  184SLPC   O1121102   3.184   1.628  10.557 -0.5718 -0.0193 -0.1683
  184SLPC    C121103   3.104   1.677  10.452 -0.7278 -0.4032  0.1938
  184SLPC    HA21104   3.016   1.737  10.484  2.2508  3.9647  0.7479
  184SLPC    HB21105   3.161   1.758  10.401  1.1043 -2.3924 -1.0180
  184SLPC    C221106   3.067   1.583  10.330 -0.4705 -0.1442  0.7345
  184SLPC    HS21107   2.986   1.512  10.358 -0.0306 -1.1413 -0.4556
  184SLPC   O2121108   3.183   1.512  10.282  0.0843 -0.0643  0.1663
  184SLPC   C2121109   3.157   1.394  10.236 -0.2280  0.3947 -0.5904
  184SLPC   O2221110   3.052   1.337  10.246  0.5022  0.0684  0.2150
  184SLPC   C2221111   3.283   1.332  10.171 -0.0511  0.1709  0.1627
  184SLPC   H2R21112   3.318   1.401  10.091  0.4161  0.5158  0.6617
  184SLPC   H2S21113   3.367   1.332  10.244 -1.7250 -1.4891  2.1487
  184SLPC    C321114   2.995   1.672  10.221 -0.0404  0.5556 -0.4449
  184SLPC    HX21115   3.062   1.753  10.185  1.8449 -0.5920  0.4380
  184SLPC    HY21116   2.899   1.718  10.253 -0.8967 -0.1085 -1.9809
  184SLPC   O3121117   2.961   1.598  10.104  0.4063 -0.0033  0.1844
  184SLPC   C3121118   2.848   1.519  10.110  0.8115  0.0611 -0.4232
  184SLPC   O3221119   2.778   1.510  10.210  0.3180 -0.0049  0.5770
  184SLPC   C3221120   2.828   1.450   9.969  0.3267  0.1147 -0.2539
  184SLPC   H2X21121   2.906   1.373   9.950 -2.6476 -3.0874  0.0552
  184SLPC   H2Y21122   2.830   1.521   9.884 -2.1760  1.2731  0.6162
  184SLPC   C2321123   3.258   1.190  10.117 -0.0227 -0.4101 -0.5066
  184SLPC   H3R21124   3.196   1.127  10.185  0.5193 -1.4455 -0.9620
  184SLPC   H3S21125   3.355   1.137  10.104  0.3017  0.0610 -0.0132
  184SLPC   C2421126   3.189   1.185   9.976  0.6177 -0.3338 -0.0753
  184SLPC   H4R21127   3.105   1.256   9.962 -0.6464 -2.1265 -1.8970
  184SLPC   H4S21128   3.144   1.084   9.961  0.0460 -0.2192  0.8318
  184SLPC   C2521129   3.292   1.215   9.858  0.8009 -0.1278 -0.5238
  184SLPC   H5R21130   3.384   1.155   9.875  1.6649  1.5514  0.8667
  184SLPC   H5S21131   3.336   1.316   9.875 -0.1257  0.3039 -0.6921
  184SLPC   C2621132   3.243   1.179   9.719  0.1757 -0.2687  0.4633
  184SLPC   H6R21133   3.231   1.068   9.720  2.7417 -0.6079 -0.1801
  184SLPC   H6S21134   3.330   1.190   9.649 -1.0734  0.0122 -1.0827
  184SLPC   C2721135   3.126   1.257   9.657 -0.0775 -0.5805 -0.8766
  184SLPC   H7R21136   3.033   1.263   9.718 -0.1321  3.0775 -1.2444
  184SLPC   H7S21137   3.092   1.212   9.562 -2.0867  1.5914 -1.2124
  184SLPC   C2821138   3.154   1.411   9.650  0.2825  0.5396 -0.3878
  184SLPC   H8R21139   3.185   1.444   9.752  0.0449 -0.7556  0.1147
  184SLPC   H8S21140   3.063   1.464   9.616 -0.5706 -1.0105 -0.5462
  184SLPC   C2921141   3.260   1.446   9.551 -0.8165  0.2391  0.7471
  184SLPC   H9R21142   3.358   1.433   9.598 -0.3085  1.6988  0.1019
  184SLPC  C21021143   3.247   1.479   9.419 -0.4104 -0.1256  0.4695
  184SLPC  H10R21144   3.337   1.465   9.357  0.1140  0.3118  1.1190
  184SLPC  C21121145   3.123   1.501   9.334  0.0953  0.8785  0.1649
  184SLPC  H11R21146   3.139   1.599   9.284 -1.8374  1.7668  1.2171
  184SLPC  H11S21147   3.046   1.525   9.410 -1.7851 -0.4338 -1.2561
  184SLPC  C21221148   3.088   1.389   9.234  0.6464 -0.3297 -0.7687
  184SLPC  H12R21149   3.025   1.310   9.277  0.3784 -0.7714 -1.9389
  184SLPC  C21321150   3.115   1.388   9.102 -0.6523 -0.1713  0.0367
  184SLPC  H13R21151   3.104   1.290   9.055 -2.0585 -0.5961  1.2369
  184SLPC  C21421152   3.201   1.496   9.033  0.4281  0.2976  0.5698
  184SLPC  H14R21153   3.259   1.461   8.945  0.8657 -0.0665  1.0044
  184SLPC  H14S21154   3.281   1.545   9.092 -0.3422  1.6869  0.4779
  184SLPC  C21521155   3.111   1.609   8.970 -0.3182 -0.0971  0.1345
  184SLPC  H15R21156   3.185   1.681   8.928  1.1778 -1.5249  0.2862
  184SLPC  H15S21157   3.068   1.676   9.047  1.2881 -0.7029  1.5893
  184SLPC  C21621158   3.017   1.567   8.858 -0.3797 -0.2367 -1.1013
  184SLPC  H16R21159   2.951   1.651   8.831  2.1168  2.1503 -0.0047
  184SLPC  H16S21160   2.955   1.487   8.905  2.1089 -1.8904 -0.5129
  184SLPC  C21721161   3.083   1.517   8.731  0.2848 -0.5842  0.8188
  184SLPC  H17R21162   2.999   1.483   8.667 -0.4054 -1.3468  2.0967
  184SLPC  H17S21163   3.154   1.433   8.749  3.2444  1.4489 -0.9683
  184SLPC  C21821164   3.148   1.630   8.656  0.0021 -0.3358  0.5942
  184SLPC  H18R21165   3.201   1.594   8.565 -1.0617  1.3811 -0.7469
  184SLPC  H18S21166   3.218   1.688   8.719 -0.5828  0.4200  0.5557
  184SLPC  H18T21167   3.078   1.706   8.615  2.5222  1.8446  0.1964
  184SLPC   C3321168   2.694   1.374   9.958 -0.3962  0.0758 -0.5886
  184SLPC   H3X21169   2.608   1.442   9.978  0.7180  1.0662  0.9444
  184SLPC   H3Y21170   2.697   1.294  10.035  0.5605 -1.0999 -1.8200
  184SLPC   C3421171   2.676   1.301   9.824 -0.2022 -0.0490  0.7651
  184SLPC   H4X21172   2.592   1.229   9.837  1.3201 -1.6804  1.8142
  184SLPC   H4Y21173   2.763   1.239   9.794  0.5861  0.1353  2.6316
  184SLPC   C3521174   2.642   1.399   9.714  0.2311 -0.1245  0.4360
  184SLPC   H5X21175   2.718   1.480   9.723  1.8363 -1.6265  0.6709
  184SLPC   H5Y21176   2.543   1.446   9.732 -0.1830 -0.6314 -0.4852
  184SLPC   C3621177   2.648   1.314   9.592  0.0571 -0.2597  0.1768
  184SLPC   H6X21178   2.546   1.315   9.546 -1.1447  1.2391  2.7640
  184SLPC   H6Y21179   2.659   1.206   9.615  0.6117  0.1631  1.9428
  184SLPC   C3721180   2.758   1.352   9.495 -1.1624  0.1509  0.2239
  184SLPC   H7X21181   2.849   1.291   9.517  0.3395  2.0206 -0.6584
  184SLPC   H7Y21182   2.792   1.454   9.521  0.0778 -0.3119  0.4996
  184SLPC   C3821183   2.723   1.348   9.348  0.1047 -0.0867 -0.0500
  184SLPC   H8X21184   2.814   1.373   9.289 -1.0124 -0.0887 -1.8250
  184SLPC   H8Y21185   2.654   1.431   9.322 -1.2513 -0.8907  0.9233
  184SLPC   C3921186   2.662   1.211   9.306  0.3885  0.4558 -0.7859
  184SLPC   H9X21187   2.595   1.171   9.385  0.6378  2.4351  0.4724
  184SLPC   H9Y21188   2.742   1.134   9.303 -2.5328 -2.7086 -0.0751
  184SLPC  C31021189   2.603   1.216   9.171  0.2665  0.1035 -0.4104
  184SLPC  H10X21190   2.508   1.273   9.175  0.6686  0.7378  0.5219
  184SLPC  H10Y21191   2.578   1.111   9.147  0.4609  0.5391 -2.6165
  184SLPC  C31121192   2.686   1.284   9.065 -0.1840 -0.2065 -0.6916
  184SLPC  H11X21193   2.784   1.232   9.062 -0.6330 -1.0732 -0.5875
  184SLPC  H11Y21194   2.704   1.393   9.078 -2.4232  0.3048 -1.7458
  184SLPC  C31221195   2.613   1.263   8.932  0.2307 -0.0084  0.7576
  184SLPC  H12X21196   2.512   1.309   8.938  0.0615 -0.6674  3.9407
  184SLPC  H12Y21197   2.595   1.155   8.913 -0.8486 -0.0892  2.2154
  184SLPC  C31321198   2.699   1.321   8.825  0.7670 -0.0664 -0.3615
  184SLPC  H13X21199   2.804   1.305   8.859 -0.2566 -0.3381  2.9076
  184SLPC  H13Y21200   2.702   1.432   8.834  1.6959 -0.1247  0.1548
  184SLPC  C31421201   2.673   1.262   8.686 -0.3864 -0.3563  0.3226
  184SLPC  H14X21202   2.562   1.257   8.675 -0.6625  0.7080  2.4160
  184SLPC  H14Y21203   2.718   1.161   8.671 -0.7767 -0.5914  0.7359
  184SLPC  C31521204   2.733   1.354   8.578  0.6452 -0.9305  0.5125
  184SLPC  H15X21205   2.841   1.371   8.600  0.7174 -1.1129  0.2906
  184SLPC  H15Y21206   2.686   1.454   8.594 -0.1807 -1.3318  0.5879
  184SLPC  C31621207   2.706   1.299   8.435  0.3628  0.7557 -0.2972
  184SLPC  H16X21208   2.598   1.278   8.420  0.9996 -2.8717 -0.2303
  184SLPC  H16Y21209   2.764   1.204   8.442 -1.8656 -0.4974  1.8436
  184SLPC  C31721210   2.762   1.380   8.317  0.5373 -0.0152  0.4292
  184SLPC  H17X21211   2.719   1.482   8.323 -1.0627 -0.6511  0.0218
  184SLPC  H17Y21212   2.731   1.328   8.224  1.7202 -2.2388  1.2443
  184SLPC  C31821213   2.912   1.397   8.318 -0.1343  0.9834  0.6186
  184SLPC  H18X21214   2.963   1.299   8.301  0.8290  1.2359  1.9688
  184SLPC  H18Y21215   2.960   1.434   8.411  1.8389  0.6961 -0.2517
  184SLPC  H18Z21216   2.948   1.458   8.232  0.8599 -0.4553 -0.0153
  185SLPC     N21217   2.229   4.654   6.292  0.6936 -0.3297  0.3050
  185SLPC   C1321218   2.257   4.507   6.305 -0.0599  0.9285 -0.4280
  185SLPC  H13A21219   2.181   4.440   6.266 -1.4728  1.8057  0.7761
  185SLPC  H13B21220   2.351   4.493   6.254 -0.2141  2.2947 -1.0914
  185SLPC  H13C21221   2.261   4.479   6.409  2.3792  0.4572 -0.6131
  185SLPC   C1421222   2.240   4.703   6.151  0.0943 -0.5480  0.6601
  185SLPC  H14A21223   2.200   4.804   6.146  2.2111  0.2469 -0.9514
  185SLPC  H14B21224   2.341   4.690   6.116 -0.3242  2.2697 -1.8181
  185SLPC  H14C21225   2.179   4.642   6.086  1.4168 -1.3048  0.1070
  185SLPC   C1521226   2.342   4.728   6.363  0.2929 -0.0371  0.0184
  185SLPC  H15A21227   2.330   4.834   6.343  0.0824 -0.2598 -1.0618
  185SLPC  H15B21228   2.355   4.718   6.469  1.6153  0.1141 -0.1168
  185SLPC  H15C21229   2.440   4.704   6.324  0.2581  1.0198 -0.7358
  185SLPC   C1221230   2.098   4.695   6.354  0.5543 -0.1132 -0.1928
  185SLPC  H12A21231   2.014   4.659   6.296  0.9939 -1.0072 -0.2778
  185SLPC  H12B21232   2.073   4.800   6.349  1.0401  0.0161  0.1028
  185SLPC   C1121233   2.061   4.641   6.501  0.4815 -0.4262 -0.1222
  185SLPC  H11A21234   1.972   4.704   6.525  1.0820  0.8765 -1.2354
  185SLPC  H11B21235   2.139   4.668   6.575  0.1876  0.3016 -0.0770
  185SLPC     P21236   1.935   4.426   6.408 -0.6987  0.3015  0.1097
  185SLPC   O1321237   1.839   4.521   6.340 -0.7664 -0.7044  0.3867
  185SLPC   O1421238   2.005   4.334   6.313  0.4067  0.5246 -0.4756
  185SLPC   O1221239   2.039   4.500   6.506 -0.5351 -0.2468 -0.3369
  185SLPC   O1121240   1.842   4.342   6.511 -0.1088 -0.0761 -0.0106
  185SLPC    C121241   1.774   4.419   6.612  0.0012  0.6767 -0.2898
  185SLPC    HA21242   1.807   4.525   6.618  1.2054  0.4896 -3.0303
  185SLPC    HB21243   1.665   4.425   6.592 -0.0546 -0.2714 -0.2701
  185SLPC    C221244   1.796   4.346   6.750  0.0617 -0.2352  0.1050
  185SLPC    HS21245   1.904   4.328   6.772 -0.3336 -0.8877  1.6136
  185SLPC   O2121246   1.722   4.224   6.748  0.1082 -0.0115 -0.5543
  185SLPC   C2121247   1.759   4.127   6.833  0.1775 -0.7125  0.1873
  185SLPC   O2221248   1.846   4.133   6.918  0.0096 -0.2104 -0.0844
  185SLPC   C2221249   1.663   4.014   6.803 -0.0574  0.2257  0.3563
  185SLPC   H2R21250   1.562   4.056   6.783  0.1224  1.0618  1.1755
  185SLPC   H2S21251   1.698   3.973   6.706 -1.9765  1.0946 -0.7472
  185SLPC    C321252   1.743   4.430   6.874 -0.1853  0.2348 -0.3001
  185SLPC    HX21253   1.644   4.462   6.837  0.2718  0.4413 -1.3542
  185SLPC    HY21254   1.798   4.526   6.883  2.2315 -1.2247  1.1317
  185SLPC   O3121255   1.727   4.359   7.001 -1.1183 -0.2122  0.2732
  185SLPC   C3121256   1.811   4.397   7.098  0.0086 -0.3065  0.1421
  185SLPC   O3221257   1.907   4.471   7.086 -0.1058 -0.2346  0.5570
  185SLPC   C3221258   1.758   4.335   7.227 -0.0419  0.5455  0.2174
  185SLPC   H2X21259   1.783   4.227   7.227  1.0640  0.7975  1.2602
  185SLPC   H2Y21260   1.648   4.348   7.233 -0.4435 -1.2338 -2.2624
  185SLPC   C2321261   1.671   3.897   6.910  0.1690 -0.1061 -0.8066
  185SLPC   H3R21262   1.773   3.860   6.933  0.1424 -1.6282 -2.9801
  185SLPC   H3S21263   1.621   3.807   6.870  0.3615 -0.9540  0.8256
  185SLPC   C2421264   1.591   3.932   7.041 -0.4136  0.1653 -0.1471
  185SLPC   H4R21265   1.485   3.963   7.033 -0.4501  0.2555  0.6744
  185SLPC   H4S21266   1.636   4.023   7.085 -1.5908  1.0234 -0.7233
  185SLPC   C2521267   1.607   3.813   7.131  0.4298  0.0318 -0.0521
  185SLPC   H5R21268   1.709   3.769   7.128  0.7186  0.2973  3.6231
  185SLPC   H5S21269   1.538   3.740   7.084 -0.2634 -0.3424  1.5087
  185SLPC   C2621270   1.575   3.834   7.278  0.1854  0.4819  0.3743
  185SLPC   H6R21271   1.571   3.737   7.333 -1.0588 -0.0188 -0.5758
  185SLPC   H6S21272   1.476   3.884   7.283 -0.9635 -1.6518 -0.3073
  185SLPC   C2721273   1.680   3.918   7.350  0.1670 -0.1646 -0.0603
  185SLPC   H7R21274   1.679   4.024   7.319 -1.1214 -0.2820 -0.4474
  185SLPC   H7S21275   1.776   3.875   7.313  1.5553  3.9464 -1.5241
  185SLPC   C2821276   1.656   3.904   7.509 -0.0661 -0.8125  0.2439
  185SLPC   H8R21277   1.754   3.942   7.547 -0.9868  4.0130 -1.7886
  185SLPC   H8S21278   1.642   3.796   7.532  2.9496 -1.3734 -0.3617
  185SLPC   C2921279   1.551   4.003   7.550 -0.2149  0.2793 -0.0629
  185SLPC   H9R21280   1.563   4.102   7.504 -0.5980 -0.7284 -2.4051
  185SLPC  C21021281   1.449   3.979   7.633  0.7927  0.0196 -0.2070
  185SLPC  H10R21282   1.384   4.063   7.663  0.2787 -0.3308 -0.3293
  185SLPC  C21121283   1.411   3.853   7.709  0.1271 -0.0225  0.4581
  185SLPC  H11R21284   1.397   3.772   7.634 -0.7528  2.6968 -2.4448
  185SLPC  H11S21285   1.309   3.865   7.753 -1.3449  1.5575 -3.1227
  185SLPC  C21221286   1.517   3.819   7.809  0.3415  0.0380  0.2681
  185SLPC  H12R21287   1.613   3.794   7.762 -0.4937 -1.3551 -0.7446
  185SLPC  C21321288   1.519   3.829   7.948 -0.8092 -0.8781  0.3019
  185SLPC  H13R21289   1.608   3.790   7.999 -0.9077 -1.1200  0.2900
  185SLPC  C21421290   1.399   3.869   8.022 -0.0656  0.4123  0.0045
  185SLPC  H14R21291   1.367   3.793   8.096 -0.9459  1.4009  0.6555
  185SLPC  H14S21292   1.322   3.908   7.952  3.5780  3.5863 -2.4616
  185SLPC  C21521293   1.429   3.991   8.109  0.5594 -0.8513  0.0556
  185SLPC  H15R21294   1.325   4.021   8.133  0.7201  1.0556 -1.4946
  185SLPC  H15S21295   1.475   4.072   8.049 -0.3218  0.3935  1.0250
  185SLPC  C21621296   1.499   3.986   8.240 -0.0594  0.6407  0.2011
  185SLPC  H16R21297   1.502   4.082   8.295  0.8087 -0.1844  1.6468
  185SLPC  H16S21298   1.604   3.968   8.208  0.5049  3.3449  0.4478
  185SLPC  C21721299   1.456   3.879   8.336 -0.6851  0.6611 -0.3911
  185SLPC  H17R21300   1.538   3.863   8.409  1.6181  1.3121 -2.7530
  185SLPC  H17S21301   1.450   3.780   8.284  2.0222  0.5721 -0.5944
  185SLPC  C21821302   1.327   3.915   8.408  0.2129  0.0943 -0.0058
  185SLPC  H18R21303   1.290   3.830   8.470  1.0081  0.4587  0.9766
  185SLPC  H18S21304   1.245   3.923   8.334  0.6633 -1.1082 -0.6537
  185SLPC  H18T21305   1.340   4.002   8.476  1.4798 -0.9880  1.1561
  185SLPC   C3321306   1.832   4.389   7.353 -0.0392  0.3418  0.4973
  185SLPC   H3X21307   1.796   4.493   7.367  1.0130  0.5540  1.6762
  185SLPC   H3Y21308   1.942   4.382   7.340 -0.2954  0.2800 -1.7139
  185SLPC   C3421309   1.787   4.314   7.475 -0.1113 -0.3040 -0.0853
  185SLPC   H4X21310   1.821   4.209   7.488  1.3226  0.3128  1.2637
  185SLPC   H4Y21311   1.676   4.310   7.481 -0.0061 -0.8612  1.6240
  185SLPC   C3521312   1.842   4.372   7.607 -0.6022 -0.6598 -0.2451
  185SLPC   H5X21313   1.822   4.479   7.624 -1.4744 -0.7325 -0.7670
  185SLPC   H5Y21314   1.952   4.354   7.602 -0.1409  1.7493  0.8725
  185SLPC   C3621315   1.775   4.291   7.725  0.1834  0.3478  0.0464
  185SLPC   H6X21316   1.752   4.185   7.698  0.8006  0.1020  0.4701
  185SLPC   H6Y21317   1.679   4.331   7.762 -0.6200 -1.7425  0.2874
  185SLPC   C3721318   1.874   4.294   7.847  0.1596  0.1740  0.0561
  185SLPC   H7X21319   1.887   4.402   7.872 -1.3336  0.5531 -0.7480
  185SLPC   H7Y21320   1.968   4.245   7.815 -0.6034 -0.2412 -1.6348
  185SLPC   C3821321   1.828   4.222   7.971 -0.2451 -0.2442  0.3490
  185SLPC   H8X21322   1.793   4.122   7.939  0.0232 -0.0466 -0.5813
  185SLPC   H8Y21323   1.738   4.269   8.017  0.0414  1.9001 -1.1874
  185SLPC   C3921324   1.934   4.225   8.084  0.6351  0.2212 -0.2486
  185SLPC   H9X21325   1.966   4.331   8.088 -2.3311  1.1525  0.0818
  185SLPC   H9Y21326   2.023   4.164   8.057  1.2830  1.6213 -1.2663
  185SLPC  C31021327   1.883   4.196   8.225  0.1373 -1.1441 -0.8224
  185SLPC  H10X21328   1.854   4.089   8.235  0.8544 -1.2163  0.4825
  185SLPC  H10Y21329   1.792   4.259   8.231  0.5426 -0.7745  1.7860
  185SLPC  C31121330   1.979   4.233   8.335 -0.0785  0.2784  0.4928
  185SLPC  H11X21331   2.021   4.333   8.313 -1.9196  0.8241 -0.7189
  185SLPC  H11Y21332   2.063   4.161   8.344  0.3236  0.4007 -1.9046
  185SLPC  C31221333   1.911   4.239   8.473 -0.5237  0.1603 -0.0375
  185SLPC  H12X21334   1.990   4.273   8.542 -0.5704 -0.1454  0.1691
  185SLPC  H12Y21335   1.873   4.138   8.501 -1.7461 -0.4145 -3.5062
  185SLPC  C31321336   1.793   4.343   8.484 -0.7310  1.0438 -0.4368
  185SLPC  H13X21337   1.709   4.331   8.412  0.1791 -1.4580 -1.1313
  185SLPC  H13Y21338   1.840   4.443   8.475 -0.5886  1.0646  0.5468
  185SLPC  C31421339   1.728   4.345   8.626 -0.4408 -0.2882  0.0532
  185SLPC  H14X21340   1.806   4.298   8.689  0.2981 -1.6188 -1.7914
  185SLPC  H14Y21341   1.644   4.272   8.625 -1.7857  1.1706  2.8233
  185SLPC  C31521342   1.682   4.492   8.670 -0.3348  0.8934 -0.1348
  185SLPC  H15X21343   1.618   4.533   8.588  1.0055  2.3065 -0.4929
  185SLPC  H15Y21344   1.772   4.557   8.669 -0.3575  0.9239 -0.1860
  185SLPC  C31621345   1.633   4.492   8.815 -0.7184  0.5486  0.4598
  185SLPC  H16X21346   1.707   4.454   8.889 -1.0545 -1.5639 -0.2569
  185SLPC  H16Y21347   1.554   4.415   8.825 -1.7478  1.6609  0.9879
  185SLPC  C31721348   1.574   4.630   8.853 -0.0500  0.4974  0.0762
  185SLPC  H17X21349   1.508   4.656   8.767 -0.6784 -3.3071 -0.6984
  185SLPC  H17Y21350   1.661   4.698   8.862  1.1765 -0.8959 -0.9206
  185SLPC  C31821351   1.485   4.616   8.970 -0.2084  0.0897 -0.0077
  185SLPC  H18X21352   1.413   4.534   8.947 -0.8132 -0.0704  2.3355
  185SLPC  H18Y21353   1.429   4.704   9.008 -1.0768 -0.9670  1.1889
  185SLPC  H18Z21354   1.531   4.574   9.063 -0.0911 -1.6480 -0.8230
  186SLPC     N21355   1.370   6.116   6.074  0.0351 -0.4466  0.2035
  186SLPC   C1321356   1.384   5.974   6.022  0.2251 -0.0400  0.1257
  186SLPC  H13A21357   1.327   5.907   6.084  0.3328 -0.8851 -0.6765
  186SLPC  H13B21358   1.350   5.955   5.921  1.4294  1.2047 -0.5497
  186SLPC  H13C21359   1.484   5.935   6.033  0.2416  0.0415  0.2651
  186SLPC   C1421360   1.225   6.147   6.115  0.4846  0.0114  0.4535
  186SLPC  H14A21361   1.210   6.254   6.120 -1.5883 -0.2556  0.4288
  186SLPC  H14B21362   1.160   6.112   6.036  1.6992 -2.3101  0.4496
  186SLPC  H14C21363   1.195   6.097   6.207  0.3496 -1.0707 -0.1715
  186SLPC   C1521364   1.407   6.211   5.969  0.3048  0.7831 -0.0483
  186SLPC  H15A21365   1.508   6.195   5.935 -0.1610  1.2478 -1.6957
  186SLPC  H15B21366   1.351   6.192   5.879  1.2222 -0.2815 -0.4010
  186SLPC  H15C21367   1.385   6.313   5.995  1.5258  1.0939 -0.2069
  186SLPC   C1221368   1.472   6.139   6.187  0.3803  0.4545 -0.7734
  186SLPC  H12A21369   1.573   6.130   6.151  0.5801 -2.7049  0.4401
  186SLPC  H12B21370   1.468   6.060   6.261 -3.4695 -0.5632 -1.9865
  186SLPC   C1121371   1.466   6.280   6.264  0.3628  0.3177 -0.1368
  186SLPC  H11A21372   1.523   6.271   6.358  0.4811  1.7884 -0.0539
  186SLPC  H11B21373   1.362   6.300   6.300 -0.0601 -2.9300  0.6235
  186SLPC     P21374   1.664   6.410   6.148 -0.0360 -0.3930  0.1378
  186SLPC   O1321375   1.727   6.287   6.100  0.4201 -0.1209 -0.3977
  186SLPC   O1421376   1.660   6.522   6.051  0.3818 -0.7353 -0.3108
  186SLPC   O1221377   1.511   6.386   6.187 -0.3126 -0.0275 -0.1848
  186SLPC   O1121378   1.738   6.456   6.285  0.2136  0.3450  0.3891
  186SLPC    C121379   1.697   6.580   6.356 -0.1300  0.6473 -0.0011
  186SLPC    HA21380   1.718   6.668   6.292 -0.5645 -0.2436 -1.3968
  186SLPC    HB21381   1.586   6.583   6.363 -0.2672  0.6297 -1.8114
  186SLPC    C221382   1.762   6.593   6.493 -0.1568  0.8842  0.5325
  186SLPC    HS21383   1.871   6.587   6.471 -0.0184 -0.8915  1.5867
  186SLPC   O2121384   1.733   6.472   6.576  0.7146  0.1687 -0.5593
  186SLPC   C2121385   1.835   6.428   6.643  0.0231  0.0490  0.0544
  186SLPC   O2221386   1.947   6.473   6.649 -0.1514  0.1989 -0.3652
  186SLPC   C2221387   1.782   6.322   6.735 -0.2138 -0.3865  0.1783
  186SLPC   H2R21388   1.715   6.261   6.671 -1.4008  2.7046 -1.6579
  186SLPC   H2S21389   1.870   6.260   6.764  0.3318 -0.7049 -1.9984
  186SLPC    C321390   1.721   6.721   6.554  0.3698 -0.2426  0.6137
  186SLPC    HX21391   1.611   6.708   6.556  0.2967 -0.4970 -2.1299
  186SLPC    HY21392   1.738   6.807   6.485  0.1011 -1.4897 -1.0553
  186SLPC   O3121393   1.781   6.735   6.690 -0.1859  0.4569  0.2349
  186SLPC   C3121394   1.854   6.841   6.705  0.2515  0.3044  0.0742
  186SLPC   O3221395   1.861   6.945   6.637  0.3147  0.1162  0.1554
  186SLPC   C3221396   1.925   6.816   6.838  0.2768  0.1628 -0.7721
  186SLPC   H2X21397   2.013   6.882   6.854  1.0593 -0.9081 -0.6589
  186SLPC   H2Y21398   1.972   6.719   6.815 -2.3253 -1.4513  0.4430
  186SLPC   C2321399   1.718   6.389   6.856  0.5352 -0.2030 -0.9002
  186SLPC   H3R21400   1.615   6.428   6.838  0.1749 -0.5671  0.3487
  186SLPC   H3S21401   1.778   6.471   6.900  0.1740 -0.7617  0.6499
  186SLPC   C2421402   1.709   6.290   6.968 -0.7356  0.1991  0.2116
  186SLPC   H4R21403   1.806   6.236   6.970 -1.5763 -1.3676 -0.1142
  186SLPC   H4S21404   1.632   6.212   6.946 -0.6857  0.6177 -1.5330
  186SLPC   C2521405   1.693   6.352   7.103 -0.5494 -0.1447 -0.0459
  186SLPC   H5R21406   1.592   6.385   7.138  0.8423  1.0055  3.1317
  186SLPC   H5S21407   1.744   6.451   7.103  0.7600 -0.8157 -0.9921
  186SLPC   C2621408   1.742   6.267   7.220  0.0759 -0.5943 -0.0020
  186SLPC   H6R21409   1.849   6.245   7.201  0.3591 -0.2166  1.1407
  186SLPC   H6S21410   1.678   6.176   7.219  1.5827 -1.6666 -2.1915
  186SLPC   C2721411   1.743   6.334   7.357 -0.3277 -0.9872 -0.1799
  186SLPC   H7R21412   1.649   6.311   7.410 -0.3748 -4.0893 -1.5068
  186SLPC   H7S21413   1.744   6.443   7.334 -1.1728 -0.6256  1.3990
  186SLPC   C2821414   1.871   6.312   7.435 -0.8290 -0.2318  0.5553
  186SLPC   H8R21415   1.870   6.383   7.521 -0.4041  1.2973 -0.6896
  186SLPC   H8S21416   1.956   6.347   7.374 -1.4682  1.4891  0.6115
  186SLPC   C2921417   1.914   6.172   7.481 -0.5006 -0.2006  0.5216
  186SLPC   H9R21418   1.953   6.123   7.390  0.0054 -2.7541  2.0459
  186SLPC  C21021419   1.940   6.109   7.596  0.5159 -0.1337 -0.0096
  186SLPC  H10R21420   1.977   6.006   7.581 -0.1633 -0.6930  1.9994
  186SLPC  C21121421   1.922   6.163   7.737  0.1605 -0.9260 -0.5629
  186SLPC  H11R21422   1.859   6.101   7.804 -1.1886  0.0108 -0.9485
  186SLPC  H11S21423   1.865   6.259   7.735 -0.5157 -1.2962  0.4952
  186SLPC  C21221424   2.050   6.193   7.799  0.7458  0.4953  0.0553
  186SLPC  H12R21425   2.141   6.160   7.747 -1.9215 -1.6393 -3.4201
  186SLPC  C21321426   2.067   6.256   7.919  0.3035  0.0639 -0.6812
  186SLPC  H13R21427   2.167   6.272   7.962 -0.1351 -0.2636  0.4940
  186SLPC  C21421428   1.954   6.302   8.014 -0.5779 -0.0918  0.2749
  186SLPC  H14R21429   1.853   6.279   7.974  0.1425 -0.9056 -1.0920
  186SLPC  H14S21430   1.954   6.413   8.019 -2.9951  0.0095 -1.1112
  186SLPC  C21521431   1.962   6.244   8.155 -0.2287 -1.1762 -0.4989
  186SLPC  H15R21432   1.941   6.136   8.140 -0.0010 -1.3249  0.2151
  186SLPC  H15S21433   1.875   6.291   8.206  0.7941  1.1728 -0.8619
  186SLPC  C21621434   2.090   6.280   8.230 -0.8497 -0.2514  0.0785
  186SLPC  H16R21435   2.113   6.386   8.210 -1.0549 -0.2050  0.0870
  186SLPC  H16S21436   2.176   6.227   8.182 -0.4430  1.8840 -1.5955
  186SLPC  C21721437   2.080   6.262   8.382 -0.5493 -0.0744  0.7268
  186SLPC  H17R21438   2.000   6.331   8.416 -2.0367 -1.8081  0.8280
  186SLPC  H17S21439   2.180   6.289   8.422  0.1006  0.9866 -1.5552
  186SLPC  C21821440   2.062   6.122   8.431 -0.4602 -0.6313  0.1392
  186SLPC  H18R21441   2.130   6.038   8.407  1.6739  1.0939  0.0581
  186SLPC  H18S21442   1.960   6.098   8.392  0.4438 -0.1793 -2.6371
  186SLPC  H18T21443   2.052   6.117   8.541 -1.3294  0.6613  0.1282
  186SLPC   C3321444   1.840   6.813   6.967 -0.3575 -0.5130  0.1189
  186SLPC   H3X21445   1.756   6.741   6.953 -0.7093 -0.3688  1.4341
  186SLPC   H3Y21446   1.795   6.914   6.976  0.6332  0.3260 -3.5025
  186SLPC   C3421447   1.902   6.768   7.099 -0.1398 -0.4177  0.6022
  186SLPC   H4X21448   1.982   6.841   7.124  0.1000 -0.1692 -0.8420
  186SLPC   H4Y21449   1.950   6.670   7.074  0.6072 -0.0665  0.6337
  186SLPC   C3521450   1.797   6.747   7.211  0.3242  0.7101  0.1746
  186SLPC   H5X21451   1.728   6.662   7.193  0.1754  0.8880 -0.1102
  186SLPC   H5Y21452   1.736   6.840   7.216  1.1082  1.3196 -1.3135
  186SLPC   C3621453   1.857   6.731   7.350  0.1661 -0.1155  0.1883
  186SLPC   H6X21454   1.923   6.815   7.380  0.5659 -0.0352 -0.8950
  186SLPC   H6Y21455   1.917   6.638   7.356 -1.5847 -1.3301 -0.6279
  186SLPC   C3721456   1.749   6.736   7.458  0.3752  0.7357  0.7451
  186SLPC   H7X21457   1.659   6.675   7.433  0.8181  1.1040 -1.9912
  186SLPC   H7Y21458   1.707   6.839   7.459  1.0917  1.0600 -0.9156
  186SLPC   C3821459   1.808   6.707   7.595 -0.5505 -0.5872  0.4637
  186SLPC   H8X21460   1.863   6.794   7.636 -0.1376  0.2174 -1.7211
  186SLPC   H8Y21461   1.885   6.628   7.584 -0.8108 -0.7690 -0.1105
  186SLPC   C3921462   1.704   6.677   7.701  0.0456 -0.0450 -0.1863
  186SLPC   H9X21463   1.667   6.574   7.678 -1.1612  1.0033 -3.1763
  186SLPC   H9Y21464   1.623   6.751   7.681 -1.2586 -1.2401  0.5811
  186SLPC  C31021465   1.753   6.694   7.842 -0.4060  0.0602 -0.3673
  186SLPC  H10X21466   1.810   6.789   7.852  1.1925 -0.8840 -0.3532
  186SLPC  H10Y21467   1.815   6.603   7.859 -1.1890 -0.7035 -1.5361
  186SLPC  C31121468   1.643   6.702   7.949 -0.6513 -0.5831 -0.3616
  186SLPC  H11X21469   1.596   6.601   7.949  0.6152 -1.2213 -3.2083
  186SLPC  H11Y21470   1.577   6.787   7.926  0.7124 -0.2541 -3.2362
  186SLPC  C31221471   1.691   6.729   8.099  0.3229 -0.0116  0.6343
  186SLPC  H12X21472   1.751   6.823   8.096 -0.6203  0.5311 -3.0983
  186SLPC  H12Y21473   1.757   6.646   8.131 -0.3272 -0.9417 -0.3960
  186SLPC  C31321474   1.575   6.750   8.196  0.4982  0.0614 -0.9763
  186SLPC  H13X21475   1.515   6.835   8.158 -1.3971 -0.0131  1.7172
  186SLPC  H13Y21476   1.607   6.795   8.292 -2.1092 -0.3958  0.1323
  186SLPC  C31421477   1.489   6.628   8.220  0.0858  0.4317  0.1000
  186SLPC  H14X21478   1.544   6.542   8.263 -0.0851  0.0238 -0.4894
  186SLPC  H14Y21479   1.448   6.593   8.123 -0.0460 -0.3637  0.4425
  186SLPC  C31521480   1.369   6.658   8.315 -0.1026 -0.2529  0.6192
  186SLPC  H15X21481   1.327   6.757   8.292  0.9677  0.5113  1.8530
  186SLPC  H15Y21482   1.414   6.658   8.417 -0.9620 -0.2759  1.0022
  186SLPC  C31621483   1.270   6.536   8.314 -0.2449  0.7646  0.1090
  186SLPC  H16X21484   1.325   6.440   8.314  0.6144  1.2472  0.3895
  186SLPC  H16Y21485   1.209   6.550   8.222 -3.2909  1.7452  2.2301
  186SLPC  C31721486   1.186   6.524   8.442 -0.0508 -0.3275 -0.4161
  186SLPC  H17X21487   1.164   6.626   8.479  4.4624  0.3898  0.6062
  186SLPC  H17Y21488   1.261   6.482   8.513  0.3505  1.7321  0.4030
  186SLPC  C31821489   1.065   6.427   8.431 -0.6895  0.3482 -0.4112
  186SLPC  H18X21490   1.099   6.321   8.433 -0.1452  0.5264  0.0530
  186SLPC  H18Y21491   1.017   6.445   8.332 -1.6037  0.1910 -0.0008
  186SLPC  H18Z21492   1.007   6.455   8.521  1.4485  1.0080  0.8129
  187SLPC     N21493   2.942   4.143   6.385 -0.6304 -0.2429 -0.3520
  187SLPC   C1321494   2.963   4.296   6.377  0.0786  0.0744 -0.0031
  187SLPC  H13A21495   2.912   4.350   6.456 -1.5959 -1.1360 -0.2379
  187SLPC  H13B21496   3.070   4.309   6.386  0.6185 -2.1325 -2.8380
  187SLPC  H13C21497   2.933   4.327   6.278  2.7105  0.1612 -0.8119
  187SLPC   C1421498   3.003   4.066   6.266 -0.2124  0.0303  0.0691
  187SLPC  H14A21499   2.971   3.964   6.274 -1.1761  0.1520 -1.8371
  187SLPC  H14B21500   2.968   4.101   6.169  1.2151 -1.3686 -0.9865
  187SLPC  H14C21501   3.111   4.065   6.261 -0.1439  2.4931  0.1797
  187SLPC   C1521502   2.801   4.128   6.373 -0.4613  0.0675 -0.3548
  187SLPC  H15A21503   2.745   4.194   6.438  0.4537 -0.2395  0.7657
  187SLPC  H15B21504   2.767   4.154   6.274 -2.0336  0.3241  0.2344
  187SLPC  H15C21505   2.775   4.024   6.388  0.5808  0.0002  1.1642
  187SLPC   C1221506   2.995   4.096   6.521  0.0548 -0.0991  0.6265
  187SLPC  H12A21507   2.964   4.164   6.600  1.6502  1.0332  0.2882
  187SLPC  H12B21508   3.102   4.108   6.517  0.1723 -1.0299  0.8405
  187SLPC   C1121509   2.955   3.954   6.561 -0.5240  0.1005 -0.4183
  187SLPC  H11A21510   2.844   3.954   6.566 -0.4507  0.4272  1.5742
  187SLPC  H11B21511   2.986   3.938   6.666  0.5873 -0.0839 -0.7647
  187SLPC     P21512   3.140   3.769   6.500  0.0861 -0.1316 -0.2876
  187SLPC   O1321513   3.182   3.722   6.365  0.2360  0.3170  0.9648
  187SLPC   O1421514   3.240   3.840   6.580  0.7185  0.1564  0.7106
  187SLPC   O1221515   3.006   3.854   6.471 -0.0202 -0.6657  0.0652
  187SLPC   O1121516   3.102   3.631   6.577  0.3654  0.5486  0.1742
  187SLPC    C121517   2.973   3.589   6.622 -0.3258  0.2739  0.8677
  187SLPC    HA21518   2.937   3.637   6.715 -0.8587  1.2186  0.1836
  187SLPC    HB21519   2.888   3.600   6.551 -0.2745 -2.2378  0.3624
  187SLPC    C221520   2.966   3.441   6.666 -0.8733  0.5413 -0.4057
  187SLPC    HS21521   2.860   3.407   6.667 -0.4455 -0.8243  1.5723
  187SLPC   O2121522   3.014   3.421   6.800  0.0075 -0.2701 -0.1082
  187SLPC   C2121523   2.924   3.463   6.897 -0.5046  0.2125  0.1307
  187SLPC   O2221524   2.814   3.508   6.877  0.1445  0.0110 -0.0735
  187SLPC   C2221525   2.986   3.433   7.026  0.6083 -1.4089 -0.0711
  187SLPC   H2R21526   3.050   3.342   7.023 -0.1197 -1.9385  0.3634
  187SLPC   H2S21527   3.054   3.518   7.049  1.1983 -2.1924  1.1685
  187SLPC    C321528   3.052   3.360   6.562  0.4326 -0.3780  0.3286
  187SLPC    HX21529   3.155   3.402   6.568  0.2119  0.0690  1.0787
  187SLPC    HY21530   3.016   3.372   6.458  0.9115 -1.9956 -0.0437
  187SLPC   O3121531   3.054   3.223   6.612 -0.3494  0.3953 -0.4536
  187SLPC   C3121532   3.132   3.140   6.541 -0.5699 -0.3299 -0.5785
  187SLPC   O3221533   3.211   3.178   6.455 -0.1383  0.0332 -0.0255
  187SLPC   C3221534   3.121   3.000   6.597  0.3498 -0.2872 -0.5527
  187SLPC   H2X21535   3.142   2.925   6.518  0.1595 -0.0680 -0.8126
  187SLPC   H2Y21536   3.019   2.972   6.629  0.5616 -0.0339  0.3463
  187SLPC   C2321537   2.885   3.442   7.144 -0.6063 -0.0803 -0.6354
  187SLPC   H3R21538   2.799   3.375   7.120 -0.9359 -0.2552  0.9366
  187SLPC   H3S21539   2.836   3.540   7.164 -0.7753  0.0266 -1.5806
  187SLPC   C2421540   2.942   3.403   7.281  0.2566  0.3637 -0.1070
  187SLPC   H4R21541   3.020   3.478   7.303  0.6543  0.3171 -1.3300
  187SLPC   H4S21542   2.990   3.304   7.274  0.8438  0.3898  2.9811
  187SLPC   C2521543   2.844   3.407   7.403  0.3708  0.5595 -0.3612
  187SLPC   H5R21544   2.766   3.331   7.380  1.1263  0.4055 -2.4914
  187SLPC   H5S21545   2.794   3.506   7.412  2.4812  1.9664 -3.2926
  187SLPC   C2621546   2.914   3.384   7.536  0.1892 -0.6360  0.0206
  187SLPC   H6R21547   3.000   3.452   7.555 -0.1392 -0.4959  1.0086
  187SLPC   H6S21548   2.948   3.278   7.529 -1.0143 -0.9609 -1.1052
  187SLPC   C2721549   2.812   3.402   7.650 -0.2352  0.2257  0.0915
  187SLPC   H7R21550   2.720   3.344   7.628 -0.4350  0.6944 -0.3191
  187SLPC   H7S21551   2.777   3.508   7.660  0.7312  0.2770  3.7752
  187SLPC   C2821552   2.856   3.350   7.791 -0.2299  0.1171  1.1212
  187SLPC   H8R21553   2.886   3.244   7.773 -1.7692 -0.3209  1.0919
  187SLPC   H8S21554   2.769   3.351   7.859  0.1603  1.1913  1.6137
  187SLPC   C2921555   2.962   3.429   7.865 -0.2183  0.4632  0.1588
  187SLPC   H9R21556   3.025   3.494   7.801  1.1148 -1.0222 -0.0688
  187SLPC  C21021557   2.975   3.432   8.000 -0.5497 -0.0859  0.3195
  187SLPC  H10R21558   3.045   3.508   8.037  0.5069 -0.9432  0.1190
  187SLPC  C21121559   2.907   3.361   8.113  0.5925  0.2242 -0.3981
  187SLPC  H11R21560   2.805   3.322   8.090  0.2080  1.3623 -0.6594
  187SLPC  H11S21561   2.896   3.428   8.200 -0.9407 -0.7246  0.1628
  187SLPC  C21221562   2.992   3.255   8.182  0.7459 -0.1843  0.3906
  187SLPC  H12R21563   2.988   3.163   8.123 -0.9844 -0.7490  1.3538
  187SLPC  C21321564   3.064   3.257   8.298  0.1030  0.1598 -0.6288
  187SLPC  H13R21565   3.107   3.166   8.342 -0.0558  0.6143  0.4928
  187SLPC  C21421566   3.083   3.374   8.387  0.2663 -0.0392  0.2650
  187SLPC  H14R21567   3.037   3.348   8.485  0.9512 -0.9007  0.3619
  187SLPC  H14S21568   3.036   3.466   8.345  0.9893 -0.2647 -1.0701
  187SLPC  C21521569   3.228   3.395   8.408 -0.4195 -1.1153  0.9577
  187SLPC  H15R21570   3.282   3.308   8.451  0.8638  0.1746  2.0504
  187SLPC  H15S21571   3.232   3.474   8.487  0.7922  0.6256 -0.7924
  187SLPC  C21621572   3.296   3.447   8.287 -0.4860  0.2648 -0.0260
  187SLPC  H16R21573   3.276   3.392   8.193  0.4170  0.8533 -0.5753
  187SLPC  H16S21574   3.403   3.448   8.316 -0.7125 -0.0682  0.8165
  187SLPC  C21721575   3.266   3.595   8.256  0.5417 -0.0057 -0.0762
  187SLPC  H17R21576   3.266   3.656   8.349 -1.0997 -0.2335  0.0832
  187SLPC  H17S21577   3.163   3.612   8.219  0.2484 -0.1503  0.6775
  187SLPC  C21821578   3.367   3.664   8.161 -0.6895 -1.2219  0.2703
  187SLPC  H18R21579   3.361   3.631   8.055  0.5514 -0.6729  0.0129
  187SLPC  H18S21580   3.468   3.649   8.205 -0.4360 -0.6819 -0.1133
  187SLPC  H18T21581   3.352   3.774   8.158  0.3776 -1.0126  1.9313
  187SLPC   C3321582   3.233   2.974   6.711 -0.4491 -0.0850  0.1191
  187SLPC   H3X21583   3.337   3.001   6.682 -0.0609  0.7852  2.1999
  187SLPC   H3Y21584   3.224   2.863   6.712 -0.3989 -0.0901 -0.1047
  187SLPC   C3421585   3.196   3.025   6.853 -0.4106  0.1088 -0.0487
  187SLPC   H4X21586   3.099   2.985   6.890  0.1971 -0.1838  1.2301
  187SLPC   H4Y21587   3.184   3.135   6.857 -1.0586 -0.0229  2.3648
  187SLPC   C3521588   3.293   2.973   6.960  0.0057  0.0116 -0.4175
  187SLPC   H5X21589   3.390   3.027   6.959 -0.1775  0.3466 -0.1431
  187SLPC   H5Y21590   3.321   2.869   6.931 -2.0568 -0.8747  0.6912
  187SLPC   C3621591   3.228   2.978   7.096  0.2909  0.0218 -0.0931
  187SLPC   H6X21592   3.127   2.933   7.080  1.3993 -1.7560 -2.2944
  187SLPC   H6Y21593   3.209   3.084   7.126 -1.2975 -0.3923  0.4196
  187SLPC   C3721594   3.307   2.909   7.213  0.0155 -0.1919 -0.5041
  187SLPC   H7X21595   3.347   2.813   7.174 -0.3325 -0.3265 -0.5280
  187SLPC   H7Y21596   3.398   2.971   7.227  0.2086  0.2018 -3.2332
  187SLPC   C3821597   3.225   2.889   7.336 -0.6073  0.4511  0.7055
  187SLPC   H8X21598   3.137   2.827   7.308 -0.0345  0.3528 -0.8970
  187SLPC   H8Y21599   3.185   2.980   7.386 -0.2004  0.0451  1.7913
  187SLPC   C3921600   3.305   2.813   7.449 -0.3181  0.2523 -0.5661
  187SLPC   H9X21601   3.382   2.879   7.493  0.5363 -1.4884  0.5868
  187SLPC   H9Y21602   3.364   2.729   7.408  1.3213  1.4175 -0.6546
  187SLPC  C31021603   3.231   2.759   7.570  0.6723 -0.6000  0.0091
  187SLPC  H10X21604   3.165   2.671   7.553 -0.5899 -0.1064  2.2261
  187SLPC  H10Y21605   3.164   2.840   7.606  0.2576 -2.0627  2.6005
  187SLPC  C31121606   3.319   2.720   7.690 -0.0682  0.8461  0.4326
  187SLPC  H11X21607   3.387   2.808   7.687  0.2603  0.5523 -1.2176
  187SLPC  H11Y21608   3.381   2.630   7.673 -0.7074  0.2457  1.2586
  187SLPC  C31221609   3.242   2.703   7.824 -0.1021 -0.6407 -0.3787
  187SLPC  H12X21610   3.156   2.635   7.808  0.3517 -1.4120  0.4818
  187SLPC  H12Y21611   3.207   2.805   7.853  2.4086  0.0953  0.1715
  187SLPC  C31321612   3.336   2.658   7.932 -0.7347 -0.1509  0.6086
  187SLPC  H13X21613   3.418   2.733   7.930 -0.0309 -0.9204  0.1679
  187SLPC  H13Y21614   3.378   2.563   7.892 -0.2696  0.0204  0.6807
  187SLPC  C31421615   3.265   2.644   8.065 -0.4721  0.2173 -0.2890
  187SLPC  H14X21616   3.169   2.589   8.058  0.3615 -1.4732  1.1406
  187SLPC  H14Y21617   3.235   2.744   8.105 -0.7565  0.7239 -1.7026
  187SLPC  C31521618   3.350   2.591   8.176 -0.2809 -0.2316  0.0435
  187SLPC  H15X21619   3.417   2.678   8.198  0.4323 -1.3046  2.2164
  187SLPC  H15Y21620   3.401   2.500   8.138  0.3304  0.2260 -0.2617
  187SLPC  C31621621   3.276   2.561   8.306  0.0190  0.9130  0.5187
  187SLPC  H16X21622   3.212   2.473   8.283  0.2343  1.0606 -0.6975
  187SLPC  H16Y21623   3.213   2.651   8.323 -1.7922 -0.6214  2.1430
  187SLPC  C31721624   3.358   2.544   8.428 -0.5798  0.0284  0.1403
  187SLPC  H17X21625   3.290   2.517   8.511  0.5068  1.2436  1.4526
  187SLPC  H17Y21626   3.404   2.639   8.464 -1.7663  0.6457  0.0311
  187SLPC  C31821627   3.476   2.448   8.413  0.6057 -0.0782  0.1018
  187SLPC  H18X21628   3.526   2.433   8.512  1.9028  3.3775  0.0275
  187SLPC  H18Y21629   3.548   2.485   8.337 -1.5068 -1.2626 -2.5345
  187SLPC  H18Z21630   3.432   2.351   8.382 -0.8913  0.4151  0.6426
  188SLPC     N21631   3.156   5.048   6.419  0.0645 -0.2318 -0.3376
  188SLPC   C1321632   3.223   4.935   6.352 -0.3005 -0.3554 -0.4435
  188SLPC  H13A21633   3.329   4.954   6.344 -0.0040 -1.0893  1.4059
  188SLPC  H13B21634   3.215   4.838   6.401 -2.7015  0.1606  0.2622
  188SLPC  H13C21635   3.186   4.922   6.251  0.8608 -0.2443 -0.8918
  188SLPC   C1421636   3.009   5.012   6.446 -0.3879  0.3195 -0.3093
  188SLPC  H14A21637   2.961   5.002   6.349  0.6238  1.2433 -0.9075
  188SLPC  H14B21638   3.011   4.928   6.514  1.3169 -2.0584 -3.1286
  188SLPC  H14C21639   2.968   5.098   6.496  0.4538 -0.1615  1.2396
  188SLPC   C1521640   3.175   5.167   6.328 -0.0079  1.3214  0.0674
  188SLPC  H15A21641   3.271   5.176   6.280 -0.3020 -1.1781 -1.0468
  188SLPC  H15B21642   3.104   5.176   6.247  0.3199  0.2257 -0.3472
  188SLPC  H15C21643   3.160   5.256   6.388 -0.3734  0.9987  0.4625
  188SLPC   C1221644   3.231   5.077   6.551 -0.2239  0.1647  0.4405
  188SLPC  H12A21645   3.164   5.150   6.594 -0.7338  0.7291 -1.2613
  188SLPC  H12B21646   3.327   5.123   6.535  0.6660 -1.4289  1.0310
  188SLPC   C1121647   3.254   4.970   6.661 -0.2227  0.4183  0.4395
  188SLPC  H11A21648   3.161   4.912   6.677 -1.2791  1.7061 -0.8103
  188SLPC  H11B21649   3.286   5.011   6.759 -0.6116  0.3963  0.5749
  188SLPC     P21650   3.492   4.915   6.598 -0.0248 -0.4524  0.0404
  188SLPC   O1321651   3.569   4.794   6.562 -0.9362 -0.1296 -0.0519
  188SLPC   O1421652   3.500   5.031   6.507  0.4189  0.1348 -0.4893
  188SLPC   O1221653   3.338   4.874   6.605  0.3173 -0.4983  0.2928
  188SLPC   O1121654   3.523   4.955   6.748 -0.1734  0.1240 -0.2063
  188SLPC    C121655   3.471   4.874   6.857 -0.6794  0.1280  0.4304
  188SLPC    HA21656   3.387   4.925   6.909 -1.4535 -0.5497 -0.1404
  188SLPC    HB21657   3.433   4.775   6.825 -0.2681  0.1216 -0.0438
  188SLPC    C221658   3.592   4.844   6.961  0.1380 -0.3966  0.4130
  188SLPC    HS21659   3.561   4.750   7.012 -1.8398 -2.0059 -3.6052
  188SLPC   O2121660   3.604   4.951   7.057 -0.6241 -0.0482 -0.8596
  188SLPC   C2121661   3.503   4.967   7.132  0.5757  1.1506  0.7039
  188SLPC   O2221662   3.410   4.887   7.136  0.9261  0.3259 -0.1873
  188SLPC   C2221663   3.513   5.099   7.211 -0.3666 -0.6970 -0.2732
  188SLPC   H2R21664   3.621   5.109   7.236 -0.8490  0.1317  1.6075
  188SLPC   H2S21665   3.489   5.189   7.151  2.3704  0.9122  0.9300
  188SLPC    C321666   3.731   4.824   6.891  0.2418 -0.1519 -0.0054
  188SLPC    HX21667   3.752   4.929   6.860  0.9383 -0.1586  0.4469
  188SLPC    HY21668   3.712   4.748   6.812  1.2344 -0.1578 -0.2406
  188SLPC   O3121669   3.833   4.782   6.981  0.1389  0.0368 -0.6236
  188SLPC   C3121670   3.946   4.767   6.915  0.0663  0.1616  0.0197
  188SLPC   O3221671   3.957   4.765   6.795 -0.0372  0.1042  0.1116
  188SLPC   C3221672   4.061   4.717   7.012 -0.2310  0.1736 -0.6220
  188SLPC   H2X21673   4.154   4.732   6.953  1.9493  0.2407  2.6790
  188SLPC   H2Y21674   4.045   4.608   7.008  2.6867 -0.3349  0.6944
  188SLPC   C2321675   3.439   5.091   7.347  0.1757  0.3238  0.3792
  188SLPC   H3R21676   3.334   5.063   7.324  0.0816  1.4389 -0.5875
  188SLPC   H3S21677   3.434   5.190   7.396 -0.9804 -1.0319  3.0958
  188SLPC   C2421678   3.493   4.986   7.444  0.2642 -0.1436 -0.2136
  188SLPC   H4R21679   3.580   5.023   7.503 -2.0522  2.0916  1.9227
  188SLPC   H4S21680   3.508   4.891   7.388 -3.6575 -1.9053  1.5170
  188SLPC   C2521681   3.391   4.959   7.550  0.6846 -0.2932 -0.4099
  188SLPC   H5R21682   3.298   4.922   7.501  0.9536  2.1347 -2.8843
  188SLPC   H5S21683   3.370   5.064   7.580  1.3409  0.3100 -1.9989
  188SLPC   C2621684   3.445   4.878   7.668  0.1574  0.5859 -0.7873
  188SLPC   H6R21685   3.539   4.927   7.702  0.8337  0.2901 -2.2152
  188SLPC   H6S21686   3.474   4.777   7.632 -4.0480 -0.1625 -2.4611
  188SLPC   C2721687   3.350   4.868   7.787  0.6844 -0.5617  0.4278
  188SLPC   H7R21688   3.269   4.794   7.768  0.1715  0.2713 -0.6720
  188SLPC   H7S21689   3.294   4.964   7.787  0.3137 -0.7644  1.6317
  188SLPC   C2821690   3.417   4.866   7.924 -0.4365  0.2457 -0.0222
  188SLPC   H8R21691   3.499   4.792   7.915  0.6303  1.2554  1.1314
  188SLPC   H8S21692   3.341   4.821   7.991 -0.1197  1.4493  1.1791
  188SLPC   C2921693   3.485   4.994   7.972  0.0318 -0.2263  0.6589
  188SLPC   H9R21694   3.567   5.030   7.908  0.4446 -1.1646  0.6634
  188SLPC  C21021695   3.454   5.071   8.081 -0.5421 -0.4751 -0.0198
  188SLPC  H10R21696   3.518   5.158   8.103 -1.0679 -0.2431  0.6009
  188SLPC  C21121697   3.345   5.043   8.180  0.1239 -0.1570  0.7958
  188SLPC  H11R21698   3.361   4.949   8.238 -1.2157 -1.5270 -0.9925
  188SLPC  H11S21699   3.261   4.997   8.123  0.3293 -0.3067  0.6147
  188SLPC  C21221700   3.281   5.142   8.270 -0.2928 -0.8357 -0.1280
  188SLPC  H12R21701   3.210   5.211   8.223 -1.0388  0.1938  2.3807
  188SLPC  C21321702   3.301   5.167   8.402  0.3256  0.0826  1.0210
  188SLPC  H13R21703   3.233   5.240   8.449  2.6278  1.8752  1.6594
  188SLPC  C21421704   3.403   5.102   8.490 -0.1804  0.5240  0.3751
  188SLPC  H14R21705   3.473   5.168   8.546  2.0944 -0.5210 -1.1488
  188SLPC  H14S21706   3.474   5.044   8.426 -0.5442  0.7987 -0.2784
  188SLPC  C21521707   3.328   4.995   8.573 -0.2518  0.0757 -0.1982
  188SLPC  H15R21708   3.253   5.046   8.637  0.0928  1.7497 -1.0846
  188SLPC  H15S21709   3.398   4.959   8.651 -1.3442 -0.9368  0.3191
  188SLPC  C21621710   3.266   4.881   8.499  0.7324 -0.0660 -0.1340
  188SLPC  H16R21711   3.343   4.833   8.435  1.9078  0.1876  1.0451
  188SLPC  H16S21712   3.188   4.936   8.443 -1.4072 -1.7233  1.1283
  188SLPC  C21721713   3.183   4.790   8.587 -0.0957  0.4242  0.4240
  188SLPC  H17R21714   3.132   4.723   8.514 -0.7106  0.2250  1.0301
  188SLPC  H17S21715   3.109   4.840   8.652 -2.6883  0.3157 -2.3350
  188SLPC  C21821716   3.275   4.713   8.685  0.0753 -0.1948 -0.2861
  188SLPC  H18R21717   3.328   4.776   8.760 -1.8575  0.5398  0.5005
  188SLPC  H18S21718   3.352   4.649   8.638  1.3490  2.0331 -1.2814
  188SLPC  H18T21719   3.203   4.649   8.741 -1.2586  0.0649 -1.6645
  188SLPC   C3321720   4.059   4.772   7.155 -0.1126  0.7393  0.4119
  188SLPC   H3X21721   3.955   4.804   7.178  0.7838  3.9584  0.3222
  188SLPC   H3Y21722   4.130   4.857   7.165 -0.6967  1.1473  1.1608
  188SLPC   C3421723   4.097   4.656   7.255  0.6699  0.1247 -0.1960
  188SLPC   H4X21724   4.164   4.593   7.193 -0.9165 -1.3341 -0.4797
  188SLPC   H4Y21725   4.003   4.600   7.275 -0.5658  2.0977 -0.2942
  188SLPC   C3521726   4.161   4.702   7.385 -0.3500 -0.2967  0.2253
  188SLPC   H5X21727   4.252   4.765   7.370 -1.3540  0.5437 -2.6938
  188SLPC   H5Y21728   4.195   4.616   7.445 -0.7295 -0.4084  0.2795
  188SLPC   C3621729   4.066   4.779   7.472  0.0544 -0.2856  0.1664
  188SLPC   H6X21730   4.017   4.857   7.410 -0.0103 -0.3383  0.1502
  188SLPC   H6Y21731   4.118   4.823   7.559  1.5585 -4.1637  1.3467
  188SLPC   C3721732   3.943   4.694   7.524  0.0648  0.5803  0.7755
  188SLPC   H7X21733   3.887   4.663   7.433  2.0192  1.1280 -0.6432
  188SLPC   H7Y21734   3.878   4.760   7.585 -0.1566  0.4929  0.6355
  188SLPC   C3821735   3.981   4.572   7.611  0.1894 -0.9436 -0.6915
  188SLPC   H8X21736   4.044   4.504   7.550  2.2944  0.7604 -0.5097
  188SLPC   H8Y21737   3.894   4.509   7.638  1.2831 -1.6707  1.2431
  188SLPC   C3921738   4.056   4.610   7.742  0.2736 -0.3367 -0.0185
  188SLPC   H9X21739   4.148   4.662   7.707 -0.2661  0.9595  0.4777
  188SLPC   H9Y21740   4.079   4.514   7.793  2.2242  0.3728  0.4960
  188SLPC  C31021741   3.984   4.718   7.826 -0.5384  0.1935 -0.0470
  188SLPC  H10X21742   3.881   4.677   7.839 -0.7728  0.6811 -0.3930
  188SLPC  H10Y21743   3.982   4.810   7.765  1.7293  0.1691 -0.2033
  188SLPC  C31121744   4.052   4.753   7.958 -0.0404 -0.6400  0.0246
  188SLPC  H11X21745   4.156   4.781   7.932 -0.1350 -0.2820  0.0335
  188SLPC  H11Y21746   4.059   4.662   8.022  0.9676 -0.3907  0.2667
  188SLPC  C31221747   3.983   4.851   8.051 -0.0381  0.1579 -0.3699
  188SLPC  H12X21748   4.049   4.876   8.137 -0.1839  0.4455 -0.3397
  188SLPC  H12Y21749   3.883   4.809   8.076  0.4434  0.0877  1.5240
  188SLPC  C31321750   3.959   4.985   7.982  0.2999 -0.5433 -0.9429
  188SLPC  H13X21751   3.897   4.981   7.889 -0.5669  0.4607 -0.4140
  188SLPC  H13Y21752   4.050   5.043   7.959 -0.7622  2.0510  1.2213
  188SLPC  C31421753   3.876   5.088   8.068 -0.7171  0.3258  0.1785
  188SLPC  H14X21754   3.931   5.129   8.156 -1.6716 -1.1804  1.5085
  188SLPC  H14Y21755   3.793   5.029   8.111 -0.5898 -1.1718 -1.5721
  188SLPC  C31521756   3.825   5.203   7.983 -0.3880  0.1339 -0.6970
  188SLPC  H15X21757   3.764   5.269   8.049 -1.3804  0.2804 -1.7600
  188SLPC  H15Y21758   3.758   5.149   7.914 -0.6394  0.3689 -0.6379
  188SLPC  C31621759   3.937   5.283   7.911  0.2863 -0.3662  0.0076
  188SLPC  H16X21760   3.971   5.240   7.814  1.3018 -1.1022  0.6881
  188SLPC  H16Y21761   4.021   5.284   7.984 -1.2868 -1.0906  1.8799
  188SLPC  C31721762   3.892   5.429   7.883 -0.7844 -0.1832  0.5088
  188SLPC  H17X21763   3.862   5.481   7.977 -0.6032  0.0001  0.4665
  188SLPC  H17Y21764   3.805   5.439   7.815 -0.3908  0.2008  0.0632
  188SLPC  C31821765   4.009   5.526   7.831  0.1432  0.1247  0.2242
  188SLPC  H18X21766   4.047   5.495   7.731 -1.2303  1.3557 -0.6983
  188SLPC  H18Y21767   4.094   5.517   7.901  0.1086 -1.0476  0.1216
  188SLPC  H18Z21768   3.974   5.631   7.823 -1.1450 -0.4059 -1.5496
  189SLPC     N21769   5.314   6.559   6.084 -0.4285  0.0441 -0.4315
  189SLPC   C1321770   5.201   6.648   6.055 -0.1229 -0.6952  0.0488
  189SLPC  H13A21771   5.122   6.594   6.005 -2.0152 -0.2487  2.5356
  189SLPC  H13B21772   5.161   6.701   6.139  1.2787  0.9544 -0.2777
  189SLPC  H13C21773   5.230   6.723   5.983  1.1161  0.1531  1.3997
  189SLPC   C1421774   5.429   6.642   6.142 -0.2412  0.0841  0.0455
  189SLPC  H14A21775   5.517   6.579   6.143 -1.5649 -1.8484  2.3689
  189SLPC  H14B21776   5.460   6.726   6.082 -1.1453  0.2525 -0.1891
  189SLPC  H14C21777   5.415   6.675   6.244 -1.8228  1.4459 -0.5915
  189SLPC   C1521778   5.369   6.510   5.952  0.3017 -0.5079  0.2400
  189SLPC  H15A21779   5.299   6.442   5.905 -2.0860  1.5848  0.6443
  189SLPC  H15B21780   5.363   6.592   5.882  0.2285  0.0365  0.8819
  189SLPC  H15C21781   5.464   6.460   5.960  0.3207 -0.6572 -0.8549
  189SLPC   C1221782   5.284   6.444   6.176 -0.1152 -0.5034 -0.2479
  189SLPC  H12A21783   5.277   6.485   6.276  0.3476  1.1917 -0.8946
  189SLPC  H12B21784   5.364   6.371   6.166 -0.6050 -1.4404  2.2486
  189SLPC   C1121785   5.148   6.375   6.155  0.4540  0.4671  0.5885
  189SLPC  H11A21786   5.147   6.320   6.058  0.6620  3.1278 -0.9912
  189SLPC  H11B21787   5.060   6.441   6.142  1.9303  2.3768  0.0617
  189SLPC     P21788   5.198   6.164   6.307 -0.4126  0.4943  0.4890
  189SLPC   O1321789   5.093   6.067   6.335 -0.1244 -0.7303 -0.1780
  189SLPC   O1421790   5.297   6.139   6.202  0.7266 -0.1430 -0.0701
  189SLPC   O1221791   5.114   6.290   6.271 -0.3497  0.4546  0.0403
  189SLPC   O1121792   5.274   6.186   6.439 -0.2102 -0.3088 -0.1422
  189SLPC    C121793   5.240   6.290   6.528 -0.0096 -0.1245 -0.5660
  189SLPC    HA21794   5.294   6.385   6.510 -0.8390  0.8251  1.6786
  189SLPC    HB21795   5.132   6.314   6.538  0.1070  0.0661  0.3327
  189SLPC    C221796   5.285   6.272   6.677 -0.1249 -0.0602 -0.6296
  189SLPC    HS21797   5.258   6.366   6.730  1.0394 -1.1910  2.0160
  189SLPC   O2121798   5.422   6.226   6.694  0.7377 -0.7399 -0.5005
  189SLPC   C2121799   5.506   6.329   6.681  0.6436  0.4207 -0.2449
  189SLPC   O2221800   5.477   6.438   6.638 -0.2952 -0.2329  0.6605
  189SLPC   C2221801   5.642   6.273   6.728  0.0070 -0.0368 -0.0046
  189SLPC   H2R21802   5.624   6.175   6.778  0.3272 -0.5149 -0.8022
  189SLPC   H2S21803   5.699   6.238   6.639  0.4613  0.8032 -0.0492
  189SLPC    C321804   5.189   6.173   6.749 -0.0953 -0.0053  0.0118
  189SLPC    HX21805   5.204   6.072   6.704  0.2920 -0.5031  1.2436
  189SLPC    HY21806   5.091   6.218   6.722  0.6559  0.6171 -1.7882
  189SLPC   O3121807   5.214   6.187   6.898  0.3491 -0.4845 -0.2955
  189SLPC   C3121808   5.276   6.088   6.948  0.0146 -1.3070 -0.3730
  189SLPC   O3221809   5.330   5.994   6.889  0.0754 -0.2657  0.3554
  189SLPC   C3221810   5.266   6.092   7.098 -0.0076  0.2127  0.6290
  189SLPC   H2X21811   5.200   6.006   7.119 -0.0977 -0.3261 -1.7230
  189SLPC   H2Y21812   5.218   6.187   7.128  0.6007  0.5198  0.6516
  189SLPC   C2321813   5.723   6.362   6.830  0.3156 -0.3921 -0.2943
  189SLPC   H3R21814   5.685   6.465   6.844  1.8007  0.2894 -1.1145
  189SLPC   H3S21815   5.831   6.365   6.804  0.8294 -2.8799  1.2989
  189SLPC   C2421816   5.717   6.287   6.968  0.2716  0.6775  0.1143
  189SLPC   H4R21817   5.757   6.184   6.957  0.0464  0.5056  0.9092
  189SLPC   H4S21818   5.613   6.293   7.006 -0.1314  1.8667 -1.1424
  189SLPC   C2521819   5.805   6.357   7.080  0.4497 -0.2365  0.0700
  189SLPC   H5R21820   5.763   6.456   7.106 -0.2179 -0.4794 -0.0495
  189SLPC   H5S21821   5.900   6.382   7.028  0.4933  2.9124  1.5855
  189SLPC   C2621822   5.840   6.268   7.203  1.1493  0.0688 -0.7803
  189SLPC   H6R21823   5.914   6.308   7.275  0.1481 -2.0697  1.5207
  189SLPC   H6S21824   5.883   6.173   7.166 -0.8545 -1.9719  1.9184
  189SLPC   C2721825   5.716   6.230   7.291 -0.9137 -0.1748 -0.0407
  189SLPC   H7R21826   5.662   6.149   7.238 -1.7564  0.7307 -0.5780
  189SLPC   H7S21827   5.647   6.312   7.317 -0.5952  0.5274 -1.3624
  189SLPC   C2821828   5.755   6.186   7.435  0.2820  0.3742  0.4582
  189SLPC   H8R21829   5.810   6.090   7.442 -0.5481 -0.2306 -1.1277
  189SLPC   H8S21830   5.659   6.144   7.471  0.1160 -1.3395 -1.9292
  189SLPC   C2921831   5.808   6.296   7.530  0.2665  0.5766 -0.4745
  189SLPC   H9R21832   5.884   6.369   7.499 -0.5192  1.4438 -0.3731
  189SLPC  C21021833   5.767   6.309   7.655 -0.3353  0.1053  0.6695
  189SLPC  H10R21834   5.813   6.398   7.700  0.6981 -0.9534  1.7205
  189SLPC  C21121835   5.665   6.231   7.736 -0.1073 -0.3393 -0.6617
  189SLPC  H11R21836   5.716   6.149   7.791 -0.3711 -0.4642 -0.6008
  189SLPC  H11S21837   5.595   6.170   7.676 -2.1727 -0.7383  2.0467
  189SLPC  C21221838   5.587   6.316   7.842 -0.5259 -0.8556  0.8307
  189SLPC  H12R21839   5.553   6.406   7.788 -2.3726 -1.3216  1.1668
  189SLPC  C21321840   5.564   6.294   7.977 -0.2249 -0.2998 -0.2644
  189SLPC  H13R21841   5.500   6.360   8.038 -0.5137  0.3561 -1.2579
  189SLPC  C21421842   5.596   6.173   8.060  0.0454  0.1610 -0.1330
  189SLPC  H14R21843   5.679   6.121   8.007 -0.4375 -1.0849  0.3128
  189SLPC  H14S21844   5.510   6.104   8.054 -0.9671  1.4279 -0.2968
  189SLPC  C21521845   5.636   6.198   8.207  0.4213  0.0390  0.1757
  189SLPC  H15R21846   5.704   6.285   8.204  0.0310  0.3153 -1.2554
  189SLPC  H15S21847   5.696   6.108   8.233  1.2851  0.7443  0.6531
  189SLPC  C21621848   5.511   6.210   8.297  0.0014 -0.8095  0.6342
  189SLPC  H16R21849   5.430   6.156   8.244  1.5969  2.0575 -5.0411
  189SLPC  H16S21850   5.483   6.317   8.300  1.0050 -0.5430  0.6248
  189SLPC  C21721851   5.539   6.164   8.438 -0.5911 -0.3420 -0.2694
  189SLPC  H17R21852   5.599   6.072   8.421  0.9425  0.6822 -0.3957
  189SLPC  H17S21853   5.448   6.141   8.499  0.7229  2.9909  3.1233
  189SLPC  C21821854   5.633   6.266   8.508 -0.6494  0.3783  0.7305
  189SLPC  H18R21855   5.732   6.280   8.458 -0.3823  4.8753  2.2366
  189SLPC  H18S21856   5.654   6.243   8.614 -1.9549  3.0398  1.6295
  189SLPC  H18T21857   5.586   6.367   8.509 -2.6907 -0.5705  1.6759
  189SLPC   C3321858   5.411   6.065   7.168 -0.7105 -0.0132 -0.6099
  189SLPC   H3X21859   5.475   6.154   7.146  2.0104 -1.3530  1.5777
  189SLPC   H3Y21860   5.453   5.974   7.121 -1.5171 -0.1586 -1.0614
  189SLPC   C3421861   5.389   6.050   7.320 -0.3106 -0.8915  0.2685
  189SLPC   H4X21862   5.491   6.058   7.363 -0.5962  1.5717  0.5381
  189SLPC   H4Y21863   5.341   5.951   7.335 -1.6632  0.0007  2.0726
  189SLPC   C3521864   5.299   6.148   7.391  0.0372  0.2325 -0.1880
  189SLPC   H5X21865   5.191   6.128   7.374 -0.0233  1.1605 -1.0181
  189SLPC   H5Y21866   5.312   6.250   7.349 -0.0279 -0.5063 -2.0429
  189SLPC   C3621867   5.330   6.149   7.544 -0.0847  0.7563  0.7383
  189SLPC   H6X21868   5.420   6.212   7.559  0.2761  0.5946 -0.6542
  189SLPC   H6Y21869   5.362   6.049   7.579  2.3858  0.0287 -3.2832
  189SLPC   C3721870   5.209   6.195   7.628  0.2723  0.0879 -0.1183
  189SLPC   H7X21871   5.116   6.137   7.615 -0.7452  0.9901  2.7065
  189SLPC   H7Y21872   5.192   6.300   7.595  2.6186  0.1089 -1.3442
  189SLPC   C3821873   5.240   6.177   7.773  1.1010 -0.5113 -1.3097
  189SLPC   H8X21874   5.333   6.233   7.792  2.7788 -2.6174 -3.0992
  189SLPC   H8Y21875   5.256   6.070   7.800 -2.3137 -0.8024 -0.0398
  189SLPC   C3921876   5.127   6.229   7.870  0.6816  0.6597  0.2254
  189SLPC   H9X21877   5.037   6.164   7.860  1.5987 -0.4002 -1.5037
  189SLPC   H9Y21878   5.088   6.316   7.814 -0.2701 -1.4276 -2.4662
  189SLPC  C31021879   5.174   6.266   8.011 -0.1644  0.2397  0.3268
  189SLPC  H10X21880   5.271   6.321   8.011 -0.1592  0.4913 -4.6584
  189SLPC  H10Y21881   5.188   6.171   8.066  1.4182 -0.1141 -0.6306
  189SLPC  C31121882   5.075   6.354   8.083  0.2930 -0.9589 -0.1486
  189SLPC  H11X21883   4.971   6.331   8.053  0.5339  0.6594 -2.2863
  189SLPC  H11Y21884   5.096   6.460   8.058 -0.9298 -0.0250  2.6204
  189SLPC  C31221885   5.093   6.353   8.241 -0.4891  0.1023  0.2834
  189SLPC  H12X21886   5.048   6.443   8.289 -1.2100  0.7027 -1.4884
  189SLPC  H12Y21887   5.203   6.356   8.258 -0.2635 -0.1443 -1.0657
  189SLPC  C31321888   5.034   6.219   8.306  0.5253 -0.4316  0.4665
  189SLPC  H13X21889   5.076   6.125   8.263 -0.6891 -1.3044  1.1616
  189SLPC  H13Y21890   4.923   6.221   8.299  0.5484 -0.6863 -0.0116
  189SLPC  C31421891   5.053   6.205   8.456 -0.4013 -0.4807 -0.2232
  189SLPC  H14X21892   5.012   6.290   8.514 -1.4967 -2.7284  2.3798
  189SLPC  H14Y21893   5.163   6.211   8.466 -0.0999 -1.7663 -2.4835
  189SLPC  C31521894   4.999   6.079   8.525  0.3675 -0.4012  0.5937
  189SLPC  H15X21895   5.049   5.995   8.472  1.3090 -0.4960  1.5942
  189SLPC  H15Y21896   4.888   6.086   8.520  0.4235  3.0127  2.4168
  189SLPC  C31621897   5.033   6.070   8.673  0.3355 -0.5659 -0.0555
  189SLPC  H16X21898   4.987   6.156   8.726  1.8882 -0.6497  1.4582
  189SLPC  H16Y21899   5.142   6.089   8.688  0.2884  1.9782 -2.5917
  189SLPC  C31721900   5.002   5.936   8.741 -0.1518  0.2995  0.0366
  189SLPC  H17X21901   5.067   5.910   8.828  2.6520  0.8705 -1.8227
  189SLPC  H17Y21902   5.013   5.855   8.666  0.0310  0.3962 -0.0408
  189SLPC  C31821903   4.856   5.932   8.789  0.9445  0.0930  0.1279
  189SLPC  H18X21904   4.825   5.825   8.788  2.0952 -0.2425  0.2510
  189SLPC  H18Y21905   4.779   5.979   8.724  1.4139 -0.2582 -0.6966
  189SLPC  H18Z21906   4.839   5.981   8.887 -1.6617 -0.5788  0.0457
  190SLPC     N21907   6.667   5.437   6.119 -0.4410  0.1955  0.0057
  190SLPC   C1321908   6.795   5.389   6.063  0.5984  0.6568  1.0996
  190SLPC  H13A21909   6.804   5.419   5.960  0.0656 -0.3248  0.7592
  190SLPC  H13B21910   6.887   5.420   6.110  0.8715 -0.0682  1.0507
  190SLPC  H13C21911   6.798   5.281   6.053 -1.1664  0.7738 -1.0520
  190SLPC   C1421912   6.550   5.392   6.035  1.2256 -0.0242  0.2599
  190SLPC  H14A21913   6.540   5.286   6.052 -0.7254  0.3148  1.3288
  190SLPC  H14B21914   6.462   5.438   6.077  0.5588 -0.1389 -0.9657
  190SLPC  H14C21915   6.564   5.405   5.928 -0.2549 -0.5403 -0.0110
  190SLPC   C1521916   6.655   5.586   6.118  0.0832 -0.1270  0.4306
  190SLPC  H15A21917   6.567   5.620   6.170 -0.7087  0.7507 -1.4391
  190SLPC  H15B21918   6.743   5.625   6.168 -0.1690  0.3534  0.4993
  190SLPC  H15C21919   6.661   5.629   6.019  0.8789  0.5313  0.7592
  190SLPC   C1221920   6.651   5.398   6.263 -0.2085 -0.2342  0.9123
  190SLPC  H12A21921   6.723   5.456   6.319 -0.8746 -0.3283  1.8836
  190SLPC  H12B21922   6.683   5.295   6.269 -0.4546 -0.4467 -1.2618
  190SLPC   C1121923   6.509   5.388   6.327 -0.8212 -0.3660  0.0070
  190SLPC  H11A21924   6.533   5.352   6.429  1.3275  1.5522  0.2220
  190SLPC  H11B21925   6.445   5.317   6.271 -1.3660 -0.3799  0.6386
  190SLPC     P21926   6.299   5.535   6.329  0.2950 -0.0795  0.3112
  190SLPC   O1321927   6.264   5.671   6.375  0.3159 -0.6203 -0.6508
  190SLPC   O1421928   6.254   5.498   6.192 -0.3617  0.0297 -0.7838
  190SLPC   O1221929   6.450   5.521   6.336 -0.5044  0.2305 -0.0971
  190SLPC   O1121930   6.246   5.431   6.426  0.4092 -0.7934  0.1949
  190SLPC    C121931   6.290   5.417   6.561 -0.3084  0.5494 -1.6289
  190SLPC    HA21932   6.329   5.317   6.586  0.4127  1.0856 -0.5467
  190SLPC    HB21933   6.368   5.486   6.601 -0.7354 -1.0426  2.1693
  190SLPC    C221934   6.164   5.422   6.654 -0.2694  0.0051  0.6091
  190SLPC    HS21935   6.109   5.517   6.637 -0.6993 -0.8994 -3.7128
  190SLPC   O2121936   6.209   5.392   6.788  0.1599 -0.0297  0.2882
  190SLPC   C2121937   6.136   5.451   6.879 -0.2180 -0.3147 -0.1341
  190SLPC   O2221938   6.049   5.527   6.865 -0.0780  0.1032 -0.1841
  190SLPC   C2221939   6.182   5.421   7.021  0.3603 -0.3706  0.0522
  190SLPC   H2R21940   6.162   5.312   7.032 -0.7589 -0.4281 -2.1799
  190SLPC   H2S21941   6.292   5.433   7.032  0.4574  2.7795 -3.3581
  190SLPC    C321942   6.052   5.325   6.611  0.2841  0.1331  0.5000
  190SLPC    HX21943   6.098   5.227   6.635  2.2319  0.3983 -2.0049
  190SLPC    HY21944   6.032   5.316   6.503  0.5911  1.0087  0.3668
  190SLPC   O3121945   5.928   5.330   6.691 -0.1211  0.3155  0.0734
  190SLPC   C3121946   5.832   5.388   6.629 -0.3361 -0.0014  0.1559
  190SLPC   O3221947   5.838   5.445   6.524 -0.1626 -0.3452 -0.3949
  190SLPC   C3221948   5.701   5.367   6.711 -0.4021 -0.4133  0.0558
  190SLPC   H2X21949   5.710   5.408   6.814  1.0843 -0.4746 -0.0413
  190SLPC   H2Y21950   5.679   5.260   6.731 -1.5160  0.1811  2.2533
  190SLPC   C2321951   6.103   5.500   7.135 -0.3719 -0.2595  0.2904
  190SLPC   H3R21952   5.995   5.476   7.126 -0.4140 -0.5284  1.4389
  190SLPC   H3S21953   6.108   5.611   7.126  0.9881 -0.2785  0.6574
  190SLPC   C2421954   6.160   5.463   7.270  0.1597 -0.7082  0.6075
  190SLPC   H4R21955   6.248   5.524   7.301 -0.8618  0.6684  0.8261
  190SLPC   H4S21956   6.208   5.364   7.258  0.6161 -0.2927 -1.1744
  190SLPC   C2521957   6.062   5.473   7.391 -0.3693  0.3899 -0.0230
  190SLPC   H5R21958   5.966   5.420   7.374 -0.3526 -0.5291  2.4944
  190SLPC   H5S21959   6.029   5.579   7.399  0.9016  0.8165 -0.2542
  190SLPC   C2621960   6.130   5.435   7.521 -0.2447 -0.0265  0.3276
  190SLPC   H6R21961   6.214   5.502   7.551  2.5186 -3.1163 -0.2365
  190SLPC   H6S21962   6.186   5.341   7.505  2.1934  1.1984  1.3384
  190SLPC   C2721963   6.029   5.431   7.631 -0.1883  0.0750 -0.2270
  190SLPC   H7R21964   6.083   5.368   7.704 -0.8477  0.4936  0.6228
  190SLPC   H7S21965   5.931   5.385   7.608 -0.4410  0.9460 -0.9353
  190SLPC   C2821966   6.017   5.572   7.697 -0.4858 -0.0583  0.3810
  190SLPC   H8R21967   5.966   5.633   7.620  0.1166 -0.7432 -0.5857
  190SLPC   H8S21968   6.117   5.618   7.712 -0.1518 -0.3707 -0.8152
  190SLPC   C2921969   5.937   5.580   7.825  0.7425  0.3688  0.0389
  190SLPC   H9R21970   5.831   5.602   7.809  0.5209  0.1297  1.1426
  190SLPC  C21021971   5.985   5.562   7.951 -0.2284 -0.4417 -0.1873
  190SLPC  H10R21972   5.910   5.580   8.030  0.6397 -0.7631  0.7261
  190SLPC  C21121973   6.124   5.537   7.992 -0.1436  0.0654 -0.5599
  190SLPC  H11R21974   6.168   5.474   7.912 -1.8515 -0.8737 -0.7804
  190SLPC  H11S21975   6.124   5.468   8.080  2.7643  1.7253  0.7911
  190SLPC  C21221976   6.196   5.667   8.025  0.8952  0.3062 -0.5265
  190SLPC  H12R21977   6.181   5.735   7.939 -0.9719 -1.3792 -1.5546
  190SLPC  C21321978   6.270   5.700   8.135 -0.4746 -0.3155 -0.9011
  190SLPC  H13R21979   6.308   5.803   8.145  0.1674 -0.6676  0.4677
  190SLPC  C21421980   6.307   5.614   8.257 -0.7521 -0.6025 -0.6915
  190SLPC  H14R21981   6.324   5.512   8.217  0.3963  0.8840 -4.2575
  190SLPC  H14S21982   6.225   5.611   8.331  0.7303 -2.8995  0.8851
  190SLPC  C21521983   6.442   5.646   8.321  0.0397 -0.4062 -0.0780
  190SLPC  H15R21984   6.443   5.747   8.367 -1.2107  0.0675 -1.0800
  190SLPC  H15S21985   6.522   5.649   8.244 -0.4626  3.8519 -0.5094
  190SLPC  C21621986   6.482   5.541   8.423  0.9108 -0.6842 -0.2831
  190SLPC  H16R21987   6.455   5.440   8.388  1.5859 -0.7781 -0.5394
  190SLPC  H16S21988   6.429   5.563   8.518 -0.4999  1.3782 -1.5113
  190SLPC  C21721989   6.628   5.527   8.464  0.2225  0.5732  0.0826
  190SLPC  H17R21990   6.679   5.526   8.366 -2.0622 -0.1900 -1.1413
  190SLPC  H17S21991   6.643   5.429   8.514  0.0192  0.1612 -0.6572
  190SLPC  C21821992   6.694   5.634   8.552 -0.9599 -0.4094 -0.1678
  190SLPC  H18R21993   6.680   5.734   8.504  1.5210 -0.7661 -1.7551
  190SLPC  H18S21994   6.800   5.607   8.572 -1.3173 -0.3111  1.9234
  190SLPC  H18T21995   6.645   5.642   8.651  0.2546 -1.4273  0.5293
  190SLPC   C3321996   5.572   5.429   6.643 -0.1041  0.9911  0.0796
  190SLPC   H3X21997   5.565   5.365   6.553  0.4404 -1.5133  1.7742
  190SLPC   H3Y21998   5.584   5.537   6.618  0.8237  0.6487 -0.9630
  190SLPC   C3421999   5.436   5.392   6.719 -0.1057 -0.5999  0.0929
  190SLPC   H4X22000   5.428   5.287   6.754 -0.2709 -0.1708  1.3829
  190SLPC   H4Y22001   5.344   5.424   6.666 -1.0205 -1.8826  0.8624
  190SLPC   C3522002   5.416   5.468   6.853 -0.1341  0.1789  1.0086
  190SLPC   H5X22003   5.402   5.576   6.831  0.1567  0.1826  0.8431
  190SLPC   H5Y22004   5.508   5.455   6.914  0.2251  0.0148  0.4319
  190SLPC   C3622005   5.304   5.403   6.939  0.5032 -0.1822  0.5702
  190SLPC   H6X22006   5.323   5.293   6.944 -0.5374 -0.4269 -0.7335
  190SLPC   H6Y22007   5.207   5.408   6.887 -0.1210 -0.4877  1.6903
  190SLPC   C3722008   5.298   5.450   7.087  0.1890  0.6664 -0.2985
  190SLPC   H7X22009   5.396   5.449   7.140 -0.5005  1.1535  1.0244
  190SLPC   H7Y22010   5.238   5.385   7.154 -0.7103  0.6163 -1.1581
  190SLPC   C3822011   5.244   5.591   7.078  0.3429  0.7932  0.0857
  190SLPC   H8X22012   5.141   5.584   7.036  0.3802  0.5960  0.0283
  190SLPC   H8Y22013   5.316   5.658   7.025  1.5972 -1.5865 -1.3389
  190SLPC   C3922014   5.242   5.659   7.221  0.3967 -0.0449  0.6073
  190SLPC   H9X22015   5.178   5.750   7.208 -1.4437 -1.2674  0.9434
  190SLPC   H9Y22016   5.344   5.696   7.245  0.2335  0.0861  1.1001
  190SLPC  C31022017   5.195   5.573   7.335 -0.5085  0.7576  0.0658
  190SLPC  H10X22018   5.265   5.489   7.353  0.8354  1.9304  0.3271
  190SLPC  H10Y22019   5.096   5.525   7.314 -0.1349 -1.2910  2.6918
  190SLPC  C31122020   5.167   5.656   7.461 -0.7186  0.4651  0.3919
  190SLPC  H11X22021   5.249   5.726   7.487  0.1256 -1.7291  4.0277
  190SLPC  H11Y22022   5.151   5.580   7.541 -1.4701 -1.0471 -1.1483
  190SLPC  C31222023   5.041   5.747   7.437 -0.1149  0.7045 -0.4595
  190SLPC  H12X22024   4.986   5.714   7.346 -0.8020  1.5174 -0.3437
  190SLPC  H12Y22025   5.087   5.843   7.404  1.9608 -0.9354 -2.5213
  190SLPC  C31322026   4.933   5.747   7.554 -0.3261  0.3002 -0.1862
  190SLPC  H13X22027   4.884   5.651   7.583 -1.6755  0.6423 -1.3095
  190SLPC  H13Y22028   4.850   5.812   7.519 -0.8384 -0.1978  0.1057
  190SLPC  C31422029   4.996   5.816   7.673  0.5040 -0.3422 -0.1996
  190SLPC  H14X22030   5.046   5.906   7.629 -1.7475  1.9450  1.7673
  190SLPC  H14Y22031   5.086   5.770   7.718  0.1240  0.8399  1.8125
  190SLPC  C31522032   4.900   5.845   7.793 -0.5293 -1.3786  0.5146
  190SLPC  H15X22033   4.801   5.873   7.751  0.7539  1.2894 -0.8839
  190SLPC  H15Y22034   4.936   5.936   7.846  0.4296 -1.6954  0.4105
  190SLPC  C31622035   4.887   5.729   7.892 -0.0338  0.1203  0.0156
  190SLPC  H16X22036   4.991   5.701   7.916  0.9207  2.3057 -1.3866
  190SLPC  H16Y22037   4.835   5.653   7.829 -0.8567 -0.6043  1.5402
  190SLPC  C31722038   4.795   5.759   8.008  0.5363  0.3502  0.1526
  190SLPC  H17X22039   4.766   5.662   8.052  0.8854  0.5481  0.8420
  190SLPC  H17Y22040   4.700   5.797   7.966  0.8760 -0.2068 -1.1425
  190SLPC  C31822041   4.838   5.853   8.111  0.8308  0.3272 -0.3795
  190SLPC  H18X22042   4.760   5.884   8.183 -0.6400  0.5994 -2.0693
  190SLPC  H18Y22043   4.872   5.947   8.060  0.0680 -0.3869 -2.2513
  190SLPC  H18Z22044   4.925   5.815   8.169 -0.2364 -0.8498  0.4545
  191SLPC     N22045   6.564   2.306   5.689  0.0359  0.0275 -0.3409
  191SLPC   C1322046   6.461   2.256   5.601 -0.4452 -0.0859 -0.4650
  191SLPC  H13A22047   6.379   2.325   5.599 -1.5439 -1.2198  2.2432
  191SLPC  H13B22048   6.492   2.249   5.498 -0.5881  1.0524 -0.5825
  191SLPC  H13C22049   6.416   2.166   5.641 -3.2821  0.4571 -2.3623
  191SLPC   C1422050   6.584   2.447   5.653  0.1265 -0.4298 -0.1548
  191SLPC  H14A22051   6.590   2.448   5.545 -3.5944 -0.8173 -0.4591
  191SLPC  H14B22052   6.495   2.501   5.683 -1.3677 -1.9889 -1.5866
  191SLPC  H14C22053   6.672   2.489   5.698 -0.4997  0.5979  0.1240
  191SLPC   C1522054   6.698   2.242   5.668  0.2401  0.4956  0.2810
  191SLPC  H15A22055   6.740   2.284   5.577  1.5418 -1.7736 -0.2145
  191SLPC  H15B22056   6.766   2.258   5.750 -0.9571  0.3690  1.2971
  191SLPC  H15C22057   6.689   2.136   5.650  3.9903  0.2918 -0.8760
  191SLPC   C1222058   6.530   2.290   5.838 -0.4351  0.7068  0.7086
  191SLPC  H12A22059   6.620   2.318   5.890  2.6067 -1.2615 -3.2436
  191SLPC  H12B22060   6.519   2.186   5.865  1.0664  0.5999  0.9445
  191SLPC   C1122061   6.399   2.363   5.884 -0.8329  0.4407  0.1269
  191SLPC  H11A22062   6.407   2.470   5.858  1.2775  0.6989  1.7170
  191SLPC  H11B22063   6.401   2.369   5.995 -2.1979 -0.8533  0.2379
  191SLPC     P22064   6.139   2.337   5.879  0.0029 -0.2441  0.3090
  191SLPC   O1322065   6.137   2.479   5.924  0.4038  0.2992  0.1703
  191SLPC   O1422066   6.045   2.303   5.772  0.1949  0.3901  0.1965
  191SLPC   O1222067   6.287   2.297   5.837  0.4770  0.7103 -0.5924
  191SLPC   O1122068   6.102   2.247   6.006 -0.1320  0.7547  0.6418
  191SLPC    C122069   6.165   2.121   6.035  1.3017 -0.1021 -0.3415
  191SLPC    HA22070   6.136   2.041   5.964  0.4314 -0.4537  0.3887
  191SLPC    HB22071   6.275   2.135   6.048  0.7051  2.1674  2.9859
  191SLPC    C222072   6.120   2.065   6.175 -1.1496 -0.3557 -0.2861
  191SLPC    HS22073   6.177   1.977   6.210  2.1528  1.7918 -0.1022
  191SLPC   O2122074   5.980   2.044   6.168  0.0423 -0.5709 -0.1963
  191SLPC   C2122075   5.928   1.945   6.242 -0.2400 -0.1393  0.2544
  191SLPC   O2222076   5.987   1.861   6.305  0.0084 -0.0344  0.3161
  191SLPC   C2222077   5.780   1.946   6.229 -0.1990 -0.4010 -0.1184
  191SLPC   H2R22078   5.745   2.042   6.271 -0.1474  0.6760 -2.4485
  191SLPC   H2S22079   5.747   1.936   6.123  0.1065 -1.8686 -0.0935
  191SLPC    C322080   6.143   2.176   6.282 -0.3137 -0.3832 -0.7100
  191SLPC    HX22081   6.077   2.256   6.243 -1.2608 -0.4503  0.7266
  191SLPC    HY22082   6.246   2.216   6.272 -0.1754 -1.1835 -2.9661
  191SLPC   O3122083   6.100   2.140   6.422  0.5692 -0.0615 -0.0428
  191SLPC   C3122084   6.168   2.046   6.475  0.2142  0.4233 -0.3056
  191SLPC   O3222085   6.279   2.014   6.435  0.5878  0.1723 -0.4495
  191SLPC   C3222086   6.092   1.992   6.595 -0.4029  0.3674 -0.5844
  191SLPC   H2X22087   6.001   1.943   6.554 -1.5172  1.4810  0.5246
  191SLPC   H2Y22088   6.071   2.083   6.655 -0.1224  1.8760 -2.7111
  191SLPC   C2322089   5.703   1.844   6.318  0.0702  0.3901  0.1040
  191SLPC   H3R22090   5.720   1.740   6.284  2.3534  0.3994  1.1457
  191SLPC   H3S22091   5.597   1.868   6.293  0.7737  1.7044 -1.7673
  191SLPC   C2422092   5.726   1.857   6.469 -0.4165  0.0205  0.6832
  191SLPC   H4R22093   5.746   1.964   6.494  3.0889 -0.2016 -0.9472
  191SLPC   H4S22094   5.814   1.794   6.496  0.3867 -0.7123 -3.3391
  191SLPC   C2522095   5.610   1.796   6.547 -0.5267 -0.4631 -0.5083
  191SLPC   H5R22096   5.596   1.688   6.524 -2.4584 -0.4428  0.4742
  191SLPC   H5S22097   5.514   1.843   6.515  0.6155  0.6467 -2.4049
  191SLPC   C2622098   5.620   1.796   6.702 -0.3740  0.4485  0.5297
  191SLPC   H6R22099   5.711   1.744   6.737 -0.8052 -1.5762 -1.2392
  191SLPC   H6S22100   5.537   1.735   6.746 -0.2296 -0.1310  0.0080
  191SLPC   C2722101   5.605   1.934   6.755  0.6602 -0.3840  0.3925
  191SLPC   H7R22102   5.519   1.993   6.716  1.2187 -0.7714 -1.4803
  191SLPC   H7S22103   5.676   2.009   6.712  0.3278 -0.8274 -0.9474
  191SLPC   C2822104   5.623   1.944   6.908  0.1978 -0.4891  0.0644
  191SLPC   H8R22105   5.612   2.053   6.930  1.0202 -0.2687 -0.5930
  191SLPC   H8S22106   5.728   1.915   6.927  0.0538  0.0869  1.8747
  191SLPC   C2922107   5.536   1.855   6.991  0.0438  0.0022  0.1408
  191SLPC   H9R22108   5.567   1.750   7.002  3.3032  0.5883 -2.6397
  191SLPC  C21022109   5.424   1.891   7.062  0.4317 -0.4584 -0.4704
  191SLPC  H10R22110   5.361   1.812   7.104 -1.0327  0.5648 -0.7022
  191SLPC  C21122111   5.365   2.031   7.075  0.3546 -0.8919  0.0326
  191SLPC  H11R22112   5.391   2.088   6.983  1.7855  0.5547  1.2940
  191SLPC  H11S22113   5.419   2.086   7.155  1.0551 -1.3035 -0.1484
  191SLPC  C21222114   5.222   2.039   7.103  0.8985 -0.2047 -0.3297
  191SLPC  H12R22115   5.165   2.049   7.009 -0.2309  0.3649  0.3914
  191SLPC  C21322116   5.161   2.034   7.225  0.0599  0.1529  0.1683
  191SLPC  H13R22117   5.052   2.037   7.231  0.0756 -0.7253  1.0640
  191SLPC  C21422118   5.244   2.032   7.343 -0.1530  0.2585 -0.7002
  191SLPC  H14R22119   5.321   2.112   7.339 -1.0313  1.1228 -0.6058
  191SLPC  H14S22120   5.294   1.933   7.352 -0.2419  0.0770 -2.1318
  191SLPC  C21522121   5.143   2.032   7.459  0.0588  0.3414 -0.1385
  191SLPC  H15R22122   5.078   1.943   7.447  0.5689 -0.3451  1.8548
  191SLPC  H15S22123   5.075   2.120   7.463  1.4360  1.3766  1.5308
  191SLPC  C21622124   5.192   2.056   7.600 -0.6425  0.3001  0.3808
  191SLPC  H16R22125   5.254   2.148   7.602  0.5957 -0.4656 -1.7347
  191SLPC  H16S22126   5.254   1.966   7.617  0.2734  0.6283 -1.0813
  191SLPC  C21722127   5.085   2.059   7.713  0.4576 -0.3569  0.1649
  191SLPC  H17R22128   5.000   2.101   7.654 -0.4074 -1.5080  0.5700
  191SLPC  H17S22129   5.130   2.105   7.803  1.3206 -2.6278  0.9298
  191SLPC  C21822130   5.046   1.921   7.749 -0.3662  0.0541  0.4978
  191SLPC  H18R22131   5.109   1.879   7.829 -0.1313  0.9067  0.7691
  191SLPC  H18S22132   5.059   1.868   7.652  1.4754  1.1071  0.1564
  191SLPC  H18T22133   4.938   1.905   7.773 -0.6831 -0.5480 -1.2111
  191SLPC   C3322134   6.166   1.884   6.671  0.0426  0.3554 -0.2584
  191SLPC   H3X22135   6.254   1.934   6.717  0.8245 -2.6280  1.6511
  191SLPC   H3Y22136   6.198   1.807   6.597  0.6048  2.0279 -1.7796
  191SLPC   C3422137   6.087   1.821   6.789 -1.1268 -0.5429  0.1660
  191SLPC   H4X22138   6.159   1.750   6.835  0.0081  0.4976  0.0147
  191SLPC   H4Y22139   6.000   1.764   6.749 -2.1056  0.7794  0.3752
  191SLPC   C3522140   6.036   1.926   6.890 -0.3224  0.4689  0.2301
  191SLPC   H5X22141   5.968   1.876   6.962  0.4366  0.2025  0.7721
  191SLPC   H5Y22142   5.977   2.009   6.846  0.4311 -1.1410 -4.0507
  191SLPC   C3622143   6.151   1.994   6.966 -0.2127  0.4552  0.9507
  191SLPC   H6X22144   6.245   2.009   6.909 -0.7232 -0.5810 -0.1948
  191SLPC   H6Y22145   6.191   1.912   7.029  1.8662 -0.9759 -2.1142
  191SLPC   C3722146   6.123   2.122   7.042  0.5678  0.5707  0.4027
  191SLPC   H7X22147   6.092   2.215   6.991  0.2764  1.1824  1.6942
  191SLPC   H7Y22148   6.223   2.151   7.080  2.0154 -0.9037 -2.0972
  191SLPC   C3822149   6.019   2.095   7.154  0.4658 -0.0967 -0.2767
  191SLPC   H8X22150   5.922   2.060   7.111 -0.8868 -0.2829  2.8332
  191SLPC   H8Y22151   5.982   2.185   7.208 -2.7076 -0.7609 -1.2229
  191SLPC   C3922152   6.056   1.984   7.251 -0.2000 -0.6483  0.0182
  191SLPC   H9X22153   6.138   2.021   7.316 -0.5021 -0.5228  0.3282
  191SLPC   H9Y22154   6.081   1.888   7.199 -0.3086  0.8154 -2.8507
  191SLPC  C31022155   5.947   1.955   7.361  0.4159 -0.2511 -0.5838
  191SLPC  H10X22156   5.968   1.861   7.415 -1.9918 -1.8488 -2.2854
  191SLPC  H10Y22157   5.859   1.944   7.294  0.8947 -1.7328 -0.9751
  191SLPC  C31122158   5.914   2.066   7.461 -0.1618  0.3708 -0.3118
  191SLPC  H11X22159   5.896   2.163   7.412  0.5359  0.6941  0.0547
  191SLPC  H11Y22160   6.000   2.072   7.532  2.0870  3.3765 -3.1417
  191SLPC  C31222161   5.793   2.023   7.553  0.2984  0.4283 -0.3389
  191SLPC  H12X22162   5.719   1.967   7.492 -1.0629 -0.2828  1.8800
  191SLPC  H12Y22163   5.737   2.109   7.596  0.5272 -0.5730  2.0212
  191SLPC  C31322164   5.832   1.939   7.671 -0.2972 -0.3449 -0.4750
  191SLPC  H13X22165   5.923   1.979   7.721  1.4685 -2.0738 -2.2132
  191SLPC  H13Y22166   5.866   1.841   7.631 -0.8228 -0.8307  0.2476
  191SLPC  C31422167   5.713   1.916   7.767  0.1552 -0.3421  0.0908
  191SLPC  H14X22168   5.637   1.872   7.700  0.8911 -0.7071 -0.5090
  191SLPC  H14Y22169   5.658   2.003   7.809  2.2700  0.4258  1.3511
  191SLPC  C31522170   5.747   1.806   7.871  0.2202 -0.9784 -0.1825
  191SLPC  H15X22171   5.832   1.847   7.929 -0.0367 -1.8278  0.8020
  191SLPC  H15Y22172   5.780   1.712   7.823 -3.1382 -2.5638  0.4161
  191SLPC  C31622173   5.633   1.779   7.963 -0.3030 -0.3897 -0.2237
  191SLPC  H16X22174   5.598   1.872   8.013  0.2578 -0.1597 -0.2580
  191SLPC  H16Y22175   5.681   1.724   8.046  1.9976 -0.9456 -1.8800
  191SLPC  C31722176   5.518   1.691   7.911 -0.3644 -0.1633 -0.3241
  191SLPC  H17X22177   5.559   1.602   7.859 -0.6809 -0.2670 -0.3975
  191SLPC  H17Y22178   5.470   1.750   7.830 -1.7652  1.6184  1.7461
  191SLPC  C31822179   5.409   1.653   8.020  0.2009  0.3360 -0.0005
  191SLPC  H18X22180   5.457   1.612   8.111 -0.3271 -0.6725 -0.1646
  191SLPC  H18Y22181   5.340   1.571   7.991  0.6494 -1.0027  2.5355
  191SLPC  H18Z22182   5.347   1.741   8.047  2.0623  2.2242 -1.6793
  192SLPC     N22183   6.016   2.552   6.266  0.0244  0.3026 -0.8937
  192SLPC   C1322184   6.147   2.574   6.199  0.3343  0.0821  0.0986
  192SLPC  H13A22185   6.201   2.482   6.214  3.1166  1.8394  1.3677
  192SLPC  H13B22186   6.141   2.594   6.093  2.5668  1.2238  0.1643
  192SLPC  H13C22187   6.209   2.644   6.254 -0.6119  0.6234  0.5023
  192SLPC   C1422188   5.932   2.463   6.180  0.3185  0.1530  0.1206
  192SLPC  H14A22189   6.002   2.402   6.125  0.4229 -0.0508  0.4765
  192SLPC  H14B22190   5.872   2.397   6.241 -0.8515  0.6816 -0.4532
  192SLPC  H14C22191   5.869   2.519   6.113 -3.1201 -1.5363  1.8360
  192SLPC   C1522192   5.951   2.691   6.270  0.1337 -0.2157  0.6515
  192SLPC  H15A22193   5.935   2.726   6.170  0.0632 -5.2959 -1.2924
  192SLPC  H15B22194   5.856   2.673   6.319  1.2145 -0.3087  2.7689
  192SLPC  H15C22195   6.011   2.759   6.328 -0.9340 -0.1137  1.6597
  192SLPC   C1222196   6.033   2.488   6.406  0.7183 -0.3419  0.0604
  192SLPC  H12A22197   6.086   2.395   6.402  1.1778 -0.0639 -0.4854
  192SLPC  H12B22198   5.934   2.454   6.434  1.6374 -0.5446  3.2525
  192SLPC   C1122199   6.098   2.572   6.520 -0.1684  0.4544 -0.0074
  192SLPC  H11A22200   6.099   2.496   6.602 -2.3112 -0.4285 -0.7663
  192SLPC  H11B22201   6.030   2.658   6.540 -1.7290 -1.0752  1.5117
  192SLPC     P22202   6.299   2.736   6.516 -0.0517 -0.1712 -0.1698
  192SLPC   O1322203   6.423   2.693   6.581  0.1872  0.1956  0.1519
  192SLPC   O1422204   6.310   2.824   6.393  0.3033  0.8969  0.0947
  192SLPC   O1222205   6.231   2.599   6.481  0.1614 -0.0849 -0.6628
  192SLPC   O1122206   6.197   2.808   6.619 -0.1861 -0.7306  0.0544
  192SLPC    C122207   6.244   2.894   6.726  0.0428 -0.5783 -0.6597
  192SLPC    HA22208   6.324   2.960   6.685 -1.1306  2.1806  1.3708
  192SLPC    HB22209   6.168   2.965   6.764  0.1280 -0.3626 -0.8867
  192SLPC    C222210   6.286   2.813   6.851 -0.5129 -0.3412  0.3591
  192SLPC    HS22211   6.353   2.737   6.806 -2.3837 -1.4650 -0.5876
  192SLPC   O2122212   6.173   2.762   6.925  0.5205  0.1017 -0.1142
  192SLPC   C2122213   6.186   2.631   6.969  0.6204  0.1113  0.1544
  192SLPC   O2222214   6.272   2.558   6.935 -0.3839  0.2925  0.2262
  192SLPC   C2222215   6.086   2.606   7.085  0.3838  0.4457  0.0764
  192SLPC   H2R22216   5.988   2.659   7.083  0.7663  1.1479 -0.4531
  192SLPC   H2S22217   6.072   2.496   7.080 -0.9529  0.6872 -1.7947
  192SLPC    C322218   6.362   2.913   6.955  0.5977 -0.2553  0.1717
  192SLPC    HX22219   6.292   2.993   6.987 -0.4902 -2.0561  2.4771
  192SLPC    HY22220   6.437   2.972   6.899  1.8639 -0.2834  1.7850
  192SLPC   O3122221   6.408   2.847   7.077  0.3749 -0.4274 -0.3153
  192SLPC   C3122222   6.522   2.788   7.072  0.0172 -0.3112  0.0666
  192SLPC   O3222223   6.601   2.782   6.975 -0.0898  0.2917  0.1449
  192SLPC   C3222224   6.545   2.724   7.210  0.3518  0.0847  0.7135
  192SLPC   H2X22225   6.455   2.662   7.232 -1.6818  2.5381 -0.4567
  192SLPC   H2Y22226   6.547   2.803   7.288 -1.9983  1.9149 -0.9999
  192SLPC   C2322227   6.165   2.636   7.214  0.7248  0.0398 -0.3016
  192SLPC   H3R22228   6.197   2.742   7.217  1.9167 -0.3703  1.9753
  192SLPC   H3S22229   6.255   2.571   7.217  0.1212 -0.8223 -0.6396
  192SLPC   C2422230   6.070   2.600   7.334 -0.3439 -0.5276  0.3856
  192SLPC   H4R22231   6.052   2.491   7.327 -1.3089 -0.3742  0.3798
  192SLPC   H4S22232   5.971   2.649   7.318  0.4426  0.5431 -1.3590
  192SLPC   C2522233   6.151   2.613   7.471  0.3755  0.3281 -0.0296
  192SLPC   H5R22234   6.168   2.722   7.481  3.2101  0.1017 -1.9233
  192SLPC   H5S22235   6.247   2.563   7.445 -0.8504 -2.9166  1.3158
  192SLPC   C2622236   6.086   2.555   7.599 -0.3872  0.3696  0.0336
  192SLPC   H6R22237   5.983   2.596   7.608 -0.4513  0.4299 -0.9225
  192SLPC   H6S22238   6.141   2.578   7.693  0.2180  0.6396 -0.3794
  192SLPC   C2722239   6.076   2.397   7.615  0.3684 -0.2745  0.1991
  192SLPC   H7R22240   6.181   2.361   7.621  0.0725 -1.1744  0.0695
  192SLPC   H7S22241   6.042   2.370   7.513  2.7132  0.3511 -0.8055
  192SLPC   C2822242   5.997   2.344   7.735 -0.1172 -0.2565 -0.1156
  192SLPC   H8R22243   6.011   2.235   7.726 -0.9958 -0.2968 -1.1011
  192SLPC   H8S22244   5.888   2.360   7.718 -0.3932  0.6158  2.2890
  192SLPC   C2922245   6.035   2.398   7.870  0.1068 -0.3546 -0.1074
  192SLPC   H9R22246   6.045   2.508   7.876  2.2189 -0.5242 -0.3091
  192SLPC  C21022247   6.049   2.329   7.984  0.7807  1.2279  0.5373
  192SLPC  H10R22248   6.079   2.385   8.074  0.1933 -0.0825  1.5523
  192SLPC  C21122249   6.030   2.182   7.992  0.6772 -1.2639 -0.1073
  192SLPC  H11R22250   6.107   2.133   7.929  3.4849  2.0501  0.6518
  192SLPC  H11S22251   5.937   2.157   7.936  0.2652 -0.8727  0.4013
  192SLPC  C21222252   6.031   2.117   8.129 -0.2971  0.7893  0.0464
  192SLPC  H12R22253   6.132   2.087   8.160  0.0034  1.2510 -0.4741
  192SLPC  C21322254   5.925   2.106   8.208  0.1098  0.0956  0.4469
  192SLPC  H13R22255   5.929   2.049   8.301  0.5351  1.2674  1.1591
  192SLPC  C21422256   5.784   2.154   8.182  0.1837 -0.2264 -0.2852
  192SLPC  H14R22257   5.771   2.145   8.072 -0.5424  2.6889 -0.4793
  192SLPC  H14S22258   5.777   2.263   8.202 -1.5157 -0.4921  0.6915
  192SLPC  C21522259   5.670   2.077   8.260 -0.0299 -0.4460  0.0807
  192SLPC  H15R22260   5.689   1.968   8.267 -0.3551 -0.5666 -0.8620
  192SLPC  H15S22261   5.568   2.092   8.220 -0.1879  0.0362  0.6450
  192SLPC  C21622262   5.662   2.112   8.408  0.8512  0.0645 -0.4497
  192SLPC  H16R22263   5.669   2.223   8.416  5.0602 -0.1724  0.5348
  192SLPC  H16S22264   5.755   2.081   8.460  0.2546 -0.8984  0.0517
  192SLPC  C21722265   5.527   2.062   8.487  0.6805  0.5033  0.0060
  192SLPC  H17R22266   5.546   2.093   8.592 -0.0870  0.7006  0.0917
  192SLPC  H17S22267   5.439   2.123   8.457  0.3855  0.8544  1.5816
  192SLPC  C21822268   5.504   1.910   8.497  0.8167 -0.3686 -0.4948
  192SLPC  H18R22269   5.589   1.850   8.536 -0.6339 -1.4958  1.0108
  192SLPC  H18S22270   5.485   1.872   8.394  0.5621 -1.9696  0.1364
  192SLPC  H18T22271   5.419   1.880   8.562 -0.2159 -0.8512 -2.0537
  192SLPC   C3322272   6.681   2.651   7.223  0.6342 -0.0568  0.5897
  192SLPC   H3X22273   6.747   2.662   7.135 -1.1133  3.6881 -0.3691
  192SLPC   H3Y22274   6.656   2.543   7.235  1.5756 -0.3964 -0.5305
  192SLPC   C3422275   6.768   2.686   7.345  0.6300 -0.4477 -0.3339
  192SLPC   H4X22276   6.699   2.703   7.431 -0.9352 -1.8436 -1.2869
  192SLPC   H4Y22277   6.818   2.782   7.321  1.9486 -0.5220  1.9904
  192SLPC   C3522278   6.866   2.571   7.380  0.0158  0.2636 -0.4774
  192SLPC   H5X22279   6.923   2.546   7.288  1.4419  0.0803  0.4401
  192SLPC   H5Y22280   6.814   2.482   7.423  0.7772 -0.3228 -0.7758
  192SLPC   C3622281   6.964   2.617   7.491  0.3947  0.2993 -0.2663
  192SLPC   H6X22282   7.000   2.721   7.476 -0.7048  0.5225 -1.4836
  192SLPC   H6Y22283   7.057   2.558   7.481  0.7318  0.4151  1.9987
  192SLPC   C3722284   6.917   2.608   7.637 -0.0521 -0.1451 -0.1571
  192SLPC   H7X22285   6.930   2.503   7.670  3.4864 -0.7056 -2.9545
  192SLPC   H7Y22286   6.808   2.628   7.638  0.0553  0.4785 -0.4087
  192SLPC   C3822287   7.003   2.701   7.731  0.3458 -0.7175  0.4463
  192SLPC   H8X22288   7.020   2.802   7.689 -1.4041 -0.9426 -0.8721
  192SLPC   H8Y22289   7.100   2.650   7.750  0.4582 -0.7248 -0.1357
  192SLPC   C3922290   6.958   2.724   7.871  0.0667 -0.3464 -0.0942
  192SLPC   H9X22291   6.869   2.791   7.861 -1.5121 -2.2353  0.9006
  192SLPC   H9Y22292   7.037   2.784   7.921 -1.4073  2.0690 -0.5715
  192SLPC  C31022293   6.929   2.606   7.966  0.3428 -0.1559 -0.0184
  192SLPC  H10X22294   7.023   2.555   7.994 -1.3693 -2.3295  1.9519
  192SLPC  H10Y22295   6.889   2.518   7.911  0.2092  0.5640 -1.0965
  192SLPC  C31122296   6.836   2.639   8.088 -0.1863  0.0836  0.5920
  192SLPC  H11X22297   6.843   2.542   8.140  0.6443  1.1112  2.4448
  192SLPC  H11Y22298   6.734   2.669   8.056 -0.0438 -1.1818 -1.1630
  192SLPC  C31222299   6.880   2.752   8.183  0.1431 -0.7260 -0.7377
  192SLPC  H12X22300   6.898   2.838   8.115  0.0604 -0.9631 -1.0639
  192SLPC  H12Y22301   6.975   2.727   8.233 -0.2685 -1.8558 -0.5067
  192SLPC  C31322302   6.762   2.792   8.276  0.0169 -0.3754 -0.1731
  192SLPC  H13X22303   6.739   2.710   8.348  0.3347  0.0342  0.4052
  192SLPC  H13Y22304   6.672   2.797   8.211 -0.8291  0.5140  1.0439
  192SLPC  C31422305   6.776   2.925   8.357 -0.5196 -0.0208 -0.2176
  192SLPC  H14X22306   6.862   2.921   8.428 -1.1917  1.7233  0.7121
  192SLPC  H14Y22307   6.682   2.943   8.413 -0.0956  0.9668  0.1856
  192SLPC  C31522308   6.789   3.053   8.265 -0.6256 -0.5260  0.5475
  192SLPC  H15X22309   6.692   3.064   8.212  0.1234 -0.5357 -0.8763
  192SLPC  H15Y22310   6.864   3.030   8.185 -0.7978 -2.1455  0.8427
  192SLPC  C31622311   6.796   3.189   8.340  0.0692  0.4696  0.3862
  192SLPC  H16X22312   6.894   3.180   8.392  0.2034  0.1915  0.0834
  192SLPC  H16Y22313   6.712   3.206   8.411  1.2052  0.7205  1.6972
  192SLPC  C31722314   6.803   3.314   8.247 -0.2788 -1.1359 -0.1703
  192SLPC  H17X22315   6.720   3.321   8.173  0.8933  2.3509 -1.2451
  192SLPC  H17Y22316   6.896   3.296   8.189 -1.3497  0.4407 -2.4264
  192SLPC  C31822317   6.822   3.447   8.328 -0.1432  0.1140 -0.4071
  192SLPC  H18X22318   6.834   3.528   8.253 -0.5223 -0.9411 -1.6385
  192SLPC  H18Y22319   6.913   3.439   8.390  0.9675 -0.7185 -2.1066
  192SLPC  H18Z22320   6.738   3.460   8.399  1.0489  0.5042  0.9520
  193SOD    SOD22321   0.867   6.632  15.546  0.2998 -0.4708 -0.0779
  194SOD    SOD22322   0.866   3.121   2.782  0.3126  0.0903  0.1661
  195SOD    SOD22323   6.150   6.338  12.609 -0.4049 -0.6343 -0.2268
  196SOD    SOD22324   3.238   0.141   4.274 -0.2334 -0.0814 -0.2891
  197SOD    SOD22325   5.871   5.590  12.979  0.3084  0.0824 -0.9513
  198SOD    SOD22326   3.636   5.282  12.314  0.1682  0.0250  0.0464
  199SOD    SOD22327   0.743   3.894   5.044  0.5025  0.1820 -0.3506
  200SOD    SOD22328   0.416   5.742   2.723 -0.2947 -0.1820 -0.2961
  201SOD    SOD22329   3.818   2.789   2.919  0.7711 -0.3263  0.3932
  202SOD    SOD22330   2.441   0.609  14.754  0.3333 -0.1592 -0.2585
  203SOD    SOD22331   5.174   4.399   6.452  0.0499  0.0156 -0.5053
  204SOD    SOD22332   1.500   0.358   5.068  0.3234  0.0007 -0.3340
  205SOD    SOD22333   1.155   4.003  16.181  0.0857 -0.1646  0.2652
  206SOD    SOD22334   4.150   4.502  15.168 -0.2321  0.1128 -0.5815
  207SOD    SOD22335   4.958   1.601   2.295 -0.4451  0.6133  0.0435
  208SOD    SOD22336   1.996   3.238   1.780  0.3820 -0.3964  0.0130
  209SOD    SOD22337   4.748   2.984   3.440 -0.3943  0.3893  0.0536
  210SOD    SOD22338   6.610   1.958   0.919  0.2124 -0.1003 -0.0422
  211SOD    SOD22339   3.166   3.457   0.906  0.6945 -0.0442  0.3703
  212SOD    SOD22340   1.781   6.135   2.326 -0.1678 -0.0386 -0.0827
  213SOD    SOD22341   3.838   4.177   4.908  0.0657  0.0095  1.0508
  214SOD    SOD22342   4.097   0.991   3.469  0.0575 -0.6035  0.1079
  215SOD    SOD22343   2.129   1.901   2.271 -0.4181  0.2495  0.2861
  216SOD    SOD22344   2.076   5.718  10.731 -0.0279  0.1352 -0.2520
  217SOD    SOD22345   3.930   2.662   4.395 -0.1197 -0.2826  0.3098
  218SOD    SOD22346   0.164   2.365  16.177 -0.1401 -0.1040  0.1121
  219SOD    SOD22347   6.507   5.910   0.833 -0.4803  0.1572 -0.5347
  220SOD    SOD22348   5.018   6.714  11.088  0.3690  0.0998  0.0453
  221SOD    SOD22349   5.674   0.559   0.184 -0.0454 -0.1887  0.0425
  222SOD    SOD22350   1.463   2.637   3.587 -0.0530 -0.8280  0.2727
  223SOD    SOD22351   2.220   1.277  12.864  0.2612 -0.0473  0.1751
  224SOD    SOD22352   1.787   6.481   0.901 -0.1988 -0.5373 -0.3311
  225SOD    SOD22353   4.361   0.460  10.891 -0.3817 -0.3129  0.6457
  226SOD    SOD22354   5.326   3.637  12.205  0.0086 -0.2482 -0.4641
  227SOD    SOD22355   3.483   0.072  11.341 -0.0765 -0.0264  0.2477
  228SOD    SOD22356   2.267   6.201  15.323  0.4363  0.1149  0.2325
  229SOD    SOD22357   0.017   5.384  14.337 -0.1913  0.9033  0.3093
  230SOD    SOD22358   0.368   6.085  15.889 -0.1211 -0.1681  0.2378
  231SOD    SOD22359   1.331   2.288   6.488 -0.2023 -0.3339 -0.0517
  232SOD    SOD22360   0.642   1.976   5.290  0.2335  0.1848 -0.0526
  233SOD    SOD22361   1.027   3.344  13.136 -0.4207 -0.1017  0.2788
  234SOD    SOD22362   6.682   4.081  17.237  0.1163  0.1112 -0.2451
  235SOD    SOD22363   2.064   4.934  15.043  0.2363 -0.1288  0.2334
  236SOD    SOD22364   1.893   3.454  15.552 -0.0632  0.3525  0.1664
  237SOD    SOD22365   6.278   1.572  10.599 -0.3199 -0.1371  0.2951
  238SOD    SOD22366   5.217   3.418  16.943  0.2329 -0.0578 -0.6960
  239SOD    SOD22367   3.990   5.929  15.046  0.1909  0.1459 -0.1622
  240SOD    SOD22368   3.630   0.209   2.164 -0.1903 -0.2743  0.4285
  241SOD    SOD22369   4.336   0.742   5.827 -0.5853 -0.3376 -0.0975
  242SOD    SOD22370   0.111   6.690   6.677  0.1824 -0.7999 -0.0544
  243SOD    SOD22371   6.314   2.259   3.808  0.1061  0.1249  0.0551
  244SOD    SOD22372   0.261   6.548  11.319 -0.2459 -0.2827  0.1053
  245SOD    SOD22373   4.892   1.943  11.245 -0.3987 -0.2245  0.5029
  246SOD    SOD22374   4.595   4.949  15.670  0.1069 -0.1197  0.4754
  247SOD    SOD22375   5.163   1.893  16.187 -0.1407  0.3391  0.1808
  248SOD    SOD22376   2.263   2.870  11.491  0.2416 -0.1983  0.2706
  249SOD    SOD22377   2.803   4.271   2.776 -0.8194 -0.2148 -0.7028
  250SOD    SOD22378   4.704   3.825  10.748 -0.1908 -0.2700 -0.1668
  251SOD    SOD22379   3.150   6.172   4.767  0.1019  0.0849  0.3548
  252SOD    SOD22380   3.516   2.772  14.969 -0.0583  0.3142 -0.0064
  253SOD    SOD22381   5.183   6.671   4.115 -0.4876 -0.0793  0.0086
  254SOD    SOD22382   5.120   4.542   3.185 -0.6098 -0.1128  0.1213
  255SOD    SOD22383   5.503   2.981  16.398 -0.3255 -0.0744  0.1634
  256SOD    SOD22384   0.759   2.354  16.578 -0.0785  0.0105 -0.2395
  257SOD    SOD22385   3.802   0.928   4.403  0.0430 -0.4095  0.2817
  258SOD    SOD22386   1.737   0.734  12.428  0.0061  0.3332 -0.2364
  259SOD    SOD22387   5.740   6.631   1.608 -0.0708 -0.0421  0.1045
  260SOD    SOD22388   6.614   1.739   6.349  0.2771  0.4242 -0.7132
  261SOD    SOD22389   3.533   0.721   1.808 -0.4454 -0.1033  0.2185
  262SOD    SOD22390   4.627   0.509  12.844 -0.6161 -0.0013  0.0658
  263SOD    SOD22391   6.330   5.449   5.169 -0.0023  0.3153 -0.1847
  264SOD    SOD22392   5.198   2.204   6.056 -0.1728 -0.2157 -0.0277
  265SOD    SOD22393   2.533   4.265   6.617 -0.0282  0.2575 -0.3345
  266CLA    CLA22394   4.246   0.045   2.029  0.0880  0.0984  0.4487
  267CLA    CLA22395   4.673   2.201  14.309  0.1029  0.5149  0.3958
  268CLA    CLA22396   4.503   3.078   3.929  0.0258 -0.3604  0.0789
  269CLA    CLA22397   2.878   3.245   2.364  0.3417  0.0881 -0.0271
  270CLA    CLA22398   3.473   1.395   1.484  0.1494  0.0127 -0.0346
  271CLA    CLA22399   6.472   2.655   5.248 -0.1395  0.3094 -0.3841
  272CLA    CLA22400   2.757   5.242  13.365 -0.2190  0.1860  0.1642
  273CLA    CLA22401   3.464   2.026  13.817 -0.1712  0.0194 -0.2205
  274CLA    CLA22402   6.503   5.386  14.951 -0.1085  0.0281 -0.3222
  275CLA    CLA22403   0.669   1.249   0.646  0.0954 -0.7383 -0.2946
  276CLA    CLA22404   5.926   0.890   3.402 -0.1364  0.1334  0.1949
  277CLA    CLA22405   6.185   4.152  16.975  0.1439 -0.0307  0.3057
  278CLA    CLA22406   5.519   2.897   0.238  0.1113  0.3719 -0.0245
  279CLA    CLA22407   0.132   5.845   2.305 -0.1354  0.1047 -0.3939
  280CLA    CLA22408   1.404   4.660  15.171 -0.0265 -0.0028  0.1075
  281CLA    CLA22409   1.621   1.692   3.773 -0.0435 -0.3792  0.1757
  282CLA    CLA22410   4.762   1.680  15.131  0.3798 -0.2487 -0.0863
  283CLA    CLA22411   4.506   6.391  15.072  0.3877 -0.1306 -0.2834
  284CLA    CLA22412   1.854   4.938   0.015  0.1499 -0.2124 -0.0941
  285CLA    CLA22413   2.478   5.543   4.043  0.4689 -0.3782 -0.3305
  286CLA    CLA22414   6.241   6.306   1.107 -0.0729  0.3596  0.0883
  287CLA    CLA22415   2.475   4.101   5.863 -0.2106 -0.0471 -0.6220
  288CLA    CLA22416   1.043   6.550  16.827  0.1063  0.1843 -0.1966
  289CLA    CLA22417   4.477   0.637  15.013 -0.2254  0.2500 -0.1763
  290CLA    CLA22418   3.598   4.959  14.824 -0.4739 -0.0845  0.4112
  291CLA    CLA22419   2.449   6.565  13.888  0.2055  0.3739  0.3385
  292CLA    CLA22420   4.692   5.524   2.082  0.0452 -0.2162 -0.1079
  293CLA    CLA22421   4.700   0.358  11.537  0.0749  0.0079 -0.0617
  294CLA    CLA22422   3.007   2.144   3.663  0.0717 -0.1711 -0.2484
  295CLA    CLA22423   1.910   3.983  13.646  0.3985 -0.1350 -0.2466
  296CLA    CLA22424   1.401   5.748   1.918  0.1211  0.0045 -0.0581
  297CLA    CLA22425   3.965   3.371  16.629  0.0488 -0.0965 -0.0306
  298CLA    CLA22426   4.689   5.081   5.416  0.2765  0.4891  0.1821
  299CLA    CLA22427   5.545   4.175  16.388 -0.0408  0.3581 -0.2910
  300CLA    CLA22428   3.983   3.444   1.625  0.1364 -0.0491  0.1801
  301CLA    CLA22429   0.833   0.681  11.500 -0.0528 -0.0480  0.4799
  302CLA    CLA22430   4.282   1.101   3.623  0.3891  0.0789 -0.0476
  303CLA    CLA22431   4.175   1.552  16.716  0.0596  0.2450  0.2767
  304CLA    CLA22432   0.051   5.244  11.673  0.0790 -0.4671 -0.4349
  305CLA    CLA22433   3.152   0.589   4.325 -0.2064 -0.0408 -0.1587
  306CLA    CLA22434   4.708   1.586  11.160 -0.0478 -0.1662  0.0061
  307CLA    CLA22435   0.468   5.405  14.594 -0.4650 -0.0038  0.4348
  308CLA    CLA22436   0.474   2.740  16.285 -0.1193  0.1443  0.4754
  309CLA    CLA22437   3.740   3.601   4.364  0.4362  0.1069  0.0847
  310CLA    CLA22438   1.484   2.576   1.892  0.0975  0.2065  0.5575
  311CLA    CLA22439   2.960   2.034  15.282 -0.4839  0.1538 -0.2208
  312CLA    CLA22440   6.634   2.556  13.124  0.1030 -0.0708  0.2962
  313CLA    CLA22441   0.627   1.632   4.597  0.1589  0.0533  0.1283
  314CLA    CLA22442   3.762   6.499  16.806  0.0866 -0.0236  0.2637
  315CLA    CLA22443   4.807   2.003   2.513 -0.2854 -0.1638 -0.3329
  316CLA    CLA22444   6.078   2.007   2.725  0.1430 -0.2358  0.6037
  317CLA    CLA22445   0.127   1.005  15.791 -0.0451 -0.6612  0.0656
  318CLA    CLA22446   0.756   3.881  17.035 -0.4162 -0.1243  0.3352
  319TIP3   OH222447   2.364   6.648  15.097 -0.0242  0.2760  0.2918
  319TIP3    H122448   2.318   6.593  15.161  1.1886  0.4052  1.3006
  319TIP3    H222449   2.294   6.688  15.045 -1.0119 -0.2899  1.1669
  320TIP3   OH222450   4.997   2.305  14.629  0.2059 -0.5283  0.1009
  320TIP3    H122451   4.943   2.239  14.586 -0.4432  0.5386 -0.7514
  320TIP3    H222452   5.086   2.268  14.628 -0.0150 -1.0349 -1.0614
  321TIP3   OH222453   0.491   2.944  13.897  0.2557  0.0721 -0.5810
  321TIP3    H122454   0.556   3.013  13.911  1.9264 -1.8659  1.5279
  321TIP3    H222455   0.542   2.870  13.864 -1.1177 -1.0024 -0.3275
  322TIP3   OH222456   2.316   2.753  13.803 -0.2487  0.4262  0.0475
  322TIP3    H122457   2.255   2.680  13.790  1.8307 -1.5970  1.3914
  322TIP3    H222458   2.273   2.809  13.867  0.3174 -2.2497  2.8705
  323TIP3   OH222459   1.427   6.728   3.657 -0.0344 -0.4013  1.3007
  323TIP3    H122460   1.509   6.774   3.641  1.0023 -2.1519  1.4671
  323TIP3    H222461   1.403   6.752   3.747 -0.3050  0.9913  0.8703
  324TIP3   OH222462   0.005   2.782  12.509  0.1294 -0.1179  0.5055
  324TIP3    H122463   0.011   2.838  12.586 -0.2020  0.7582 -0.0831
  324TIP3    H222464  -0.016   2.843  12.437  2.1426 -0.6650 -0.5799
  325TIP3   OH222465   0.260   0.824  16.710 -0.5513 -0.4466  0.6195
  325TIP3    H122466   0.201   0.781  16.772  0.0411 -0.7801  0.9507
  325TIP3    H222467   0.265   0.915  16.740 -0.5220 -0.5307  0.8666
  326TIP3   OH222468   6.394   0.370  15.264  0.3491 -0.1426 -0.4139
  326TIP3    H122469   6.338   0.430  15.314  1.3623  1.0152 -0.6446
  326TIP3    H222470   6.365   0.283  15.290  0.0067  0.4445  1.2361
  327TIP3   OH222471   4.522   4.031   2.946  0.1749 -0.2032  0.4033
  327TIP3    H122472   4.467   4.037   2.867  3.6629  0.0187 -2.1600
  327TIP3    H222473   4.532   3.937   2.961  1.3086 -0.3030 -0.8265
  328TIP3   OH222474   4.338   0.822   4.725 -0.0140  1.0668 -0.7934
  328TIP3    H122475   4.410   0.878   4.756 -0.3464  1.3766 -0.5737
  328TIP3    H222476   4.267   0.840   4.786  0.3940 -0.8359  0.2850
  329TIP3   OH222477   0.089   5.175  16.144  0.1224  0.4968  0.8355
  329TIP3    H122478   0.162   5.220  16.187  0.3298  0.3317  0.6510
  329TIP3    H222479   0.034   5.145  16.217  1.4698 -1.4729  1.0598
  330TIP3   OH222480   0.538   6.581  16.330  0.1891  0.3069  0.6957
  330TIP3    H122481   0.445   6.604  16.326 -0.3230 -1.8517 -0.7994
  330TIP3    H222482   0.545   6.501  16.279  2.8102  0.1528  1.2209
  331TIP3   OH222483   2.489   1.035   1.804  0.0151 -0.1081  0.4442
  331TIP3    H122484   2.546   0.961   1.783  0.6355  0.5662 -0.2800
  331TIP3    H222485   2.521   1.106   1.748 -1.3747  0.3460  0.2102
  332TIP3   OH222486   2.731   2.803   1.785 -0.1401  0.5088 -0.8580
  332TIP3    H122487   2.656   2.798   1.726 -0.2865  1.5704 -0.7706
  332TIP3    H222488   2.804   2.766   1.734 -0.6535 -0.2979 -1.0278
  333TIP3   OH222489   4.838   4.905  16.566 -0.1060 -0.0031 -0.7738
  333TIP3    H122490   4.866   4.893  16.475  0.4107 -1.5976 -0.4236
  333TIP3    H222491   4.857   4.996  16.586  2.0781 -0.2781 -1.5001
  334TIP3   OH222492   0.610   0.969  13.261  0.5090 -0.1017  0.2585
  334TIP3    H122493   0.642   0.880  13.246 -0.6915 -0.1755 -2.0298
  334TIP3    H222494   0.517   0.957  13.281  0.2568  0.6676 -0.4576
  335TIP3   OH222495   4.251   4.594  15.381 -0.3067  0.4607  0.0212
  335TIP3    H122496   4.195   4.561  15.450  0.8646 -3.0790 -0.6343
  335TIP3    H222497   4.325   4.634  15.426 -0.5712  0.0559  0.8083
  336TIP3   OH222498   2.163   0.669  12.401  0.1423 -0.1617 -0.3256
  336TIP3    H122499   2.246   0.646  12.443  0.0989 -1.0532 -0.7088
  336TIP3    H222500   2.169   0.763  12.385  1.0908 -0.2273 -0.3762
  337TIP3   OH222501   1.475   0.508   3.755 -0.1281  0.1973  0.3771
  337TIP3    H122502   1.541   0.554   3.703 -0.4280 -0.1617 -0.3287
  337TIP3    H222503   1.480   0.549   3.842 -0.1154  1.2830 -0.1304
  338TIP3   OH222504   6.212   1.315  16.220 -0.4444  0.3467 -0.3782
  338TIP3    H122505   6.304   1.306  16.198 -0.5233 -1.0775 -0.1626
  338TIP3    H222506   6.183   1.393  16.172  0.7146  0.4594 -0.9014
  339TIP3   OH222507   1.615   6.256  11.872 -0.0618  0.7191  0.5345
  339TIP3    H122508   1.666   6.227  11.948 -0.3855  2.2743  1.3625
  339TIP3    H222509   1.671   6.320  11.828 -0.3884  0.7523  0.1635
  340TIP3   OH222510   0.668   3.318  15.398 -0.4747  0.5868  0.2292
  340TIP3    H122511   0.600   3.251  15.390  1.5005 -1.5538  0.9636
  340TIP3    H222512   0.659   3.371  15.319 -1.9735 -0.6241 -0.4328
  341TIP3   OH222513   4.796   2.606  16.143 -0.2970 -0.2663 -0.2126
  341TIP3    H122514   4.809   2.622  16.237 -1.1666 -0.7516 -0.0031
  341TIP3    H222515   4.877   2.637  16.102 -0.4068  1.1049  0.5665
  342TIP3   OH222516   4.280   5.424   0.943  0.0876  0.3753 -0.2353
  342TIP3    H122517   4.283   5.495   0.879  0.1828  0.9048  0.3519
  342TIP3    H222518   4.188   5.398   0.945  0.1608  0.0528 -0.9143
  343TIP3   OH222519   0.677   2.426   2.046  0.0452  0.1801  0.0236
  343TIP3    H122520   0.726   2.434   1.964  0.0245 -1.3981 -0.1685
  343TIP3    H222521   0.607   2.491   2.039 -1.5674 -1.7092 -2.4146
  344TIP3   OH222522   3.715   1.517  16.793  0.6914  0.6268 -0.4401
  344TIP3    H122523   3.776   1.491  16.862  0.2438  1.2291  0.1930
  344TIP3    H222524   3.723   1.448  16.727  0.0142 -0.7786  0.9023
  345TIP3   OH222525   5.806   1.565   0.838 -0.7395  0.3680  0.6158
  345TIP3    H122526   5.900   1.578   0.849 -0.0733 -4.6743  2.4996
  345TIP3    H222527   5.768   1.596   0.920 -0.8272  2.8048 -0.3139
  346TIP3   OH222528   2.332   2.314  14.916  0.1463 -0.7713  0.0602
  346TIP3    H122529   2.284   2.355  14.988 -0.7073 -1.1290 -0.2928
  346TIP3    H222530   2.358   2.229  14.950  0.4702 -0.6024  0.2323
  347TIP3   OH222531   0.429   2.762   0.194  0.2959 -0.2229  0.0032
  347TIP3    H122532   0.391   2.849   0.194  1.4613  0.3057 -1.7439
  347TIP3    H222533   0.519   2.775   0.223  0.5936 -0.7789 -0.6535
  348TIP3   OH222534   2.432   5.202  15.360 -0.4337  0.1419 -0.0354
  348TIP3    H122535   2.356   5.250  15.392 -0.2074  0.8504 -0.5374
  348TIP3    H222536   2.401   5.155  15.283 -0.9474 -1.4631  1.1393
  349TIP3   OH222537   4.770   3.811  14.594 -0.3261  0.1645 -0.7021
  349TIP3    H122538   4.843   3.749  14.588 -0.1577  0.1829  0.9747
  349TIP3    H222539   4.800   3.877  14.655 -2.0076 -0.1885  0.5446
  350TIP3   OH222540   4.182   1.925   4.857 -0.2920 -0.1372 -0.3095
  350TIP3    H122541   4.246   1.995   4.870 -0.7216  0.3001 -0.5177
  350TIP3    H222542   4.206   1.858   4.921  1.4149 -0.7226 -1.5555
  351TIP3   OH222543   1.057   6.266  10.472 -0.0734 -0.3352  0.0926
  351TIP3    H122544   0.977   6.296  10.429  0.3476  1.0048  0.2301
  351TIP3    H222545   1.070   6.326  10.545  0.5007 -1.1694  0.6890
  352TIP3   OH222546   4.516   2.785  13.303 -0.1371 -0.1971  0.5910
  352TIP3    H122547   4.519   2.869  13.258 -0.8787  1.0285  2.7428
  352TIP3    H222548   4.435   2.744  13.272 -0.2508  0.2887  0.2325
  353TIP3   OH222549   6.391   4.094   3.321  0.1020 -0.3803 -0.7361
  353TIP3    H122550   6.381   4.151   3.245  3.0268  0.7366 -0.3288
  353TIP3    H222551   6.422   4.011   3.285  0.6428 -0.1294 -0.8548
  354TIP3   OH222552   6.738   6.001   2.973 -0.3046 -0.2943 -0.1461
  354TIP3    H122553   6.748   6.088   2.935  1.2345 -1.0132 -1.4738
  354TIP3    H222554   6.796   6.001   3.049 -1.0617  0.1459  0.4414
  355TIP3   OH222555   4.746   4.515  11.245  0.3292 -0.3087 -0.1250
  355TIP3    H122556   4.673   4.499  11.185  0.4345 -0.1717 -0.2921
  355TIP3    H222557   4.824   4.490  11.195  0.3464 -1.0787  0.2862
  356TIP3   OH222558   5.319   4.326   4.341 -0.1259 -0.6133  0.0685
  356TIP3    H122559   5.404   4.366   4.363 -0.2781  0.2579 -0.8671
  356TIP3    H222560   5.300   4.268   4.414  0.7408  0.0487  0.8368
  357TIP3   OH222561   2.165   3.678  12.091  0.7239  0.0605 -0.7066
  357TIP3    H122562   2.131   3.753  12.043  0.6380  0.7759  0.4404
  357TIP3    H222563   2.095   3.613  12.087  0.4685  0.3514 -1.0145
  358TIP3   OH222564   4.583   1.679  14.447  0.2107  0.4027  0.3466
  358TIP3    H122565   4.513   1.711  14.504 -0.3788 -2.1759  1.1526
  358TIP3    H222566   4.615   1.756  14.401 -1.1791  2.0914  2.1599
  359TIP3   OH222567   5.560   3.083  12.408  0.2658  0.0784  0.2531
  359TIP3    H122568   5.487   3.142  12.430  3.0589  3.8183 -0.1560
  359TIP3    H222569   5.584   3.044  12.492 -0.3986  0.9344  0.8513
  360TIP3   OH222570   6.284   6.229   3.097 -0.5470  0.7715  0.3243
  360TIP3    H122571   6.334   6.283   3.157 -0.8259 -0.5504  1.7892
  360TIP3    H222572   6.192   6.248   3.118 -0.6617 -1.7501  2.2733
  361TIP3   OH222573   0.324   2.083  16.643  0.0699  0.5573  0.1584
  361TIP3    H122574   0.284   2.166  16.665 -1.9385 -0.3272 -0.0813
  361TIP3    H222575   0.319   2.078  16.547  1.1425  0.6139  0.0840
  362TIP3   OH222576   4.279   2.883   1.745 -0.1608 -0.8777 -0.1931
  362TIP3    H122577   4.216   2.811   1.745  0.2446 -1.2468  1.0741
  362TIP3    H222578   4.336   2.865   1.670  0.3375 -2.2396  0.4951
  363TIP3   OH222579   0.802   2.390  12.576  0.0026  0.0342  0.2984
  363TIP3    H122580   0.862   2.414  12.505 -0.9351  0.1326 -0.4614
  363TIP3    H222581   0.855   2.398  12.656  0.5128  1.8478 -0.1991
  364TIP3   OH222582   5.554   0.051  12.070 -0.0355 -0.4612  0.1749
  364TIP3    H122583   5.581   0.142  12.077 -1.9758  0.2420 -1.1205
  364TIP3    H222584   5.481   0.042  12.131  0.1071 -1.1209  0.2515
  365TIP3   OH222585   3.237   3.016  17.217  0.2591 -0.2597  0.0453
  365TIP3    H122586   3.287   3.092  17.248 -0.3356  1.3139 -2.6313
  365TIP3    H222587   3.258   2.946  17.278  0.8728  2.0592  2.5583
  366TIP3   OH222588   2.086   2.232   3.599  0.1288 -0.3846 -0.3725
  366TIP3    H122589   1.998   2.259   3.571  0.1586 -1.6137 -1.7126
  366TIP3    H222590   2.139   2.311   3.592 -1.0380  0.5683  1.2095
  367TIP3   OH222591   4.954   6.690   1.627 -0.2099 -0.5522  0.5394
  367TIP3    H122592   4.983   6.703   1.718  0.5230 -2.1760  0.5634
  367TIP3    H222593   4.994   6.606   1.602  0.3835  0.3595 -1.6114
  368TIP3   OH222594   4.003   1.181  14.678 -0.5869 -0.2124 -0.1175
  368TIP3    H122595   4.059   1.247  14.720  1.1322 -1.3986 -0.4829
  368TIP3    H222596   4.025   1.187  14.585 -0.4326 -1.3095 -0.1491
  369TIP3   OH222597   5.917   0.031   1.641  0.1940 -0.1922  0.2603
  369TIP3    H122598   5.878   0.113   1.610  0.2693  0.2070  1.2052
  369TIP3    H222599   5.995   0.019   1.587 -1.3408 -1.1101 -1.8001
  370TIP3   OH222600   2.497   1.635   2.090 -0.0006 -0.6036  0.3580
  370TIP3    H122601   2.586   1.644   2.058  0.3853  0.3181  1.6586
  370TIP3    H222602   2.448   1.601   2.015  1.3035 -0.5000 -0.5571
  371TIP3   OH222603   6.294   3.541  15.623 -0.4166  0.4180  0.3258
  371TIP3    H122604   6.321   3.570  15.710 -0.7338  0.1062  0.5309
  371TIP3    H222605   6.325   3.609  15.564 -0.6610  0.8893  0.7422
  372TIP3   OH222606   6.358   1.129   0.067  0.6140 -0.5480 -0.0271
  372TIP3    H122607   6.360   1.205   0.124  1.0660 -1.3674  1.0810
  372TIP3    H222608   6.335   1.056   0.125  1.5048 -1.4672 -0.8094
  373TIP3   OH222609   3.914   4.384   5.013 -0.2254  0.6024 -0.6402
  373TIP3    H122610   3.959   4.442   4.951 -0.3758 -0.0163 -1.3334
  373TIP3    H222611   3.920   4.430   5.097  2.0928  0.3022 -0.6278
  374TIP3   OH222612   0.812   5.866   3.979  0.5319  0.1367 -0.9213
  374TIP3    H122613   0.799   5.961   3.973 -0.0015 -0.0837 -3.8813
  374TIP3    H222614   0.762   5.840   4.056 -0.5173  2.0666 -0.9295
  375TIP3   OH222615   6.653   1.698  15.740  0.4248  0.3696  0.4170
  375TIP3    H122616   6.702   1.635  15.688  0.8325 -1.5860  3.0462
  375TIP3    H222617   6.571   1.653  15.763  0.9400  0.5301  2.7427
  376TIP3   OH222618   2.393   2.360   0.519 -0.0200 -0.0672  0.0984
  376TIP3    H122619   2.308   2.324   0.497 -0.4466  0.4159  0.9329
  376TIP3    H222620   2.374   2.445   0.559  0.7596 -0.5380  1.5145
  377TIP3   OH222621   2.734   2.855  14.666  0.2301 -0.3098 -0.0183
  377TIP3    H122622   2.794   2.846  14.592  1.8737  2.2426  0.9140
  377TIP3    H222623   2.786   2.832  14.742  0.0620  1.8313  0.7970
  378TIP3   OH222624   1.819   6.761  12.382 -0.1120 -0.2660 -0.6120
  378TIP3    H122625   1.753   6.822  12.348  0.1886  0.2272 -0.3100
  378TIP3    H222626   1.783   6.729  12.464  1.5767  2.7321  1.3980
  379TIP3   OH222627   4.857   5.355  12.773  0.8724  0.0027  0.6115
  379TIP3    H122628   4.952   5.369  12.773  0.6998  1.4299 -1.6278
  379TIP3    H222629   4.821   5.439  12.802  0.2416  0.1130 -0.4782
  380TIP3   OH222630   5.377   2.910   3.159 -0.1205  0.1640 -0.1619
  380TIP3    H122631   5.397   2.863   3.078  0.6519 -0.1514  0.2091
  380TIP3    H222632   5.290   2.948   3.144  0.7721  1.5881 -1.7795
  381TIP3   OH222633   6.413   5.122  15.654 -0.7916  0.7443 -0.0315
  381TIP3    H122634   6.443   5.032  15.670 -2.3538  0.6238  2.3957
  381TIP3    H222635   6.325   5.113  15.618 -0.9618  1.3111  0.2350
  382TIP3   OH222636   3.731   3.990  16.933  0.4323 -0.6274 -0.1738
  382TIP3    H122637   3.729   4.024  17.022 -0.2979 -1.5561  0.1752
  382TIP3    H222638   3.643   3.953  16.919  0.2247  0.3401 -1.5971
  383TIP3   OH222639   2.098   3.167   5.762  0.3653 -0.7396 -0.2376
  383TIP3    H122640   2.099   3.214   5.679 -0.7880 -1.4671 -0.6704
  383TIP3    H222641   2.180   3.192   5.805  0.2679  0.8104 -0.9267
  384TIP3   OH222642   0.959   5.249   2.349 -0.0418  0.0567  0.2050
  384TIP3    H122643   0.952   5.250   2.444  1.1830 -0.0276  0.2952
  384TIP3    H222644   1.030   5.309   2.329 -1.0921  1.0164 -0.7345
  385TIP3   OH222645   5.223   6.104  13.874  0.0893  0.0829 -0.2071
  385TIP3    H122646   5.190   6.194  13.875 -0.5705 -0.1280 -1.7218
  385TIP3    H222647   5.144   6.050  13.879  0.5388 -0.4266  1.7676
  386TIP3   OH222648   0.277   6.426  11.108  0.3258 -0.0677 -0.3522
  386TIP3    H122649   0.329   6.351  11.080 -0.4510 -0.8161  0.1761
  386TIP3    H222650   0.247   6.466  11.026  0.5305 -0.4805 -0.6278
  387TIP3   OH222651   1.217   6.723   1.775  0.2894 -0.0039 -0.3459
  387TIP3    H122652   1.198   6.661   1.846 -1.4029 -1.3417 -1.9266
  387TIP3    H222653   1.283   6.782   1.812  1.0134 -1.9680  1.6158
  388TIP3   OH222654   2.678   6.130   1.868  0.0290 -0.3700  0.0916
  388TIP3    H122655   2.641   6.097   1.785  3.2736 -0.0421 -1.5459
  388TIP3    H222656   2.745   6.193   1.841  1.3625 -0.4840  2.9912
  389TIP3   OH222657   3.565   4.316  16.028  0.1716 -0.5190 -0.0959
  389TIP3    H122658   3.641   4.285  15.978  0.3044 -0.8802  0.3327
  389TIP3    H222659   3.596   4.319  16.119  0.4752  1.7969 -0.2357
  390TIP3   OH222660   6.427   0.183  11.528 -0.7928 -0.1215 -0.4232
  390TIP3    H122661   6.426   0.151  11.438 -0.5721 -0.4211 -0.3215
  390TIP3    H222662   6.513   0.158  11.561 -0.8553  0.0320 -0.1437
  391TIP3   OH222663   1.731   3.536   5.035  0.2272  0.1116 -0.0418
  391TIP3    H122664   1.681   3.471   5.086  0.2413 -0.0872 -0.2805
  391TIP3    H222665   1.666   3.599   5.007  0.3816  0.8132  1.1337
  392TIP3   OH222666   5.012   3.917   2.457  0.0386  0.3340 -0.3217
  392TIP3    H122667   4.937   3.887   2.407 -0.3933  1.3870 -0.3078
  392TIP3    H222668   5.041   3.997   2.413  2.0025 -0.7892 -1.1497
  393TIP3   OH222669   0.607   1.883  13.685 -0.4480 -0.7661 -0.3611
  393TIP3    H122670   0.521   1.873  13.645  0.3038  1.0766 -2.5526
  393TIP3    H222671   0.594   1.946  13.755 -0.9329 -0.6497 -0.5547
  394TIP3   OH222672   3.953   6.401  17.017  0.3211  0.2713  0.3867
  394TIP3    H122673   3.912   6.438  16.938 -2.4137 -2.0523  0.6495
  394TIP3    H222674   4.042   6.435  17.015  0.4953 -0.0887 -4.0064
  395TIP3   OH222675   4.539   2.864  10.887  0.0726 -0.4921 -0.0867
  395TIP3    H122676   4.499   2.914  10.958 -0.8726 -2.6490  0.9335
  395TIP3    H222677   4.607   2.922  10.853 -2.8571  2.6808 -0.8833
  396TIP3   OH222678   2.591   6.656   0.307  0.2074 -0.2943 -0.2946
  396TIP3    H122679   2.637   6.740   0.295 -1.6050  0.7707  0.0677
  396TIP3    H222680   2.654   6.602   0.356  1.3358  0.9042 -0.3793
  397TIP3   OH222681   4.651   4.935  16.928  0.2984  0.2071  0.6014
  397TIP3    H122682   4.705   4.870  16.974  0.4707 -0.1488 -0.0934
  397TIP3    H222683   4.714   5.000  16.897  0.1557  0.5708  1.0640
  398TIP3   OH222684   5.191   0.286   1.254 -0.3866  0.2415 -0.2419
  398TIP3    H122685   5.258   0.332   1.204  0.4679  0.4042  1.0320
  398TIP3    H222686   5.111   0.296   1.202  0.4599  0.4706 -1.5197
  399TIP3   OH222687   5.539   1.957   4.624 -0.0938 -0.3176 -0.1920
  399TIP3    H122688   5.495   2.039   4.649 -0.6534 -0.6745  0.0103
  399TIP3    H222689   5.485   1.923   4.552 -0.5564 -1.1101  0.5148
  400TIP3   OH222690   5.551   0.817   4.988  0.2789  0.3376  0.9581
  400TIP3    H122691   5.509   0.885   4.935 -0.5471  0.1073  1.3133
  400TIP3    H222692   5.539   0.846   5.079 -0.1731 -0.3323  1.1176
  401TIP3   OH222693   0.357   2.610   4.936 -0.2234  0.2227  0.8373
  401TIP3    H122694   0.365   2.591   4.843 -0.3527  1.7587  0.5030
  401TIP3    H222695   0.263   2.608   4.954 -0.2068  0.0742  0.9160
  402TIP3   OH222696   2.115   3.234  14.742  0.2102  0.1320 -0.4898
  402TIP3    H122697   2.066   3.174  14.799  0.2088  0.0745 -0.5528
  402TIP3    H222698   2.178   3.178  14.697  0.8939  0.3338  0.2027
  403TIP3   OH222699   2.232   1.022   2.862  0.3672  0.2582 -0.0027
  403TIP3    H122700   2.227   0.964   2.786  1.4300  1.9502 -1.3930
  403TIP3    H222701   2.232   0.963   2.937 -2.7052 -1.3931 -1.1907
  404TIP3   OH222702   1.784   6.362  17.055  0.2692  0.0777  0.0385
  404TIP3    H122703   1.853   6.371  17.121 -0.6590  1.1642  0.8764
  404TIP3    H222704   1.738   6.282  17.079 -0.5052  0.8414  1.1375
  405TIP3   OH222705   1.542   5.455   0.905 -0.3372  0.1069 -0.1079
  405TIP3    H122706   1.544   5.449   1.001 -1.1554  0.6373 -0.0504
  405TIP3    H222707   1.629   5.425   0.877  0.9250  2.5292  0.9515
  406TIP3   OH222708   5.727   0.243   0.739 -0.0451 -0.2883  0.3671
  406TIP3    H122709   5.740   0.239   0.644  2.2229 -0.3010  0.6401
  406TIP3    H222710   5.689   0.158   0.762 -0.5153 -0.3194 -0.5218
  407TIP3   OH222711   4.599   0.085   4.457  0.4486  0.2586  0.2634
  407TIP3    H122712   4.613   0.178   4.441  3.4462 -0.1295  0.3305
  407TIP3    H222713   4.563   0.081   4.546 -0.9528  1.4196 -0.2453
  408TIP3   OH222714   0.753   4.054   0.597  0.2094 -0.1502  0.3788
  408TIP3    H122715   0.748   3.977   0.540  1.6361  0.1685 -0.2019
  408TIP3    H222716   0.736   4.128   0.538 -1.2419 -0.0024  0.9489
  409TIP3   OH222717   0.639   0.853  11.293  0.4793 -0.1296  0.0131
  409TIP3    H122718   0.561   0.848  11.348 -0.3925  3.1218 -0.8117
  409TIP3    H222719   0.703   0.797  11.337 -2.1437 -2.5472  0.9187
  410TIP3   OH222720   5.890   4.727  14.296  0.0206  0.4419 -0.2216
  410TIP3    H122721   5.973   4.756  14.335  0.8082 -1.5677 -0.2891
  410TIP3    H222722   5.825   4.740  14.365  0.9456 -0.6997  0.9124
  411TIP3   OH222723   5.742   4.069  11.390 -0.6829 -0.1229 -0.1621
  411TIP3    H122724   5.810   4.106  11.447 -0.8166  1.2869 -0.8869
  411TIP3    H222725   5.791   4.027  11.319 -0.5357 -1.1398  0.5292
  412TIP3   OH222726   5.117   3.657  16.471  0.0906 -0.0247  0.0812
  412TIP3    H122727   5.088   3.730  16.417 -1.3034 -1.8050 -1.6514
  412TIP3    H222728   5.108   3.580  16.415  1.5674 -1.5507  1.8324
  413TIP3   OH222729   1.699   4.288   0.875  0.1764 -0.8849 -0.6584
  413TIP3    H122730   1.758   4.218   0.846  0.9111 -0.1928 -0.8611
  413TIP3    H222731   1.727   4.365   0.825  1.6444  0.4167  2.0631
  414TIP3   OH222732   3.087   6.684  17.156  0.6664 -0.1680 -0.1682
  414TIP3    H122733   3.148   6.720  17.221  1.1587 -1.6708  0.2381
  414TIP3    H222734   3.006   6.735  17.168  1.1840  0.4651  0.7069
  415TIP3   OH222735   5.719   3.725   2.786 -0.1570 -0.2639 -0.2580
  415TIP3    H122736   5.735   3.795   2.849  0.1264 -0.5174 -0.0494
  415TIP3    H222737   5.657   3.764   2.723  0.3221  0.3125 -0.3812
  416TIP3   OH222738   0.457   2.582  16.787 -0.0210  0.2322  0.2196
  416TIP3    H122739   0.382   2.524  16.779 -0.7032  1.0410  0.7154
  416TIP3    H222740   0.432   2.661  16.740  1.3376 -0.2692 -1.4095
  417TIP3   OH222741   0.637   0.401   1.491  0.1661 -0.0676  0.3699
  417TIP3    H122742   0.617   0.311   1.515  1.5038 -0.0863  1.4953
  417TIP3    H222743   0.634   0.403   1.396 -1.6085 -0.8822  0.4098
  418TIP3   OH222744   3.925   1.488   6.280 -0.3286 -0.3233  0.0137
  418TIP3    H122745   3.972   1.562   6.318 -0.7838  0.1524 -0.3433
  418TIP3    H222746   3.993   1.432   6.244  0.1797 -1.2244  2.2790
  419TIP3   OH222747   1.668   5.652   2.104 -0.8477 -0.4463  0.0710
  419TIP3    H122748   1.716   5.621   2.027  0.3097  0.2633  0.5023
  419TIP3    H222749   1.584   5.682   2.069 -1.3937 -2.5786 -0.5667
  420TIP3   OH222750   2.088   1.040   3.184  0.1259  0.3668  0.2424
  420TIP3    H122751   2.082   1.123   3.230  0.8750 -0.1063  1.2045
  420TIP3    H222752   2.041   1.055   3.101  0.9480  1.9806  0.0535
  421TIP3   OH222753   4.782   1.207   5.445  0.1615  0.0818  0.1034
  421TIP3    H122754   4.827   1.291   5.440  0.3111 -0.0417 -0.7635
  421TIP3    H222755   4.699   1.222   5.399  1.3442 -0.9727 -2.4740
  422TIP3   OH222756   4.331   4.998   6.000 -0.0494  0.4666  0.2848
  422TIP3    H122757   4.264   4.956   6.054  0.9024 -0.6417  0.6267
  422TIP3    H222758   4.387   5.045   6.062 -0.3615  1.1750  0.0289
  423TIP3   OH222759   3.866   3.833   1.985  0.4154  0.1717  0.6299
  423TIP3    H122760   3.913   3.781   2.049  0.7758  0.8068  0.8819
  423TIP3    H222761   3.884   3.791   1.901 -1.3535 -1.6167  1.1012
  424TIP3   OH222762   5.765   3.473   2.700 -0.4346 -0.0549 -0.1848
  424TIP3    H122763   5.756   3.559   2.743 -0.9411  0.3020 -0.9807
  424TIP3    H222764   5.817   3.491   2.622 -0.4538 -0.4909 -0.2979
  425TIP3   OH222765   6.771   4.219  15.026  0.4900  0.2033 -0.3182
  425TIP3    H122766   6.825   4.277  14.973 -1.2762  1.3783 -0.9134
  425TIP3    H222767   6.702   4.188  14.966 -2.6213  3.0017  1.6075
  426TIP3   OH222768   3.769   3.469   5.211 -0.5625  0.0221 -1.0984
  426TIP3    H122769   3.726   3.543   5.168 -0.7711 -0.9296 -2.5615
  426TIP3    H222770   3.737   3.471   5.301 -0.3658  1.8603 -1.0585
  427TIP3   OH222771   2.883   0.684  15.124 -0.1844  0.6969  0.4842
  427TIP3    H122772   2.794   0.650  15.134 -0.1411  0.4802  0.1479
  427TIP3    H222773   2.939   0.614  15.158 -0.0121 -0.2101 -1.5365
  428TIP3   OH222774   5.708   3.990  13.947  0.0149 -0.6911 -0.4364
  428TIP3    H122775   5.776   4.051  13.977 -2.0752  1.3211  0.4131
  428TIP3    H222776   5.745   3.903  13.963  2.3302  0.3364  0.0980
  429TIP3   OH222777   1.825   6.426  11.429 -0.3790  0.1144 -0.0361
  429TIP3    H122778   1.897   6.402  11.370 -0.0298 -1.4455  1.0032
  429TIP3    H222779   1.798   6.513  11.398  0.6481 -0.1089 -1.6697
  430TIP3   OH222780   1.297   5.500  15.839 -0.5292 -0.1763 -0.4760
  430TIP3    H122781   1.300   5.585  15.883  1.7940 -1.3446  1.7899
  430TIP3    H222782   1.361   5.508  15.768  1.9516 -0.9435  1.6011
  431TIP3   OH222783   3.609   4.260  11.438 -0.5540  0.6301  0.3581
  431TIP3    H122784   3.652   4.220  11.514 -2.0954  0.2443  1.0457
  431TIP3    H222785   3.570   4.340  11.473 -0.3060  1.0292 -0.2819
  432TIP3   OH222786   6.699   6.061  11.076 -0.3720 -0.1082 -0.1482
  432TIP3    H122787   6.787   6.047  11.042 -0.3240 -0.5808  0.1641
  432TIP3    H222788   6.685   6.155  11.070  1.6961  0.5146  3.5461
  433TIP3   OH222789   3.913   0.110  12.565 -0.7045  0.2644  0.2756
  433TIP3    H122790   3.832   0.144  12.603 -1.4446 -0.2686 -0.7902
  433TIP3    H222791   3.884   0.055  12.492  0.6690  1.0597 -0.9013
  434TIP3   OH222792   0.722   4.747  11.817  0.4520 -0.1989  0.7597
  434TIP3    H122793   0.659   4.808  11.777  0.5831 -0.3760  0.2831
  434TIP3    H222794   0.668   4.684  11.864  0.2464 -0.7209 -0.1729
  435TIP3   OH222795   0.795   4.701  14.543 -0.2213  0.2105 -0.3112
  435TIP3    H122796   0.885   4.729  14.525 -0.1269 -0.2362 -0.5339
  435TIP3    H222797   0.785   4.714  14.638  0.4730 -0.8865 -0.0812
  436TIP3   OH222798   2.621   1.402   2.791 -0.1187  0.4952 -0.1558
  436TIP3    H122799   2.641   1.370   2.703 -0.4703 -0.2738  0.0399
  436TIP3    H222800   2.615   1.323   2.845 -0.7025  0.9104  0.3992
  437TIP3   OH222801   4.579   0.100   4.725  0.8318  0.2973  0.0365
  437TIP3    H122802   4.667   0.138   4.722  2.0772 -2.4301  0.4350
  437TIP3    H222803   4.560   0.091   4.818 -0.8628  2.9619 -0.0025
  438TIP3   OH222804   3.569   3.998  16.546  0.2118 -0.1906  0.6945
  438TIP3    H122805   3.563   3.915  16.593 -1.2437  0.0753  0.9952
  438TIP3    H222806   3.619   4.055  16.606 -1.3399  0.0416  1.8060
  439TIP3   OH222807   0.217   6.091   3.877  0.2776  0.0533  0.0661
  439TIP3    H122808   0.312   6.096   3.865  0.3173 -1.0092 -0.1499
  439TIP3    H222809   0.207   6.055   3.966  0.0537  1.7080  0.7316
  440TIP3   OH222810   4.327   2.327   3.617 -0.0551 -0.0137 -0.7539
  440TIP3    H122811   4.295   2.290   3.535 -1.3325 -2.4458  0.8018
  440TIP3    H222812   4.283   2.277   3.686  0.5702  2.3173  1.4450
  441TIP3   OH222813   0.527   1.974   4.354  0.1946  0.0860  0.3463
  441TIP3    H122814   0.608   1.965   4.404 -0.5263  0.1051  1.5204
  441TIP3    H222815   0.504   2.067   4.362  0.5475  0.2849 -0.7751
  442TIP3   OH222816   2.266   3.594   0.363  0.0488  0.0093 -0.1960
  442TIP3    H122817   2.272   3.637   0.278 -0.5240  0.2656 -0.1080
  442TIP3    H222818   2.262   3.501   0.343 -0.7549  0.1041 -0.4772
  443TIP3   OH222819   3.109   3.655   4.109 -0.5883  0.7900  0.4511
  443TIP3    H122820   3.099   3.646   4.014 -0.1583  0.9613  0.3884
  443TIP3    H222821   3.199   3.625   4.127 -1.3336 -1.1814  1.0638
  444TIP3   OH222822   4.877   1.805  15.399 -0.4696  0.1225  0.1531
  444TIP3    H122823   4.941   1.875  15.412 -0.2511 -0.3699  1.7392
  444TIP3    H222824   4.859   1.807  15.305 -1.0881  2.8535  0.2959
  445TIP3   OH222825   4.110   6.248  10.654 -0.0505  0.2011 -0.2560
  445TIP3    H122826   4.018   6.273  10.653 -0.2972 -0.6581  1.1264
  445TIP3    H222827   4.109   6.153  10.656  0.8799  0.1862 -0.3545
  446TIP3   OH222828   0.998   2.400   1.085 -0.1060  0.2072 -0.4964
  446TIP3    H122829   1.063   2.335   1.058 -1.6606 -1.7245  0.2693
  446TIP3    H222830   0.936   2.404   1.012 -0.1322  0.6680 -0.4494
  447TIP3   OH222831   5.358   4.964  16.369 -0.3071 -0.0569  0.0964
  447TIP3    H122832   5.407   5.046  16.366  0.9524 -0.7992  0.0698
  447TIP3    H222833   5.346   4.947  16.463 -1.3841  0.6312  0.0857
  448TIP3   OH222834   3.568   5.067  10.889  0.5320 -0.6329 -0.3028
  448TIP3    H122835   3.567   5.106  10.977  0.2440 -0.3324 -0.4413
  448TIP3    H222836   3.552   5.140  10.830 -1.2480 -1.1695 -0.4844
  449TIP3   OH222837   4.115   6.298   2.093 -0.0809 -0.0169 -0.4066
  449TIP3    H122838   4.079   6.383   2.069  1.2728  0.2233 -1.6640
  449TIP3    H222839   4.101   6.243   2.016 -1.4546 -1.1136  0.5993
  450TIP3   OH222840   5.222   1.239  15.549 -0.3659 -0.6823 -0.3954
  450TIP3    H122841   5.149   1.300  15.549 -0.6209 -0.9786  0.2493
  450TIP3    H222842   5.227   1.207  15.459 -1.5604 -1.2867 -0.2640
  451TIP3   OH222843   0.812   4.962   4.491 -0.0570 -0.7935  0.2348
  451TIP3    H122844   0.730   5.006   4.467  0.3984 -0.4740 -0.7509
  451TIP3    H222845   0.818   4.974   4.586 -0.7421 -0.1148  0.2010
  452TIP3   OH222846   1.390   5.304  11.450  0.1254  0.4230  0.4044
  452TIP3    H122847   1.461   5.363  11.476  0.5528 -0.1294  0.5142
  452TIP3    H222848   1.388   5.237  11.519 -0.0769  0.0774  0.0643
  453TIP3   OH222849   1.182   3.717   1.260 -0.3958 -0.3034 -0.1065
  453TIP3    H122850   1.087   3.713   1.250 -0.3170  0.1459 -1.0364
  453TIP3    H222851   1.204   3.635   1.305 -1.2403 -0.3141  0.3079
  454TIP3   OH222852   4.551   0.888  13.397  0.0746 -0.9380 -0.1063
  454TIP3    H122853   4.500   0.921  13.471  0.3523 -2.2259  0.6626
  454TIP3    H222854   4.589   0.967  13.358 -0.8224 -0.1648  0.5642
  455TIP3   OH222855   0.505   1.558  12.962 -0.0085  0.1008  0.1505
  455TIP3    H122856   0.416   1.532  12.986 -0.1651  0.0106 -0.5359
  455TIP3    H222857   0.538   1.485  12.909  1.1354 -0.7293  1.9337
  456TIP3   OH222858   5.697   1.298   3.817 -0.1190  0.0467  0.0250
  456TIP3    H122859   5.607   1.328   3.831 -0.6641 -0.8490 -1.5471
  456TIP3    H222860   5.739   1.370   3.770 -0.2121  0.1432  0.0878
  457TIP3   OH222861   0.534   6.801   3.467 -0.3397 -0.2444  0.1375
  457TIP3    H122862   0.459   6.774   3.520  0.4627  0.0643  1.4418
  457TIP3    H222863   0.544   6.894   3.484  1.1548 -0.5463  1.0096
  458TIP3   OH222864   1.891   5.717  15.724 -0.0538  0.4533  0.0428
  458TIP3    H122865   1.917   5.664  15.649  0.8392  0.0127  0.6499
  458TIP3    H222866   1.822   5.666  15.767 -1.5030  1.3152 -1.1978
  459TIP3   OH222867   3.012   5.707   3.310 -0.5743  0.0278 -0.0922
  459TIP3    H122868   2.991   5.768   3.381 -0.7214 -0.8853  0.6613
  459TIP3    H222869   2.995   5.620   3.347  0.0275 -0.4957 -1.0114
  460TIP3   OH222870   5.743   0.322   5.408 -0.9634  0.8586 -0.3373
  460TIP3    H122871   5.831   0.328   5.371 -0.9849  1.6819 -0.2658
  460TIP3    H222872   5.755   0.267   5.487 -1.1281 -1.8363 -2.1196
  461TIP3   OH222873   5.752   4.081   2.334 -0.2077  0.0425  0.3810
  461TIP3    H122874   5.708   3.996   2.332  1.1226 -0.6370 -0.2338
  461TIP3    H222875   5.841   4.063   2.306  0.3984  1.4656  1.3419
  462TIP3   OH222876   1.942   2.852   4.990  0.2243  0.0699 -0.3455
  462TIP3    H122877   2.032   2.859   4.960  0.5515 -0.8038  0.3836
  462TIP3    H222878   1.928   2.758   5.002  0.3635  0.3756  2.9027
  463TIP3   OH222879   3.517   5.984  11.167 -0.3328  0.1219  0.2629
  463TIP3    H122880   3.576   6.030  11.108  0.3504  0.2642  1.0407
  463TIP3    H222881   3.528   5.891  11.146  0.0164  0.1640  0.2671
  464TIP3   OH222882   2.018   5.440  14.827  0.9715  0.1799  0.2569
  464TIP3    H122883   1.931   5.450  14.790  0.6949  2.0198  1.3866
  464TIP3    H222884   2.030   5.516  14.884  2.6054 -0.9833  1.5283
  465TIP3   OH222885   4.647   6.788  10.008  0.5599 -0.7197  0.3117
  465TIP3    H122886   4.605   6.715   9.963  3.0875 -3.0032  1.5225
  465TIP3    H222887   4.691   6.748  10.084  2.1090  2.0205  0.9332
  466TIP3   OH222888   4.852   1.510   0.635 -0.1075  0.8066  0.0739
  466TIP3    H122889   4.791   1.558   0.691 -0.6359 -0.2895  0.4564
  466TIP3    H222890   4.889   1.442   0.692 -0.9854 -0.6071 -0.9955
  467TIP3   OH222891   0.255   6.755   6.483  0.5548  0.0906  0.2859
  467TIP3    H122892   0.262   6.850   6.476  0.4626  0.2458  1.9943
  467TIP3    H222893   0.337   6.728   6.523  0.4769 -0.5267  0.0385
  468TIP3   OH222894   4.538   3.261   0.771 -0.0160 -0.1654  0.1607
  468TIP3    H122895   4.530   3.209   0.851 -2.6870 -0.7221 -0.4085
  468TIP3    H222896   4.526   3.198   0.700 -1.5717  0.9099 -0.5731
  469TIP3   OH222897   5.698   1.356  15.336  0.1993 -1.1300  0.0936
  469TIP3    H122898   5.725   1.319  15.252 -0.0369 -2.5588  0.6319
  469TIP3    H222899   5.779   1.385  15.377  0.2482  0.1819 -0.8993
  470TIP3   OH222900   2.630   2.077   3.919  0.4305 -1.0290 -0.7955
  470TIP3    H122901   2.541   2.101   3.944  0.5155  0.1510 -1.5726
  470TIP3    H222902   2.680   2.080   4.001  0.3141  0.9561 -0.7682
  471TIP3   OH222903   1.383   2.733   5.093  0.2190  0.1607 -0.4419
  471TIP3    H122904   1.446   2.671   5.056  0.6249  0.4425 -0.2317
  471TIP3    H222905   1.315   2.677   5.132  0.1741 -0.1390 -0.9485
  472TIP3   OH222906   3.856   5.997   4.336  0.2647  0.1082 -0.0860
  472TIP3    H122907   3.870   6.027   4.246  1.6207 -2.2991 -0.7564
  472TIP3    H222908   3.944   5.976   4.368 -0.4113 -1.3175  0.9355
  473TIP3   OH222909   4.501   1.261  11.942  0.1882 -0.1664 -0.1944
  473TIP3    H122910   4.462   1.178  11.913  1.1439 -0.6956 -0.0013
  473TIP3    H222911   4.461   1.328  11.887 -2.4725 -0.4404  1.3169
  474TIP3   OH222912   4.183   2.397  12.630 -0.0568  0.1850  0.3672
  474TIP3    H122913   4.131   2.400  12.710  0.1969 -0.2447  0.5510
  474TIP3    H222914   4.241   2.322  12.642  0.1379  0.2544 -0.1242
  475TIP3   OH222915   2.839   5.110  15.857 -0.6834  0.2998 -0.2228
  475TIP3    H122916   2.885   5.103  15.941 -0.8231  0.9726 -0.0859
  475TIP3    H222917   2.747   5.117  15.881 -0.4894  3.6151 -0.2718
  476TIP3   OH222918   6.126   4.286  16.669  0.4342  0.6604 -0.0200
  476TIP3    H122919   6.121   4.275  16.764  3.6801 -2.7206 -0.1174
  476TIP3    H222920   6.067   4.220  16.633  1.8496 -0.4556 -0.3490
  477TIP3   OH222921   6.626   0.493  15.186  0.5336 -0.2474  0.4452
  477TIP3    H122922   6.608   0.545  15.108  2.4881  0.1028  0.1901
  477TIP3    H222923   6.550   0.436  15.195 -0.6653  1.1525 -0.5029
  478TIP3   OH222924   3.705   3.824   0.539 -0.4059 -0.0160  0.0464
  478TIP3    H122925   3.756   3.743   0.541  3.5351  2.2644 -1.9608
  478TIP3    H222926   3.699   3.851   0.631  0.2076 -1.4489  0.5142
  479TIP3   OH222927   6.293   4.722  15.576 -0.4745  0.6749  0.0844
  479TIP3    H122928   6.354   4.648  15.577  0.1895  1.2128  0.4446
  479TIP3    H222929   6.209   4.685  15.600 -0.1038  0.0699  0.4601
  480TIP3   OH222930   0.007   1.217  12.714  0.3020 -0.0356 -0.3865
  480TIP3    H122931   0.013   1.135  12.663  2.3002 -0.0869 -0.0903
  480TIP3    H222932  -0.072   1.206  12.767 -0.6037 -0.8988 -1.8801
  481TIP3   OH222933   1.478   0.022  16.799 -0.7114  0.1161  0.2743
  481TIP3    H122934   1.568   0.023  16.831 -0.8095  1.2905  0.5351
  481TIP3    H222935   1.451  -0.069  16.807  0.6044 -0.3252 -0.2487
  482TIP3   OH222936   5.217   0.218  11.921 -0.7529 -1.0071 -0.3840
  482TIP3    H122937   5.170   0.250  11.844  0.6537 -0.8956 -1.2141
  482TIP3    H222938   5.279   0.288  11.942 -1.9505 -0.4924  1.6068
  483TIP3   OH222939   3.934   0.736  16.733  0.2124 -0.3816  0.1807
  483TIP3    H122940   4.018   0.698  16.760  0.2731 -2.1968 -2.4334
  483TIP3    H222941   3.948   0.764  16.643 -1.6515  0.4091  0.1197
  484TIP3   OH222942   1.433   2.967  10.734  0.3998 -0.6737 -0.1707
  484TIP3    H122943   1.492   2.901  10.771  1.4776  0.5199  0.2992
  484TIP3    H222944   1.349   2.951  10.777  0.9250 -1.0639  0.7335
  485TIP3   OH222945   0.792   1.248  17.157 -0.0665  0.1137  0.1110
  485TIP3    H122946   0.793   1.310  17.229  2.2498 -0.9822  1.0711
  485TIP3    H222947   0.859   1.279  17.097  0.5849 -1.0179  0.2366
  486TIP3   OH222948   1.481   1.631   1.819 -0.2651  0.0441  0.1237
  486TIP3    H122949   1.556   1.576   1.840  0.8591  1.2406 -0.7277
  486TIP3    H222950   1.405   1.576   1.840  0.8268 -0.8920  1.7166
  487TIP3   OH222951   4.238   3.823  11.909  0.1601 -0.2396  0.3749
  487TIP3    H122952   4.228   3.736  11.869 -1.5902 -0.0015  0.2623
  487TIP3    H222953   4.158   3.870  11.885  1.5044  1.7381 -0.3817
  488TIP3   OH222954   4.388   2.321   4.010  0.0102 -0.1204  0.4403
  488TIP3    H122955   4.367   2.228   4.010 -0.8529  0.0736  1.1362
  488TIP3    H222956   4.437   2.334   4.092 -0.4543  0.1723  0.6695
  489TIP3   OH222957   2.872   4.441  12.939 -0.4002 -0.1455  0.1061
  489TIP3    H122958   2.843   4.452  13.029  1.5632  0.0700  0.7349
  489TIP3    H222959   2.821   4.505  12.889 -2.0208 -0.7737  0.9342
  490TIP3   OH222960   4.914   1.666  14.371 -0.3710 -0.0009 -0.4926
  490TIP3    H122961   4.826   1.660  14.407  0.3797  1.4485  1.6182
  490TIP3    H222962   4.932   1.760  14.365  2.0191 -0.2833  1.6013
  491TIP3   OH222963   5.781   0.134   4.205  0.0275 -0.2180 -0.3050
  491TIP3    H122964   5.837   0.196   4.158  3.0304 -2.0642  0.7232
  491TIP3    H222965   5.759   0.179   4.287  0.5757  0.2590 -0.4178
  492TIP3   OH222966   3.597   0.797   1.599 -0.4562  0.0037  0.2152
  492TIP3    H122967   3.561   0.856   1.532 -1.3566  0.6485  1.2475
  492TIP3    H222968   3.577   0.709   1.567 -0.4321  0.2971 -0.6128
  493TIP3   OH222969   1.432   6.111   4.405  0.3379  0.0881 -0.1865
  493TIP3    H122970   1.421   6.021   4.435  0.9885 -0.6135 -1.9664
  493TIP3    H222971   1.374   6.163   4.462  1.5550 -1.1364  2.2472
  494TIP3   OH222972   2.381   3.222  16.673  0.6272  0.0104  0.0130
  494TIP3    H122973   2.335   3.253  16.596  0.4672 -1.5012 -0.5302
  494TIP3    H222974   2.470   3.255  16.663  1.2136 -2.0432 -1.9948
  495TIP3   OH222975   3.009   4.558   1.712  0.1938  0.2519 -0.2083
  495TIP3    H122976   3.012   4.477   1.660  0.5321 -0.2568  0.5829
  495TIP3    H222977   3.078   4.613   1.675 -1.3867  1.0005 -2.0647
  496TIP3   OH222978   5.665   0.090   0.997 -0.7587 -0.2477  0.1577
  496TIP3    H122979   5.721   0.022   1.033  1.2147  2.5098  2.5397
  496TIP3    H222980   5.586   0.087   1.051 -0.4464 -0.2577  0.6131
  497TIP3   OH222981   4.584   4.145   1.678 -0.0890  0.3198  0.0759
  497TIP3    H122982   4.655   4.210   1.676  0.8591 -0.6749  0.6976
  497TIP3    H222983   4.606   4.083   1.609 -0.2931 -0.0539  0.3482
  498TIP3   OH222984   1.597   3.050   0.594 -0.8878  0.6639  0.0937
  498TIP3    H122985   1.545   2.970   0.608 -1.0839  0.8284  0.3114
  498TIP3    H222986   1.542   3.104   0.537 -1.0653  0.9453  0.5338
  499TIP3   OH222987   1.167   1.473  16.675  0.1754 -0.0130  0.5758
  499TIP3    H122988   1.087   1.508  16.713  1.0809  1.7375  0.9459
  499TIP3    H222989   1.138   1.407  16.612 -1.4923 -0.1044  1.4289
  500TIP3   OH222990   5.649   4.125  14.827  0.2045  0.3732  0.9088
  500TIP3    H122991   5.594   4.057  14.866 -0.1905 -0.5934 -1.2337
  500TIP3    H222992   5.673   4.182  14.900 -0.1286 -1.6068  2.6215
  501TIP3   OH222993   4.630   3.537   1.107  0.1395 -0.2238  0.2229
  501TIP3    H122994   4.702   3.555   1.048  0.3957  1.1907  0.9250
  501TIP3    H222995   4.666   3.477   1.173  0.3407 -0.4267 -0.0748
  502TIP3   OH222996   0.352   5.674   2.197 -0.1080  0.5953 -0.3940
  502TIP3    H122997   0.310   5.593   2.223  1.9902 -0.3750  0.0671
  502TIP3    H222998   0.289   5.743   2.221 -1.2231 -0.7685  0.6529
  503TIP3   OH222999   6.052   5.210  11.360  0.7025  0.2985 -0.4462
  503TIP3    H123000   5.967   5.174  11.337  1.5340 -3.3751  1.7689
  503TIP3    H223001   6.115   5.157  11.311  1.8256  1.9740 -0.8890
  504TIP3   OH223002   3.848   4.459   6.144  0.2518  0.2465 -0.2412
  504TIP3    H123003   3.895   4.383   6.178 -0.0722 -0.0789 -0.5141
  504TIP3    H223004   3.757   4.428   6.134 -0.0881  0.9448  0.5542
  505TIP3   OH223005   1.274   0.779   6.591  0.7868 -0.1250  0.4185
  505TIP3    H123006   1.340   0.741   6.533 -0.0615  0.9970 -1.3419
  505TIP3    H223007   1.316   0.857   6.627  0.6724  0.2086 -0.1648
  506TIP3   OH223008   4.112   3.454   3.452  0.4484  0.4839  0.3143
  506TIP3    H123009   4.146   3.542   3.441 -0.1002  0.7298  0.5911
  506TIP3    H223010   4.064   3.457   3.535  4.0486 -1.1590  2.6394
  507TIP3   OH223011   6.241   0.723   1.523  0.4312 -0.0110  0.0984
  507TIP3    H123012   6.174   0.745   1.588 -0.2001 -0.5511 -0.3723
  507TIP3    H223013   6.299   0.662   1.569  0.1374 -0.1839  0.2396
  508TIP3   OH223014   4.586   2.524   0.670 -0.0155  0.1707 -0.1459
  508TIP3    H123015   4.585   2.444   0.722  0.7185  0.2876  0.0417
  508TIP3    H223016   4.494   2.551   0.666  0.0733  0.9135  2.2316
  509TIP3   OH223017   5.550   1.757   2.330 -0.1543  0.4664  0.2013
  509TIP3    H123018   5.641   1.788   2.334 -0.8298  2.5233  0.6618
  509TIP3    H223019   5.527   1.762   2.237  0.3743 -0.5724  0.0162
  510TIP3   OH223020   2.149   0.500  12.127  0.3573 -0.3773  0.0731
  510TIP3    H123021   2.140   0.562  12.055 -0.1814 -1.0371 -0.4244
  510TIP3    H223022   2.140   0.554  12.206 -1.2514  0.0066 -0.3600
  511TIP3   OH223023   2.887   1.858   3.611  0.0979 -0.2866  0.0346
  511TIP3    H123024   2.877   1.832   3.702  0.8513 -0.5711  0.0413
  511TIP3    H223025   2.916   1.949   3.615 -2.0046  0.4132  0.0222
  512TIP3   OH223026   0.020   6.550   2.111 -0.2484  0.7127  0.5532
  512TIP3    H123027   0.018   6.543   2.206 -0.2021  1.7026  0.6303
  512TIP3    H223028   0.078   6.624   2.094  2.0091 -1.1672 -0.3323
  513TIP3   OH223029   1.491   5.992   0.559 -0.1327  0.1307  0.4944
  513TIP3    H123030   1.412   5.946   0.587 -0.3303  0.3648  0.3220
  513TIP3    H223031   1.563   5.942   0.599 -0.4175  0.6318  1.6780
  514TIP3   OH223032   4.772   1.380  15.018  0.5982 -0.0961  0.6400
  514TIP3    H123033   4.771   1.469  15.054  2.1190  0.6009 -0.9639
  514TIP3    H223034   4.689   1.373  14.970 -0.0850  0.0145  1.7931
  515TIP3   OH223035   0.797   3.362   4.992 -0.5225  0.5759 -0.4761
  515TIP3    H123036   0.868   3.411   5.032  1.0655 -0.1995 -2.2762
  515TIP3    H223037   0.820   3.270   5.006 -0.0211  0.2925 -2.9566
  516TIP3   OH223038   2.585   0.359   0.673  0.1029  0.4166  1.2836
  516TIP3    H123039   2.618   0.269   0.667 -0.1501  0.2833  1.8978
  516TIP3    H223040   2.534   0.371   0.593 -0.1522 -0.1000  1.3663
  517TIP3   OH223041   5.192   2.352  12.074  0.3373 -0.2570 -0.3166
  517TIP3    H123042   5.235   2.270  12.048  1.2458  0.2455 -0.4053
  517TIP3    H223043   5.155   2.333  12.160  0.7487 -0.6893 -0.2328
  518TIP3   OH223044   4.481   2.221  12.186 -0.1153 -0.5094 -0.3169
  518TIP3    H123045   4.506   2.133  12.158 -0.5809 -1.1305  1.1854
  518TIP3    H223046   4.525   2.279  12.124 -0.6061 -1.8193 -1.9475
  519TIP3   OH223047   0.847   5.098  11.618  0.0192 -0.0525  0.4068
  519TIP3    H123048   0.832   5.189  11.644 -1.8263 -0.0271 -0.6716
  519TIP3    H223049   0.788   5.047  11.674 -1.4368 -0.2739 -1.2593
  520TIP3   OH223050   1.263   3.585  13.664  0.1886  0.9393 -0.3032
  520TIP3    H123051   1.293   3.558  13.577  1.2879  2.0623 -0.2986
  520TIP3    H223052   1.182   3.633  13.648 -1.3749 -1.6282 -0.3768
  521TIP3   OH223053   5.539   3.188   5.511  0.5900 -0.0726 -0.0174
  521TIP3    H123054   5.591   3.165   5.434 -0.2645 -1.5651 -0.1720
  521TIP3    H223055   5.554   3.117   5.573 -0.0773  0.2358  0.5108
  522TIP3   OH223056   1.085   6.482  15.172 -0.0568  0.4213 -0.5762
  522TIP3    H123057   1.101   6.387  15.170 -1.4672  0.2202 -2.8169
  522TIP3    H223058   1.170   6.519  15.194  1.0443 -1.2496 -1.8699
  523TIP3   OH223059   3.573   5.083  15.368  0.1725 -0.3651  0.3470
  523TIP3    H123060   3.489   5.121  15.342 -0.2762 -1.4212  0.2138
  523TIP3    H223061   3.612   5.053  15.286  1.6152  1.9401  0.1579
  524TIP3   OH223062   1.405   1.463  16.424  0.1063 -0.2760  0.3838
  524TIP3    H123063   1.313   1.435  16.413  0.2490 -0.2370 -1.0396
  524TIP3    H223064   1.433   1.485  16.335  1.9611 -1.7422  0.5936
  525TIP3   OH223065   0.882   5.036  16.192 -0.1707 -0.1681 -0.2731
  525TIP3    H123066   0.886   5.052  16.098  4.8666 -2.0243 -0.5408
  525TIP3    H223067   0.919   5.115  16.231  0.9952 -0.7807 -0.1100
  526TIP3   OH223068   6.641   5.173   4.411 -0.6070  0.3633  0.2376
  526TIP3    H123069   6.553   5.137   4.396  0.0774 -0.7674 -1.1745
  526TIP3    H223070   6.627   5.267   4.419 -2.1578  0.0376  1.7321
  527TIP3   OH223071   3.537   0.780   6.081 -0.0790  0.7708  0.8325
  527TIP3    H123072   3.503   0.691   6.079 -0.3647  0.8946 -1.4961
  527TIP3    H223073   3.616   0.775   6.134  0.1289 -0.9481  0.3737
  528TIP3   OH223074   2.658   2.554   0.274  0.3470 -0.0887  0.2360
  528TIP3    H123075   2.753   2.571   0.269  0.4165 -0.5103  0.0865
  528TIP3    H223076   2.625   2.620   0.334  0.5767  0.7397 -0.5312
  529TIP3   OH223077   6.345   2.031  15.366 -0.7750  0.1177 -0.3964
  529TIP3    H123078   6.337   2.035  15.461  1.5735  0.2782 -0.1974
  529TIP3    H223079   6.411   2.096  15.344 -2.2805  1.0637 -2.2936
  530TIP3   OH223080   5.828   2.479  17.097 -0.0032  0.5201  0.3254
  530TIP3    H123081   5.742   2.444  17.073  0.2853 -0.3829  0.5811
  530TIP3    H223082   5.855   2.531  17.022  0.7425 -2.0047 -1.2015
  531TIP3   OH223083   5.667   0.778  11.459  0.1471  0.0496  0.6893
  531TIP3    H123084   5.642   0.728  11.537 -0.9228  0.9019  0.9084
  531TIP3    H223085   5.707   0.858  11.493  0.0592  0.2356  0.3588
  532TIP3   OH223086   6.181   0.739  11.374  0.5913  0.3226 -0.2373
  532TIP3    H123087   6.221   0.702  11.295 -0.3087 -0.3979 -0.3653
  532TIP3    H223088   6.106   0.683  11.391 -0.8028  2.0767 -0.4193
  533TIP3   OH223089   4.790   3.804   1.729 -0.0356 -0.0317  0.5069
  533TIP3    H123090   4.733   3.731   1.752  0.4577 -1.5580 -2.8094
  533TIP3    H223091   4.751   3.840   1.649  1.6386  1.1727  0.2073
  534TIP3   OH223092   6.373   4.868  15.799  0.2570 -0.6740  0.2547
  534TIP3    H123093   6.464   4.842  15.808  0.0782 -1.5450 -0.3227
  534TIP3    H223094   6.345   4.830  15.715 -0.3577  0.4192 -0.0489
  535TIP3   OH223095   1.249   4.911  10.408  0.0521 -0.3019 -0.3676
  535TIP3    H123096   1.318   4.865  10.456 -0.9734 -1.2756  0.1910
  535TIP3    H223097   1.225   4.985  10.463 -2.4442 -2.4758  1.5664
  536TIP3   OH223098   6.220   5.620   1.166  0.4764 -0.0559 -0.7914
  536TIP3    H123099   6.267   5.611   1.249  0.5068  0.1223 -0.7879
  536TIP3    H223100   6.268   5.564   1.105 -0.3205 -1.2224 -0.3721
  537TIP3   OH223101   1.651   6.780   6.061 -0.0913  0.3530  0.0920
  537TIP3    H123102   1.719   6.794   5.995  0.5293 -0.2918  0.5890
  537TIP3    H223103   1.633   6.686   6.058 -0.9221  0.5109  0.0054
  538TIP3   OH223104   5.988   4.262   2.433 -0.2095 -0.5709 -0.3141
  538TIP3    H123105   5.985   4.298   2.521 -1.1361 -2.6042  0.5071
  538TIP3    H223106   5.909   4.295   2.390 -0.1761 -0.2464 -0.1229
  539TIP3   OH223107   6.500   0.176  17.255  0.4898  0.6793 -0.3387
  539TIP3    H123108   6.446   0.238  17.206  0.1286  2.6244  2.4106
  539TIP3    H223109   6.585   0.218  17.261  0.3085  0.8545  1.3314
  540TIP3   OH223110   2.698   5.422   0.810 -0.1206  0.4822 -0.7211
  540TIP3    H123111   2.664   5.375   0.735 -1.7234  1.3972 -0.5961
  540TIP3    H223112   2.667   5.512   0.798  0.4201  0.8511  0.5307
  541TIP3   OH223113   3.452   0.681   5.011  0.7782 -0.3756 -0.4695
  541TIP3    H123114   3.513   0.754   5.021  0.7721 -0.2927 -1.0297
  541TIP3    H223115   3.485   0.614   5.070  1.6711 -0.4959 -1.0939
  542TIP3   OH223116   3.745   4.109  12.834  0.0689 -0.2527  0.3446
  542TIP3    H123117   3.667   4.072  12.875 -0.3747 -0.6828 -0.8601
  542TIP3    H223118   3.753   4.196  12.872 -0.7652 -0.3586  0.7786
  543TIP3   OH223119   0.770   2.982  13.345  0.7141  0.3729 -0.6692
  543TIP3    H123120   0.799   2.892  13.356 -0.8886 -0.0582  0.1762
  543TIP3    H223121   0.686   2.986  13.391  1.7243  2.8065  1.0919
  544TIP3   OH223122   0.186   5.445  11.474  0.0991 -0.4890 -0.1843
  544TIP3    H123123   0.147   5.398  11.548  0.0834  1.0426  0.8128
  544TIP3    H223124   0.147   5.533  11.478  0.5139 -0.2262 -1.6826
  545TIP3   OH223125   5.720   2.705  16.634  0.2419 -0.1175 -0.7875
  545TIP3    H123126   5.796   2.720  16.579  0.8218  0.1837  0.0924
  545TIP3    H223127   5.755   2.663  16.713 -0.2706  1.4657  0.3104
  546TIP3   OH223128   3.191   5.713   5.901  0.5868 -0.3575  0.5691
  546TIP3    H123129   3.164   5.655   5.972 -1.2314 -1.3275 -0.8728
  546TIP3    H223130   3.189   5.658   5.823 -1.4563  1.6588 -0.8717
  547TIP3   OH223131   1.112   0.065  14.706 -0.0981 -0.9853  0.3065
  547TIP3    H123132   1.087   0.045  14.796 -1.0973  0.2467  0.3275
  547TIP3    H223133   1.156   0.150  14.711 -0.0573 -0.9603 -0.3443
  548TIP3   OH223134   0.846   4.967  13.600 -0.1294  0.0789  1.3780
  548TIP3    H123135   0.803   5.018  13.532  0.4664 -1.4554 -0.2008
  548TIP3    H223136   0.918   5.023  13.630 -0.7069  0.9791  1.0930
  549TIP3   OH223137   3.201   1.869  12.636 -0.0157 -0.5415  0.1177
  549TIP3    H123138   3.289   1.878  12.600 -0.1158 -2.6338 -0.7333
  549TIP3    H223139   3.214   1.828  12.722 -0.1587 -1.1243 -0.1326
  550TIP3   OH223140   1.644   6.721  15.320  0.1516 -0.6513  0.0801
  550TIP3    H123141   1.729   6.676  15.317  0.3398 -0.2233 -1.4730
  550TIP3    H223142   1.633   6.758  15.233 -1.5374 -0.4969  0.3343
  551TIP3   OH223143   5.382   2.418  11.799 -0.4429  0.2065  0.2905
  551TIP3    H123144   5.388   2.328  11.832 -3.7826  0.3978  1.6757
  551TIP3    H223145   5.473   2.448  11.793  0.5804 -2.0596  3.2470
  552TIP3   OH223146   0.140   3.892  16.539  0.1761 -0.1702  0.2657
  552TIP3    H123147   0.139   3.862  16.447 -1.7375 -0.0855  0.2397
  552TIP3    H223148   0.086   3.827  16.585 -0.2329  0.7162  1.0324
  553TIP3   OH223149   5.493   3.853   4.746  0.2974 -0.2788 -0.2290
  553TIP3    H123150   5.537   3.782   4.699  0.8947 -0.5357  0.6780
  553TIP3    H223151   5.477   3.816   4.834 -0.2440  0.3845 -0.0481
  554TIP3   OH223152   5.577   0.257   1.492  0.3923 -0.2236  0.1579
  554TIP3    H123153   5.525   0.329   1.456  1.0651  0.7664  1.1473
  554TIP3    H223154   5.665   0.294   1.502  0.7670 -1.2153  0.5665
  555TIP3   OH223155   1.764   3.366  13.933  0.7728 -0.3019  0.4558
  555TIP3    H123156   1.673   3.337  13.919  0.7355 -0.6003  1.2785
  555TIP3    H223157   1.768   3.452  13.892  0.1024 -0.2754  0.4357
  556TIP3   OH223158   6.017   6.097   1.158  0.2398 -0.2266 -0.5237
  556TIP3    H123159   5.995   6.141   1.239  1.2294 -1.4423  0.4195
  556TIP3    H223160   6.094   6.144   1.125  0.5499 -0.4818 -0.1566
  557TIP3   OH223161   4.294   4.155   5.643 -0.7700  0.3414  0.2970
  557TIP3    H123162   4.362   4.185   5.704 -1.2023 -0.1894  1.0493
  557TIP3    H223163   4.298   4.059   5.649  2.3324  0.0326 -3.9556
  558TIP3   OH223164   4.021   6.234  15.870  0.2423  0.2630  0.2024
  558TIP3    H123165   3.979   6.148  15.872 -0.4923  0.6374  0.7763
  558TIP3    H223166   3.949   6.297  15.872  0.6751  0.9067 -2.2876
  559TIP3   OH223167   2.917   1.513  16.895 -0.2117  0.1218  0.3310
  559TIP3    H123168   2.867   1.515  16.977  0.1390  0.2826  0.5433
  559TIP3    H223169   2.934   1.421  16.879 -0.5949  0.0655  0.2469
  560TIP3   OH223170   6.185   5.240  12.514  0.3727 -0.1078  0.1549
  560TIP3    H123171   6.127   5.311  12.485  0.7252 -0.4768 -1.4616
  560TIP3    H223172   6.237   5.218  12.437 -1.1128 -3.5049  0.0488
  561TIP3   OH223173   2.167   3.943   0.839  0.4505 -0.2750 -0.8950
  561TIP3    H123174   2.099   3.927   0.774  2.0885 -1.3348 -2.3797
  561TIP3    H223175   2.134   3.900   0.919 -0.8937 -0.2272 -1.4070
  562TIP3   OH223176   3.353   5.207   5.040  0.3363 -0.0473 -0.9181
  562TIP3    H123177   3.316   5.119   5.028  0.2485  0.0789 -1.5531
  562TIP3    H223178   3.385   5.207   5.130  0.7420 -0.8848 -1.0605
  563TIP3   OH223179   6.779   6.133   6.424  0.0169  0.5253  0.1947
  563TIP3    H123180   6.693   6.113   6.389  0.6028 -0.6152 -0.6214
  563TIP3    H223181   6.767   6.215   6.472 -1.0300  1.5785 -1.8010
  564TIP3   OH223182   2.221   5.122   5.136 -0.3769  0.3978 -0.1865
  564TIP3    H123183   2.280   5.060   5.179  2.8758  2.1932 -1.8771
  564TIP3    H223184   2.254   5.128   5.046 -0.3108  4.8089  0.0042
  565TIP3   OH223185   2.764   2.153  13.239 -0.4751 -0.2128 -0.2396
  565TIP3    H123186   2.853   2.144  13.203 -0.9395 -0.4115 -1.3748
  565TIP3    H223187   2.717   2.204  13.173 -0.8270  1.1231  1.0365
  566TIP3   OH223188   4.876   4.635   5.151  0.0569 -0.0631  0.1209
  566TIP3    H123189   4.900   4.722   5.118 -1.3877  0.9587  1.6841
  566TIP3    H223190   4.947   4.611   5.210  1.5094 -0.9030 -1.8859
  567TIP3   OH223191   1.566   4.169  16.028 -0.0654 -0.2795  0.0287
  567TIP3    H123192   1.581   4.138  15.939 -3.2430  2.8914 -1.7279
  567TIP3    H223193   1.652   4.198  16.058  0.7900 -0.0054 -2.5609
  568TIP3   OH223194   4.465   1.433  10.614  0.4650 -0.4995 -0.3758
  568TIP3    H123195   4.397   1.404  10.554 -0.9661  1.4071  0.2775
  568TIP3    H223196   4.494   1.518  10.579 -0.5396  0.7344  1.7150
  569TIP3   OH223197   6.208   3.012   2.848  0.3311 -0.5958  0.4623
  569TIP3    H123198   6.234   2.961   2.771  1.2686  0.2160  0.2298
  569TIP3    H223199   6.124   2.974   2.875 -0.9593  0.3307 -2.0781
  570TIP3   OH223200   2.387   1.045  16.225 -0.3844  0.2940  0.0149
  570TIP3    H123201   2.321   1.107  16.193 -0.0226  0.3159 -0.7009
  570TIP3    H223202   2.464   1.099  16.242 -0.0773  0.0510 -0.5804
  571TIP3   OH223203   2.233   5.684  13.891 -0.3279 -0.0488 -0.0033
  571TIP3    H123204   2.139   5.691  13.876 -0.1652  0.2117 -0.9217
  571TIP3    H223205   2.243   5.690  13.986 -1.1248  1.3064 -0.0024
  572TIP3   OH223206   4.244   4.731   4.633 -0.4759 -0.3171 -0.4043
  572TIP3    H123207   4.310   4.746   4.701  1.7175 -1.9703 -2.0802
  572TIP3    H223208   4.165   4.705   4.681  1.0933 -1.6500  1.5128
  573TIP3   OH223209   1.762   3.051  11.470  0.0170 -0.0101  0.2044
  573TIP3    H123210   1.725   2.981  11.416  1.1987 -0.8595  0.4757
  573TIP3    H223211   1.818   3.101  11.410 -0.0327  0.0962  0.2446
  574TIP3   OH223212   3.003   5.257   2.196 -0.4607  1.0070  0.3767
  574TIP3    H123213   3.021   5.207   2.276 -1.6244 -0.6981 -0.4066
  574TIP3    H223214   3.051   5.211   2.127  1.2770  2.9903  0.2002
  575TIP3   OH223215   3.519   0.181  11.551 -0.4450  0.1291 -0.0701
  575TIP3    H123216   3.428   0.177  11.582 -0.1737 -5.2334  0.5798
  575TIP3    H223217   3.570   0.196  11.631 -0.5009 -2.1785  0.4453
  576TIP3   OH223218   3.982   4.306  12.697  0.5037  0.2569  0.4286
  576TIP3    H123219   3.977   4.225  12.746 -2.2001  0.0299 -0.1450
  576TIP3    H223220   4.024   4.282  12.615 -0.0751 -0.5310  0.3588
  577TIP3   OH223221   5.465   3.370  16.700  0.4394 -0.2323 -0.1331
  577TIP3    H123222   5.438   3.318  16.775 -0.6004  1.0693  0.4243
  577TIP3    H223223   5.426   3.456  16.716  2.4095  0.8155 -0.8329
  578TIP3   OH223224   4.617   1.064   3.666 -0.0819 -0.1243 -0.8581
  578TIP3    H123225   4.632   0.987   3.721  1.1341 -0.3926 -1.5412
  578TIP3    H223226   4.522   1.075   3.665 -0.0889  0.3329  1.8906
  579TIP3   OH223227   2.146   2.821   3.180 -0.6626 -0.0795  0.3988
  579TIP3    H123228   2.078   2.767   3.140 -1.2611 -0.1131  1.4313
  579TIP3    H223229   2.228   2.786   3.147 -1.1312 -0.2688 -0.5834
  580TIP3   OH223230   0.539   0.123   2.001  0.0138  0.3312 -0.2575
  580TIP3    H123231   0.537   0.053   2.067  0.6499 -0.1897 -0.7849
  580TIP3    H223232   0.493   0.196   2.042 -1.0546 -0.5485  0.1306
  581TIP3   OH223233   1.652   0.735  15.207  0.0296 -0.3932 -0.1371
  581TIP3    H123234   1.691   0.766  15.289  0.2516 -1.1159  0.0311
  581TIP3    H223235   1.676   0.643  15.202  0.3047 -0.2698 -1.1869
  582TIP3   OH223236   5.974   6.381   5.569  0.2211 -0.3693 -0.2863
  582TIP3    H123237   6.047   6.409   5.625 -1.3982 -0.2127  1.7976
  582TIP3    H223238   5.936   6.462   5.536 -1.9996 -0.1545  2.5714
  583TIP3   OH223239   3.477   6.104  15.959 -0.0365  0.3039 -0.2945
  583TIP3    H123240   3.556   6.060  15.989  0.2256  1.0558  0.1235
  583TIP3    H223241   3.409   6.076  16.020  0.1913  0.7108  0.1435
  584TIP3   OH223242   1.465   2.888  13.067 -0.0120 -0.3154 -0.0563
  584TIP3    H123243   1.525   2.962  13.076 -1.2520  0.5298  1.6039
  584TIP3    H223244   1.521   2.813  13.050  1.4849  0.5007  1.1698
  585TIP3   OH223245   2.387   1.916   1.309  0.1194  0.5072  0.3152
  585TIP3    H123246   2.310   1.973   1.305 -0.8262 -0.7691  0.0946
  585TIP3    H223247   2.438   1.940   1.231 -0.5742  0.6258 -0.1096
  586TIP3   OH223248   0.914   3.446  14.360  0.2099  0.2404  0.5914
  586TIP3    H123249   0.969   3.426  14.284 -1.4373 -1.0616 -0.2941
  586TIP3    H223250   0.882   3.361  14.389 -0.9952  0.9483  1.3670
  587TIP3   OH223251   5.241   1.233  13.581  0.3115 -0.3918 -0.2368
  587TIP3    H123252   5.177   1.286  13.533  0.8635 -1.4498 -2.1695
  587TIP3    H223253   5.274   1.291  13.650 -1.6888  0.6170 -0.0934
  588TIP3   OH223254   0.957   0.479   2.982 -0.3555  0.1574 -0.3094
  588TIP3    H123255   0.877   0.502   3.027  0.0845 -0.4399  0.7905
  588TIP3    H223256   1.027   0.518   3.034  0.1538 -0.4905 -0.4850
  589TIP3   OH223257   6.664   3.483   3.776 -0.1946 -0.0948 -0.9880
  589TIP3    H123258   6.757   3.479   3.752 -0.1230  0.3677 -0.7934
  589TIP3    H223259   6.644   3.396   3.809  0.6252  0.2926  0.5926
  590TIP3   OH223260   1.877   6.064  11.578  0.5189 -0.1795 -0.1128
  590TIP3    H123261   1.872   6.159  11.592  1.5980  0.0894 -1.4643
  590TIP3    H223262   1.960   6.038  11.618 -1.3304 -1.1255  3.2379
  591TIP3   OH223263   4.164   1.192  11.666  0.5827  0.0097  0.4980
  591TIP3    H123264   4.073   1.183  11.695  0.0065  1.8550 -0.6418
  591TIP3    H223265   4.163   1.266  11.606  2.5064 -1.1473 -1.0351
  592TIP3   OH223266   1.418   0.051  10.628  0.4881 -0.0784  0.1081
  592TIP3    H123267   1.393   0.026  10.539 -0.0205  1.3728 -0.1779
  592TIP3    H223268   1.482  -0.014  10.654 -0.2817 -1.2526 -0.8574
  593TIP3   OH223269   6.177   0.555   1.105  0.5550 -0.0779  0.1225
  593TIP3    H123270   6.181   0.575   1.011 -0.8212 -2.2889 -0.4514
  593TIP3    H223271   6.263   0.518   1.125  1.7296  2.6626  0.3250
  594TIP3   OH223272   3.522   4.297  14.377  0.0113 -0.4890  0.1197
  594TIP3    H123273   3.498   4.215  14.333 -0.8751 -0.0256 -0.2856
  594TIP3    H223274   3.452   4.358  14.352 -0.6294 -0.2714  2.3159
  595TIP3   OH223275   4.892   2.150  15.541 -1.2490 -0.1506 -0.6155
  595TIP3    H123276   4.924   2.142  15.452 -0.5945  0.0588 -0.4015
  595TIP3    H223277   4.830   2.078  15.551  0.4487 -1.6217 -0.4682
  596TIP3   OH223278   1.941   6.781  12.788  0.1818  0.3524  0.2660
  596TIP3    H123279   2.002   6.712  12.761 -0.8704 -1.2656  1.9314
  596TIP3    H223280   1.865   6.770  12.731  0.2259  0.4642  0.1867
  597TIP3   OH223281   1.516   3.422   4.652 -0.2048  0.1926  0.1333
  597TIP3    H123282   1.541   3.348   4.709 -0.9639 -2.2410 -2.6029
  597TIP3    H223283   1.591   3.435   4.595 -0.3715  1.0817  0.1036
  598TIP3   OH223284   5.235   6.156   4.287  0.1777  0.2192  0.1513
  598TIP3    H123285   5.317   6.154   4.238 -0.8767 -0.3821 -1.6476
  598TIP3    H223286   5.171   6.188   4.224 -1.4773 -1.7890  0.7509
  599TIP3   OH223287   5.118   3.314  14.398 -0.2658 -0.5797 -0.5127
  599TIP3    H123288   5.168   3.346  14.323 -1.5619 -0.6212 -1.4005
  599TIP3    H223289   5.160   3.355  14.474  0.2439  0.4932 -1.3567
  600TIP3   OH223290   0.109   5.302   3.320  0.0714  0.4501 -0.3357
  600TIP3    H123291   0.158   5.267   3.394  1.0919 -0.2769 -1.3387
  600TIP3    H223292   0.017   5.292   3.345  0.3932 -0.3585  0.5567
  601TIP3   OH223293   2.558   0.045   3.431  1.0328 -0.0551  0.0587
  601TIP3    H123294   2.543   0.032   3.525  1.0471 -1.6841 -0.1463
  601TIP3    H223295   2.565  -0.044   3.396 -2.2057  0.4285 -2.0196
  602TIP3   OH223296   1.842   0.551   0.032 -0.5767  0.1182  0.4357
  602TIP3    H123297   1.778   0.583  -0.032  0.0426  1.7291  0.5811
  602TIP3    H223298   1.917   0.524  -0.020 -1.5262 -2.1981  0.2311
  603TIP3   OH223299   2.991   0.814   1.243 -0.4207  0.4823 -0.4642
  603TIP3    H123300   2.931   0.831   1.315  2.6156 -0.8955  2.5550
  603TIP3    H223301   3.008   0.720   1.247  0.6342  0.5682 -2.2946
  604TIP3   OH223302   5.662   2.851   4.646 -0.1994 -0.1884 -0.0219
  604TIP3    H123303   5.628   2.863   4.735  0.0305  0.0440  0.0360
  604TIP3    H223304   5.625   2.924   4.597 -0.6055 -0.5125 -0.1988
  605TIP3   OH223305   1.249   1.985   2.926 -0.2114  0.1122  0.1690
  605TIP3    H123306   1.181   2.052   2.931  1.2617  1.8649 -2.3225
  605TIP3    H223307   1.212   1.918   2.869 -0.3520  0.4444 -0.1307
  606TIP3   OH223308   3.303   6.440   4.010 -0.4612  0.4606 -0.1804
  606TIP3    H123309   3.386   6.479   4.038 -0.5700  0.3924  0.2471
  606TIP3    H223310   3.292   6.470   3.920  1.6865 -2.2424 -1.4136
  607TIP3   OH223311   2.679   0.464   4.714 -0.0232 -0.0788 -0.5382
  607TIP3    H123312   2.682   0.557   4.692 -0.4884 -0.2955 -1.5580
  607TIP3    H223313   2.586   0.443   4.719  0.0606  0.0305  2.0183
  608TIP3   OH223314   3.989   4.736   4.763 -0.2324  0.2430 -0.3255
  608TIP3    H123315   3.941   4.679   4.823 -0.1847  0.8937  0.3305
  608TIP3    H223316   3.923   4.797   4.729  0.0882  1.0354  0.4536
  609TIP3   OH223317   2.942   2.558  16.855  0.2273 -0.1363 -0.0324
  609TIP3    H123318   2.973   2.486  16.799 -0.0959 -0.8097  0.6540
  609TIP3    H223319   3.021   2.587  16.902  0.9488  1.8322 -2.3606
  610TIP3   OH223320   2.284   6.151  14.185  0.0750  0.4049 -0.2276
  610TIP3    H123321   2.293   6.156  14.281 -0.4805 -0.6941 -0.1109
  610TIP3    H223322   2.192   6.171  14.169 -0.4233 -1.8460 -0.3235
  611TIP3   OH223323   6.551   6.556   6.188  0.0738 -0.4685  0.3142
  611TIP3    H123324   6.595   6.484   6.143 -0.2441 -0.3107 -0.2452
  611TIP3    H223325   6.462   6.554   6.155 -0.0388 -0.0561  0.5891
  612TIP3   OH223326   6.207   2.815   5.401  0.6706 -0.3962 -0.3497
  612TIP3    H123327   6.299   2.796   5.379  0.1971 -0.3391 -2.4656
  612TIP3    H223328   6.161   2.807   5.318 -1.4098 -1.3754  0.8796
  613TIP3   OH223329   4.497   5.613   5.314 -0.3988 -0.1563 -0.7965
  613TIP3    H123330   4.540   5.622   5.399  0.0737 -1.8058 -0.8388
  613TIP3    H223331   4.405   5.633   5.330 -0.3162 -0.4940  0.1237
  614TIP3   OH223332   1.268   2.375  13.267 -0.4007  0.7479  0.1109
  614TIP3    H123333   1.225   2.377  13.352  0.1719 -1.2488  0.4817
  614TIP3    H223334   1.228   2.300  13.222  1.6291 -0.2739 -0.0818
  615TIP3   OH223335   5.536   6.325  15.222 -0.0648 -0.0399  0.1640
  615TIP3    H123336   5.498   6.363  15.143 -0.0657 -0.3564  0.0096
  615TIP3    H223337   5.470   6.262  15.252  0.7811 -1.3475 -0.6870
  616TIP3   OH223338   1.313   0.128   0.499 -0.5519  0.1276 -0.0020
  616TIP3    H123339   1.322   0.045   0.452 -0.4883  1.5353 -2.5973
  616TIP3    H223340   1.403   0.155   0.519 -0.6620 -1.6628  3.2234
  617TIP3   OH223341   1.443   1.752   5.958 -0.1716  0.1806 -0.0221
  617TIP3    H123342   1.476   1.674   5.913  2.1936  0.7914  0.5992
  617TIP3    H223343   1.376   1.719   6.019  0.2796 -1.2576 -0.3051
  618TIP3   OH223344   3.754   4.375  12.882  0.3434 -0.2783  1.0253
  618TIP3    H123345   3.745   4.451  12.939 -0.5482  1.2635 -1.1028
  618TIP3    H223346   3.826   4.398  12.822 -0.9106 -0.4384 -0.5947
  619TIP3   OH223347   6.270   0.917  11.568  0.1294  0.3405 -0.4303
  619TIP3    H123348   6.230   0.846  11.518 -1.4210  0.4739  0.5855
  619TIP3    H223349   6.364   0.906  11.555 -0.1704 -0.9466 -1.5664
  620TIP3   OH223350   0.232   3.037   1.818  0.0904 -0.3253 -0.9580
  620TIP3    H123351   0.151   3.024   1.868  0.8859  0.6267  0.5969
  620TIP3    H223352   0.208   3.014   1.728 -1.6142 -1.1328 -0.3233
  621TIP3   OH223353   2.497   2.633   0.704 -0.2985  0.0103  0.6575
  621TIP3    H123354   2.466   2.682   0.627  1.6409  1.7712  0.9329
  621TIP3    H223355   2.482   2.693   0.777  1.4296 -0.0912  1.1083
  622TIP3   OH223356   4.978   5.579   2.148  0.2863 -0.1408 -0.1577
  622TIP3    H123357   4.882   5.577   2.152  0.2169  1.6663 -0.6018
  622TIP3    H223358   5.005   5.489   2.167 -1.6651 -1.6037 -3.7025
  623TIP3   OH223359   4.120   6.313  16.472 -0.0450 -0.5995  0.0837
  623TIP3    H123360   4.156   6.294  16.386  0.6217  1.7692 -0.2139
  623TIP3    H223361   4.107   6.408  16.472 -3.0223 -0.9602  1.4687
  624TIP3   OH223362   2.183   5.629   6.618 -0.3418 -0.3043 -0.2120
  624TIP3    H123363   2.125   5.601   6.547 -0.9475 -0.1030  0.2012
  624TIP3    H223364   2.194   5.552   6.673 -2.2050  0.2971  1.0589
  625TIP3   OH223365   6.604   5.341  12.854 -0.0482 -0.5005  0.0796
  625TIP3    H123366   6.525   5.291  12.876  1.1877 -2.2273  0.6894
  625TIP3    H223367   6.658   5.336  12.933  0.7006  0.6369 -0.3536
  626TIP3   OH223368   4.445   1.061  16.190 -0.0711 -0.8964 -0.3079
  626TIP3    H123369   4.455   1.096  16.102  1.0527  0.0628  0.1792
  626TIP3    H223370   4.454   0.966  16.180 -2.2404 -1.0003 -1.5257
  627TIP3   OH223371   6.553   2.849  13.284  0.1432  0.2166  0.8193
  627TIP3    H123372   6.614   2.905  13.236 -2.6651 -0.8931 -4.4592
  627TIP3    H223373   6.575   2.760  13.257 -1.6822 -0.4499  1.4302
  628TIP3   OH223374   6.091   2.988  15.722 -0.4374  0.3899  0.1111
  628TIP3    H123375   6.160   2.990  15.788 -1.6008  0.1557  1.3562
  628TIP3    H223376   6.137   3.000  15.639  1.2281 -0.8402  0.8181
  629TIP3   OH223377   4.082   2.083  11.119  0.4030 -0.2719 -0.1927
  629TIP3    H123378   4.130   2.163  11.139 -0.2812  0.1482 -0.2388
  629TIP3    H223379   4.029   2.104  11.042  0.6248 -0.9286 -0.5296
  630TIP3   OH223380   0.282   1.277  14.994  0.2905 -0.1631  0.8452
  630TIP3    H123381   0.228   1.220  14.938 -1.0612  0.3586  1.5909
  630TIP3    H223382   0.282   1.233  15.079  0.6812  0.0689  0.9632
  631TIP3   OH223383   2.707   4.367  16.525 -0.3544 -0.1134  0.0585
  631TIP3    H123384   2.736   4.403  16.609  0.1100  1.5967 -0.8102
  631TIP3    H223385   2.780   4.383  16.466 -1.2373 -0.0275 -1.0185
  632TIP3   OH223386   5.512   6.608   6.438 -0.0110  0.0791  0.1616
  632TIP3    H123387   5.492   6.554   6.514  0.1905 -0.4667 -0.1613
  632TIP3    H223388   5.598   6.577   6.409  0.3685  0.9708  0.3108
  633TIP3   OH223389   2.729   3.425  12.471 -0.1503  0.5976 -0.1089
  633TIP3    H123390   2.752   3.337  12.499 -2.5389 -0.8439 -2.3978
  633TIP3    H223391   2.634   3.430  12.479 -0.0535  3.0190  0.1106
  634TIP3   OH223392   2.374   6.386   1.392  0.1114  0.3698 -0.1574
  634TIP3    H123393   2.450   6.350   1.437 -1.2706 -0.5101  1.5289
  634TIP3    H223394   2.410   6.456   1.337  2.4476 -1.6625 -1.3184
  635TIP3   OH223395   6.110   5.078  14.765  0.1031  0.5852  0.5601
  635TIP3    H123396   6.049   5.004  14.768  0.4557  0.2745  0.1805
  635TIP3    H223397   6.139   5.089  14.855  0.8082 -0.3870  0.4653
  636TIP3   OH223398   5.393   6.470  13.204  0.3847 -0.3227  0.6962
  636TIP3    H123399   5.406   6.378  13.229  0.4010 -0.6754 -0.6027
  636TIP3    H223400   5.379   6.515  13.287 -1.2822 -1.7757  1.2267
  637TIP3   OH223401   1.762   5.440   3.099 -0.2561 -0.1521  0.3733
  637TIP3    H123402   1.810   5.473   3.175  0.7522  0.5902 -0.5613
  637TIP3    H223403   1.676   5.481   3.106 -0.1782 -0.0933  1.1126
  638TIP3   OH223404   4.841   3.356   3.820  0.8528 -0.1817  0.6908
  638TIP3    H123405   4.852   3.382   3.911  0.6163  2.9226 -0.1074
  638TIP3    H223406   4.750   3.330   3.813  0.6186  0.5152  1.1358
  639TIP3   OH223407   4.255   3.150   2.079 -0.2441 -0.2036 -0.4464
  639TIP3    H123408   4.186   3.117   2.138 -1.6224 -0.1108 -1.9784
  639TIP3    H223409   4.336   3.132   2.126 -1.1237 -3.1423  0.0704
  640TIP3   OH223410   3.411   3.846   4.847  0.3313 -0.3362 -1.1507
  640TIP3    H123411   3.355   3.833   4.923  0.4406 -0.5484 -1.1062
  640TIP3    H223412   3.499   3.856   4.883  0.2926  0.2152 -1.2055
  641TIP3   OH223413   0.856   3.798   1.517  0.2756 -0.1965 -0.1717
  641TIP3    H123414   0.902   3.855   1.456 -0.1330 -0.2374 -0.5224
  641TIP3    H223415   0.915   3.723   1.529  0.0372 -0.5391 -1.0910
  642TIP3   OH223416   0.988   0.572  11.938 -0.2955 -0.2824  0.1492
  642TIP3    H123417   1.003   0.580  11.844  1.1552  0.7156  0.4393
  642TIP3    H223418   0.960   0.482  11.951 -0.0209 -0.5672 -1.1858
  643TIP3   OH223419   6.254   6.811   0.394 -0.0454 -0.1493  0.3197
  643TIP3    H123420   6.172   6.788   0.352 -0.4225 -0.9838  1.4824
  643TIP3    H223421   6.309   6.846   0.324 -1.7490  1.3871 -0.2667
  644TIP3   OH223422   5.206   5.460  13.414 -0.1120  0.3358 -0.3060
  644TIP3    H123423   5.128   5.472  13.359 -0.4247 -1.1606 -0.1926
  644TIP3    H223424   5.184   5.503  13.497  0.0290  1.8350 -1.0225
  645TIP3   OH223425   4.685   5.237  13.551 -0.0872  0.7368  0.4581
  645TIP3    H123426   4.741   5.303  13.592  0.8587  1.1997 -1.5188
  645TIP3    H223427   4.729   5.154  13.571  0.3169  0.9458  0.4434
  646TIP3   OH223428   3.966   1.037   0.909  0.4372 -0.0061 -0.1048
  646TIP3    H123429   3.981   1.087   0.829  2.0337 -0.1546  0.0765
  646TIP3    H223430   4.053   1.029   0.948 -0.2952 -0.1271  1.5315
  647TIP3   OH223431   1.111   0.648   6.095 -0.4090  0.1076 -0.1274
  647TIP3    H123432   1.086   0.562   6.130  0.9975 -1.0304 -1.8661
  647TIP3    H223433   1.206   0.651   6.103 -0.2794  0.7611 -1.7124
  648TIP3   OH223434   5.198   6.743   5.027  0.6894 -0.8879  0.1763
  648TIP3    H123435   5.165   6.655   5.045  0.6382 -0.8812  0.1135
  648TIP3    H223436   5.120   6.797   5.020  0.7593 -0.6264  1.3192
  649TIP3   OH223437   5.328   0.830  15.037  0.0305  0.6637 -0.3367
  649TIP3    H123438   5.397   0.788  15.088 -1.5258  0.2781  1.5034
  649TIP3    H223439   5.248   0.784  15.062 -1.0845  1.9389 -1.4687
  650TIP3   OH223440   4.404   4.965  16.111 -0.0944 -0.3349 -0.5631
  650TIP3    H123441   4.444   5.032  16.166 -1.2843  1.7325 -2.1249
  650TIP3    H223442   4.370   4.901  16.172  4.1072 -1.3602  0.8723
  651TIP3   OH223443   0.586   1.751  12.170  0.1867 -0.6073  0.8339
  651TIP3    H123444   0.634   1.784  12.246 -0.6469  1.4930  0.4874
  651TIP3    H223445   0.517   1.816  12.155  1.3315 -0.0763 -2.6994
  652TIP3   OH223446   6.239   0.453   5.752 -0.5666 -0.0860 -0.1542
  652TIP3    H123447   6.157   0.479   5.793  0.1383  1.5590  0.2395
  652TIP3    H223448   6.215   0.381   5.693 -1.7907 -1.6073  2.1370
  653TIP3   OH223449   0.188   1.048  14.852 -0.4695  0.1768  0.1307
  653TIP3    H123450   0.204   0.957  14.827 -1.1688  0.2395 -0.5545
  653TIP3    H223451   0.186   1.096  14.769  0.0527  0.8480  0.4978
  654TIP3   OH223452   4.858   2.176  15.937  0.6983  0.9327  0.4995
  654TIP3    H123453   4.780   2.140  15.894  0.4969 -2.1070  3.1651
  654TIP3    H223454   4.826   2.252  15.986  0.0641  1.6662 -1.0231
  655TIP3   OH223455   3.735   4.895   5.135  0.3762 -0.0790 -0.0881
  655TIP3    H123456   3.642   4.883   5.117  0.5026 -1.0527 -0.1346
  655TIP3    H223457   3.739   4.970   5.193 -0.4729 -0.2835  0.2349
  656TIP3   OH223458   2.315   0.635  11.488 -0.3051 -0.4709 -0.1047
  656TIP3    H123459   2.259   0.708  11.459  1.0803 -0.1790 -2.1201
  656TIP3    H223460   2.309   0.638  11.584  1.9015  4.1013  0.0411
  657TIP3   OH223461   3.654   5.608  12.615  0.0715  0.0289  0.1979
  657TIP3    H123462   3.739   5.620  12.656  0.6005  0.7764 -1.0702
  657TIP3    H223463   3.616   5.531  12.657  0.4107  1.0094  2.3554
  658TIP3   OH223464   0.560   3.196   0.037 -0.0019 -0.4434 -0.1738
  658TIP3    H123465   0.553   3.284  -0.002  0.3404 -0.7706 -0.9800
  658TIP3    H223466   0.522   3.138  -0.029  0.4642 -0.9867  0.0408
  659TIP3   OH223467   2.429   5.567  11.370 -0.0175 -0.0469 -0.4658
  659TIP3    H123468   2.440   5.630  11.298  1.1223  1.0975  0.6815
  659TIP3    H223469   2.453   5.483  11.332  0.8841  0.5912 -1.3487
  660TIP3   OH223470   5.522   5.454  14.639 -0.3911 -0.2142  0.5770
  660TIP3    H123471   5.561   5.540  14.653  0.3675 -0.5332  0.4326
  660TIP3    H223472   5.428   5.469  14.650 -0.2931  0.6892  0.2721
  661TIP3   OH223473   2.852   1.391   2.195  0.3302  0.0764  0.3394
  661TIP3    H123474   2.833   1.325   2.261  0.7673 -0.4939 -0.0966
  661TIP3    H223475   2.944   1.413   2.207  0.3712  0.0876  0.0301
  662TIP3   OH223476   1.605   5.353  10.847  0.3103  0.1000 -0.8336
  662TIP3    H123477   1.605   5.442  10.884  1.0720 -0.2338 -0.0254
  662TIP3    H223478   1.512   5.332  10.835  0.0896  0.5508  0.0704
  663TIP3   OH223479   0.541   3.684   0.761  0.5178  0.6518 -0.3812
  663TIP3    H123480   0.532   3.644   0.848  2.3987  0.5587 -0.2032
  663TIP3    H223481   0.494   3.626   0.702  1.3888 -0.6878  0.2062
  664TIP3   OH223482   5.305   1.734   3.076 -0.2334  0.4625  0.1715
  664TIP3    H123483   5.276   1.766   2.991 -2.1154  0.6542  0.8661
  664TIP3    H223484   5.329   1.643   3.061  0.3822  0.7695 -0.7565
  665TIP3   OH223485   4.318   0.185   1.704  0.3132 -0.4103 -0.2299
  665TIP3    H123486   4.319   0.148   1.792  0.7835 -3.3653 -1.3998
  665TIP3    H223487   4.226   0.181   1.677  0.2808 -0.2154 -0.1479
  666TIP3   OH223488   4.764   2.723  17.077  0.1090 -0.4081  0.1746
  666TIP3    H123489   4.669   2.712  17.083  0.0794 -1.7960 -2.0740
  666TIP3    H223490   4.798   2.683  17.156 -1.1411 -0.6050  0.6296
  667TIP3   OH223491   2.289   3.921   0.610  0.0431 -0.9168  0.0716
  667TIP3    H123492   2.223   3.926   0.679 -1.0193 -1.0446 -0.9008
  667TIP3    H223493   2.326   4.009   0.605  0.4373 -1.0148  1.0789
  668TIP3   OH223494   6.607   3.459   1.036  0.6399 -0.0214 -0.0843
  668TIP3    H123495   6.601   3.364   1.047  0.8813 -0.0270  0.0149
  668TIP3    H223496   6.518   3.487   1.016  0.5255 -0.2393  0.1211
  669TIP3   OH223497   0.940   2.929   2.883  0.0119  0.4405  0.4159
  669TIP3    H123498   0.874   2.868   2.916 -0.4379 -0.8588 -2.6741
  669TIP3    H223499   1.019   2.877   2.874 -0.2876  0.3229 -1.9395
  670TIP3   OH223500   4.571   0.365  13.725 -0.1923 -0.2869 -0.1919
  670TIP3    H123501   4.480   0.364  13.695 -0.4485 -2.4594  0.5614
  670TIP3    H223502   4.575   0.437  13.789 -1.0155  0.7234 -1.2608
  671TIP3   OH223503   3.682   1.741  13.416 -0.0519 -0.5301 -0.2703
  671TIP3    H123504   3.755   1.730  13.477  0.0188  4.0074  0.6530
  671TIP3    H223505   3.607   1.763  13.472 -1.0303 -0.6380 -1.5244
  672TIP3   OH223506   0.470   6.309  12.485  0.1382 -0.1712 -0.1694
  672TIP3    H123507   0.552   6.268  12.460 -0.1102 -0.0273 -1.2661
  672TIP3    H223508   0.412   6.296  12.410 -0.4469  0.7868  0.0943
  673TIP3   OH223509   2.202   4.195  16.976 -0.5477  0.6136 -0.2484
  673TIP3    H123510   2.149   4.217  16.899 -0.6236 -0.1754 -0.4242
  673TIP3    H223511   2.292   4.209  16.948 -0.5313 -0.4318 -0.7350
  674TIP3   OH223512   4.941   2.815  10.459 -0.2660  0.1372  0.2555
  674TIP3    H123513   5.023   2.783  10.422  0.0665  0.7183  0.4773
  674TIP3    H223514   4.925   2.758  10.534 -0.9978 -1.1055 -0.8278
  675TIP3   OH223515   3.981   2.370  16.216  0.4292  0.0398 -0.3876
  675TIP3    H123516   4.018   2.419  16.143  2.0749  0.4946  0.7243
  675TIP3    H223517   3.980   2.433  16.289 -0.0025 -0.7871  0.3286
  676TIP3   OH223518   6.568   1.883  12.325 -0.2122 -0.3317 -0.4066
  676TIP3    H123519   6.533   1.893  12.236  1.3565  1.4609 -0.8458
  676TIP3    H223520   6.526   1.803  12.358 -1.8920 -0.2587 -2.2344
  677TIP3   OH223521   6.432   3.398  10.966 -0.6305 -0.1933 -0.8605
  677TIP3    H123522   6.512   3.416  10.918  0.7387  1.1649  1.8093
  677TIP3    H223523   6.389   3.483  10.975 -2.4399 -0.9110 -2.3082
  678TIP3   OH223524   6.096   4.420  14.537  0.3086 -0.0450  0.5355
  678TIP3    H123525   6.064   4.443  14.625  1.8263  0.2557  1.0141
  678TIP3    H223526   6.022   4.374  14.497 -0.3629 -0.3075  2.0249
  679TIP3   OH223527   2.209   5.938   2.382 -0.4011  0.4829  0.2515
  679TIP3    H123528   2.295   5.981   2.380  0.0143 -0.1912  2.1663
  679TIP3    H223529   2.227   5.848   2.355 -0.7525  0.7181 -0.7706
  680TIP3   OH223530   5.882   6.114   3.587  0.2138 -0.0987 -0.0046
  680TIP3    H123531   5.893   6.197   3.635 -0.1532 -0.6028  0.9589
  680TIP3    H223532   5.834   6.058   3.647  0.8738 -1.1778 -0.4749
  681TIP3   OH223533   0.831   6.488  12.498 -0.1774 -0.2731  0.3547
  681TIP3    H123534   0.800   6.419  12.439 -0.4785 -0.1076  0.3212
  681TIP3    H223535   0.890   6.442  12.559  1.2697 -0.1932 -0.9536
  682TIP3   OH223536   1.907   4.346   5.785 -0.2351  0.1429  0.3651
  682TIP3    H123537   1.951   4.382   5.862 -0.3413 -0.5706  0.7691
  682TIP3    H223538   1.959   4.269   5.762  0.2082  0.7538 -0.7169
  683TIP3   OH223539   6.471   3.765  12.139 -0.6349  0.5620 -0.3599
  683TIP3    H123540   6.525   3.757  12.060  0.1043 -1.2790  0.2968
  683TIP3    H223541   6.532   3.800  12.205 -1.4626  2.8977 -0.7889
  684TIP3   OH223542   5.082   3.377  12.575  0.1657 -0.2811  0.5115
  684TIP3    H123543   5.008   3.436  12.559  0.3834 -0.5179 -1.5571
  684TIP3    H223544   5.096   3.381  12.669  0.5029  3.3769  0.3849
  685TIP3   OH223545   5.156   1.336  10.197  0.1902  0.2553 -0.1477
  685TIP3    H123546   5.169   1.330  10.291  0.7889 -1.6101 -0.3220
  685TIP3    H223547   5.237   1.376  10.164  1.0297 -1.3739 -0.1106
  686TIP3   OH223548   3.846   2.611   5.162  0.3570 -0.2270 -0.2268
  686TIP3    H123549   3.892   2.552   5.102  0.6104 -1.6277  1.3153
  686TIP3    H223550   3.910   2.630   5.231 -0.0174  1.1493 -0.2545
  687TIP3   OH223551   2.549   0.018   4.092 -0.0410 -0.4174  0.3803
  687TIP3    H123552   2.516  -0.012   4.177 -1.0599 -0.1931  0.0740
  687TIP3    H223553   2.530  -0.055   4.032 -2.4952  0.7898 -0.3615
  688TIP3   OH223554   3.144   5.274  16.574 -0.2707 -0.0897  0.4285
  688TIP3    H123555   3.156   5.309  16.662  2.7208 -0.4216  0.2240
  688TIP3    H223556   3.177   5.343  16.516 -0.5996 -0.5659 -0.3320
  689TIP3   OH223557   3.956   4.818  12.464  0.5877  0.1073  0.1197
  689TIP3    H123558   3.882   4.774  12.506  0.7558  0.6326  0.9751
  689TIP3    H223559   4.030   4.802  12.523  0.8825  0.6156 -0.1094
  690TIP3   OH223560   4.891   5.725   0.075 -0.2774  0.3756  0.4212
  690TIP3    H123561   4.865   5.730   0.167  0.1244  1.8830  0.4673
  690TIP3    H223562   4.936   5.808   0.058 -2.1516  1.0284 -1.6760
  691TIP3   OH223563   0.283   1.720  15.370  0.2533 -0.8191  0.3301
  691TIP3    H123564   0.371   1.719  15.407  1.2638 -2.2091 -2.0068
  691TIP3    H223565   0.269   1.631  15.338 -1.8141 -0.4766  0.2109
  692TIP3   OH223566   0.952   2.645  15.405  0.1875 -0.1406  0.4118
  692TIP3    H123567   0.906   2.599  15.475 -1.1655  1.9942  0.9783
  692TIP3    H223568   0.935   2.592  15.327 -0.7665 -0.9673  1.1645
  693TIP3   OH223569   5.647   0.719  16.333  0.1489 -0.0427 -0.2106
  693TIP3    H123570   5.640   0.809  16.302 -0.1929 -0.2247 -0.6651
  693TIP3    H223571   5.719   0.721  16.397 -0.0669  0.6122  0.0109
  694TIP3   OH223572   6.622   6.756  16.016  0.2847  0.2552  0.3643
  694TIP3    H123573   6.588   6.683  16.068 -0.9147  0.5103 -0.0352
  694TIP3    H223574   6.665   6.715  15.941  1.0259 -0.0819  0.9777
  695TIP3   OH223575   1.025   5.819   3.269 -1.0295  0.1458  0.3174
  695TIP3    H123576   1.036   5.852   3.358  0.1188  1.4666 -0.3019
  695TIP3    H223577   1.018   5.724   3.280 -1.2059  0.3168  1.8391
  696TIP3   OH223578   4.253   3.961   1.806  0.0665 -0.4936  0.2617
  696TIP3    H123579   4.190   3.964   1.878  0.5214 -0.9749  0.6845
  696TIP3    H223580   4.320   3.899   1.835  1.2863  0.8088  0.2458
  697TIP3   OH223581   0.413   0.426  12.385 -0.3433  0.4223  0.2167
  697TIP3    H123582   0.490   0.401  12.435 -0.5121  1.0909  0.8163
  697TIP3    H223583   0.420   0.376  12.303  1.2849  1.3268 -0.2002
  698TIP3   OH223584   6.330   4.607   0.622  0.3330 -0.5100 -0.2250
  698TIP3    H123585   6.275   4.548   0.571  0.1788  0.4483 -1.1941
  698TIP3    H223586   6.273   4.641   0.691 -0.6260  1.2501 -1.8139
  699TIP3   OH223587   5.871   5.382  11.458  0.0538  0.3266 -0.5900
  699TIP3    H123588   5.792   5.379  11.405  0.1342  0.5066 -0.7233
  699TIP3    H223589   5.934   5.328  11.411 -0.1263 -0.1761 -0.2542
  700TIP3   OH223590   1.135   6.331  12.055 -0.5827  0.3956 -0.2523
  700TIP3    H123591   1.115   6.252  12.104 -2.5315  0.1437 -1.3598
  700TIP3    H223592   1.225   6.319  12.025 -0.0382 -0.2947  1.6021
  701TIP3   OH223593   1.304   1.312  11.902 -0.0655  0.1350 -0.1513
  701TIP3    H123594   1.380   1.257  11.884  0.3040  1.2238 -2.0152
  701TIP3    H223595   1.263   1.325  11.817 -0.2519  2.5612  0.2792
  702TIP3   OH223596   2.119   5.040  17.094 -0.2244 -0.4893 -0.0607
  702TIP3    H123597   2.055   5.032  17.165  0.3154 -1.5271  0.3329
  702TIP3    H223598   2.079   5.100  17.032 -0.6688  0.5156  1.1715
  703TIP3   OH223599   6.312   0.899  10.332 -0.3791  0.1485  0.2274
  703TIP3    H123600   6.326   0.976  10.276 -0.6874  0.4691  0.5808
  703TIP3    H223601   6.328   0.824  10.275  2.4075  0.4811  0.5300
  704TIP3   OH223602   4.288   2.469  11.162  1.1134 -0.0711  0.5275
  704TIP3    H123603   4.267   2.412  11.236  2.5124  0.9402  1.7328
  704TIP3    H223604   4.245   2.427  11.087  1.8289 -2.5532  1.4315
  705TIP3   OH223605   1.305   0.961  17.108 -0.6526  0.2254  0.0738
  705TIP3    H123606   1.388   0.943  17.153 -1.4619  0.8628  1.8549
  705TIP3    H223607   1.247   0.994  17.176 -3.1658 -2.4642 -0.6454
  706TIP3   OH223608   6.151   6.590   5.654 -0.0046 -0.1057  0.1387
  706TIP3    H123609   6.064   6.614   5.686  0.6369  1.0411  1.0472
  706TIP3    H223610   6.207   6.593   5.732  0.6026 -2.1011 -0.1943
  707TIP3   OH223611   1.706   1.418   4.609  0.0643 -0.3236 -0.0407
  707TIP3    H123612   1.709   1.513   4.600 -1.4485 -0.2089  0.5632
  707TIP3    H223613   1.795   1.394   4.637  0.6013  0.8441 -0.7181
  708TIP3   OH223614   2.705   3.765  14.641 -0.2428 -0.1818 -0.4182
  708TIP3    H123615   2.673   3.720  14.563 -1.7130 -2.0027  1.1880
  708TIP3    H223616   2.687   3.858  14.625 -2.3249 -0.7507 -1.4113
  709TIP3   OH223617   3.046   0.430  13.720  0.0295  0.0843 -0.1165
  709TIP3    H123618   2.987   0.377  13.666 -0.4065  1.0917 -0.6237
  709TIP3    H223619   3.016   0.415  13.810 -0.4080 -0.1264 -0.2957
  710TIP3   OH223620   6.394   1.779   1.210 -1.0383 -0.2722  0.4530
  710TIP3    H123621   6.484   1.758   1.234  0.1638  1.2720 -2.4359
  710TIP3    H223622   6.358   1.697   1.177  0.2900 -0.2066 -1.1847
  711TIP3   OH223623   0.460   2.673   4.599 -0.1853 -0.0871 -0.2450
  711TIP3    H123624   0.535   2.733   4.596 -0.8704  0.7279 -1.2202
  711TIP3    H223625   0.388   2.723   4.561 -0.9470 -1.2719 -0.3638
  712TIP3   OH223626   4.652   5.598  13.447  0.0464 -0.6609  0.8668
  712TIP3    H123627   4.645   5.601  13.351  1.9324  1.4831  0.7576
  712TIP3    H223628   4.647   5.505  13.468 -0.8122 -1.1313 -1.2849
  713TIP3   OH223629   0.916   2.982  13.727  0.8574  0.9024  0.1510
  713TIP3    H123630   0.897   3.014  13.816  0.4380 -0.8751  0.7046
  713TIP3    H223631   0.869   3.042  13.670 -1.7212  0.0146  1.2769
  714TIP3   OH223632   4.548   4.519  16.841 -0.3151  0.0539  0.5293
  714TIP3    H123633   4.579   4.596  16.889 -1.0184  1.5808 -1.3914
  714TIP3    H223634   4.522   4.553  16.755 -2.0146 -2.0883  0.1455
  715TIP3   OH223635   2.928   1.205  12.076 -0.2138  0.2178  0.6037
  715TIP3    H123636   3.003   1.198  12.135  0.5547  1.7688 -0.1610
  715TIP3    H223637   2.900   1.295  12.084 -1.9415 -0.3232  0.7775
  716TIP3   OH223638   2.286   4.366  17.188  0.2075  0.3917  0.2677
  716TIP3    H123639   2.308   4.303  17.257 -1.2035  2.0710  2.2989
  716TIP3    H223640   2.249   4.313  17.117 -0.9200 -1.0929  1.9304
  717TIP3   OH223641   3.302   5.679   0.038 -0.3645 -0.0942  0.3481
  717TIP3    H123642   3.289   5.691   0.132  1.3892  1.8355  0.3911
  717TIP3    H223643   3.221   5.710  -0.002 -0.8191 -0.2019  1.1747
  718TIP3   OH223644   6.626   5.826  12.815 -0.4798  0.1660  0.1276
  718TIP3    H123645   6.574   5.747  12.798  0.2925 -0.4631  0.6156
  718TIP3    H223646   6.645   5.861  12.728  2.0243 -2.0967 -0.3030
  719TIP3   OH223647   1.997   4.221   0.826 -0.1377 -0.6656 -0.3446
  719TIP3    H123648   1.937   4.164   0.875 -0.1331 -0.8978 -0.6091
  719TIP3    H223649   1.998   4.184   0.737 -0.3049 -0.1234 -0.5723
  720TIP3   OH223650   0.509   6.724  13.584  0.5992  0.4462  0.0503
  720TIP3    H123651   0.477   6.813  13.572 -1.7086 -0.2446  0.7039
  720TIP3    H223652   0.581   6.715  13.522  1.3446  2.9828  0.4944
  721TIP3   OH223653   6.809   3.015  15.514  0.2516  0.1773 -0.3389
  721TIP3    H123654   6.795   3.038  15.423  0.2070 -0.5084 -0.5039
  721TIP3    H223655   6.885   2.957  15.513 -0.3237 -0.5884 -0.0463
  722TIP3   OH223656   5.568   3.013  12.143  0.2099  0.4090 -0.3836
  722TIP3    H123657   5.574   3.037  12.236 -1.8236 -0.0151 -0.1390
  722TIP3    H223658   5.580   2.918  12.143  1.4646  0.5495 -0.7070
  723TIP3   OH223659   0.653   0.404  16.287  0.3715 -0.6583  0.3010
  723TIP3    H123660   0.584   0.375  16.346 -0.5147 -0.4264 -0.6184
  723TIP3    H223661   0.618   0.482  16.245  0.6680 -1.2770 -1.1322
  724TIP3   OH223662   6.064   4.036   2.772  0.4347  0.0835  0.2078
  724TIP3    H123663   5.997   4.099   2.798 -0.4975 -0.2951 -1.2646
  724TIP3    H223664   6.055   3.965   2.835 -0.7872 -0.1262 -0.1983
  725TIP3   OH223665   3.511   4.730   6.267 -0.6117  0.4270  0.2869
  725TIP3    H123666   3.537   4.822   6.258  0.5393  0.1418  0.6718
  725TIP3    H223667   3.538   4.706   6.356 -0.2634 -0.4812 -0.0582
  726TIP3   OH223668   2.633   1.455   0.496  0.0777 -0.5591 -0.0007
  726TIP3    H123669   2.723   1.466   0.463 -0.4153  1.1366 -0.8308
  726TIP3    H223670   2.578   1.469   0.419 -0.9239 -1.1711  0.6026
  727TIP3   OH223671   0.941   4.204  12.905  0.2212  0.0754 -0.1231
  727TIP3    H123672   1.001   4.252  12.961  0.7860 -0.1402 -0.5322
  727TIP3    H223673   0.854   4.237  12.928  0.5911  1.1937 -0.3122
  728TIP3   OH223674   6.729   5.612  14.239 -0.5788 -0.1471 -0.0615
  728TIP3    H123675   6.770   5.574  14.161 -1.8338  1.6860 -1.6583
  728TIP3    H223676   6.771   5.698  14.248  1.6901 -1.4954  3.0706
  729TIP3   OH223677   6.790   6.100   1.535 -0.1799 -0.3353 -0.1218
  729TIP3    H123678   6.802   6.008   1.561 -3.0679 -0.3627  1.2692
  729TIP3    H223679   6.800   6.149   1.616 -1.1558  0.3349 -0.4026
  730TIP3   OH223680   2.388   4.098   6.740 -0.0590 -0.1893 -0.2888
  730TIP3    H123681   2.457   4.037   6.768  1.2884  1.5133  0.2333
  730TIP3    H223682   2.314   4.079   6.797  0.3736 -1.2879 -0.0827
  731TIP3   OH223683   4.671   4.135   5.776 -0.2383 -0.0063  0.3909
  731TIP3    H123684   4.749   4.173   5.815 -0.0220  0.5177 -0.5494
  731TIP3    H223685   4.642   4.200   5.712 -0.6743 -0.7919 -0.2144
  732TIP3   OH223686   6.014   2.758   2.198  0.0366 -0.1737  0.2841
  732TIP3    H123687   6.025   2.756   2.293 -0.4343  0.3432  0.3587
  732TIP3    H223688   6.075   2.825   2.168 -0.1119 -0.0416  0.2729
  733TIP3   OH223689   5.040   4.752  14.806  0.4008 -0.2042  0.1899
  733TIP3    H123690   5.043   4.847  14.795  0.4182 -0.4150 -1.7101
  733TIP3    H223691   4.959   4.725  14.764  1.0775 -1.1826 -0.4982
  734TIP3   OH223692   5.408   1.727  13.690  0.1477  0.5133 -0.0003
  734TIP3    H123693   5.494   1.732  13.647  0.3094  1.0468  0.3659
  734TIP3    H223694   5.407   1.804  13.748 -0.7622  0.7647 -0.3413
  735TIP3   OH223695   4.645   3.485  13.164  0.1141 -0.2096  0.6229
  735TIP3    H123696   4.707   3.423  13.201  0.8066  1.9582  3.2677
  735TIP3    H223697   4.697   3.540  13.105 -0.2911 -1.4038 -0.8861
  736TIP3   OH223698   2.996   2.648   4.713  0.4407  0.2059 -0.5890
  736TIP3    H123699   2.912   2.666   4.755 -0.1348  1.0660 -2.0657
  736TIP3    H223700   3.054   2.718   4.742  0.3868  0.1349 -0.3104
  737TIP3   OH223701   4.904   4.689  15.027  0.0134  0.4287  0.2886
  737TIP3    H123702   4.970   4.712  14.961 -0.7021  0.1865 -0.5062
  737TIP3    H223703   4.832   4.750  15.012 -1.1796 -1.1885 -0.7352
  738TIP3   OH223704   1.154   2.799  17.175  0.3609 -0.4306 -0.1188
  738TIP3    H123705   1.210   2.822  17.250  2.1201  0.4333 -1.6455
  738TIP3    H223706   1.080   2.859  17.181  1.5165  1.0567 -0.2013
  739TIP3   OH223707   1.829   3.676   1.861 -0.2790  0.4665 -0.2507
  739TIP3    H123708   1.896   3.668   1.929  0.0009  0.6801 -0.5017
  739TIP3    H223709   1.851   3.757   1.815 -0.9614  0.7607 -0.0588
  740TIP3   OH223710   5.996   4.532   6.119 -0.3603 -0.2119  0.1588
  740TIP3    H123711   5.961   4.450   6.154  0.1485 -2.0267 -3.3193
  740TIP3    H223712   6.090   4.526   6.133 -0.5591  0.9560  2.1460
  741TIP3   OH223713   0.142   4.486  15.177  0.4065 -0.1786 -0.3103
  741TIP3    H123714   0.121   4.533  15.258  1.5266 -1.7936  0.9562
  741TIP3    H223715   0.225   4.524  15.148  0.8312 -0.6903  0.2042
  742TIP3   OH223716   0.902   0.368  11.452  0.5511  0.2871 -0.0314
  742TIP3    H123717   0.993   0.347  11.431  0.3265  0.6876 -1.4623
  742TIP3    H223718   0.901   0.464  11.459  0.0297  0.3764 -1.1420
  743TIP3   OH223719   0.395   1.504   3.815  0.4584  0.3726 -0.0247
  743TIP3    H123720   0.438   1.474   3.896 -1.0776 -0.9042  0.3455
  743TIP3    H223721   0.362   1.424   3.774  0.0332  1.1480 -1.2267
  744TIP3   OH223722   4.628   1.304  15.748 -0.1227  0.6559 -0.1628
  744TIP3    H123723   4.639   1.398  15.735 -0.2908  0.5844 -0.8205
  744TIP3    H223724   4.549   1.297  15.802  0.0722  0.9063  0.1547
  745TIP3   OH223725   4.298   4.118  16.405 -0.0463  0.1990 -0.1118
  745TIP3    H123726   4.336   4.115  16.493 -0.2044 -0.1397 -0.0522
  745TIP3    H223727   4.336   4.197  16.365 -0.2726  0.5720  0.3970
  746TIP3   OH223728   5.203   4.329  13.986  0.2731 -0.2782 -0.2378
  746TIP3    H123729   5.172   4.368  14.068 -0.9945  0.7589 -1.1906
  746TIP3    H223730   5.297   4.346  13.985 -0.0115  1.3309  0.1237
  747TIP3   OH223731   3.606   6.731  12.502  0.6905  0.4629  0.1094
  747TIP3    H123732   3.656   6.794  12.451  1.6485 -0.3795 -0.0129
  747TIP3    H223733   3.607   6.766  12.591  2.5810 -0.1776  0.3590
  748TIP3   OH223734   1.136   3.541  13.070 -0.2837 -0.5104 -0.4418
  748TIP3    H123735   1.077   3.579  13.004  0.6219 -1.2680 -1.7232
  748TIP3    H223736   1.221   3.579  13.050 -0.3230  0.6125  1.4315
  749TIP3   OH223737   2.526   0.115  11.006  0.1640  0.3108 -0.0434
  749TIP3    H123738   2.462   0.172  10.963 -0.3745 -0.4936 -0.3299
  749TIP3    H223739   2.588   0.092  10.936 -0.7544 -1.0585 -0.4312
  750TIP3   OH223740   5.339   5.817   3.978 -0.0186 -0.5862 -0.1783
  750TIP3    H123741   5.267   5.831   3.916 -1.7855  0.0517  1.9528
  750TIP3    H223742   5.306   5.852   4.061  3.2745  0.9304  0.5430
  751TIP3   OH223743   0.902   1.325  14.754  0.4792 -0.0397 -0.2056
  751TIP3    H123744   0.933   1.411  14.723  1.2797 -0.2507 -0.0155
  751TIP3    H223745   0.853   1.289  14.680 -0.4325  0.8659 -0.0481
  752TIP3   OH223746   0.482   3.115   0.917 -0.0464 -0.2082 -1.0094
  752TIP3    H123747   0.424   3.114   0.993 -0.9998  0.7701 -1.7093
  752TIP3    H223748   0.550   3.178   0.941  0.2036 -0.6419 -0.5710
  753TIP3   OH223749   0.579   3.822   5.560 -0.0269  0.4762 -0.3433
  753TIP3    H123750   0.669   3.827   5.529 -0.2057  1.8483 -0.7039
  753TIP3    H223751   0.586   3.807   5.654  0.5466 -1.3907 -0.6735
  754TIP3   OH223752   5.995   4.587  13.901  0.7164 -0.6521  0.2471
  754TIP3    H123753   6.003   4.665  13.957 -0.3257  0.3129 -0.9253
  754TIP3    H223754   5.913   4.599  13.855  0.2719 -2.7540  0.4532
  755TIP3   OH223755   6.719   6.088   4.641  0.7455  0.0928 -0.8125
  755TIP3    H123756   6.672   6.093   4.724  0.6965 -4.4563 -0.4370
  755TIP3    H223757   6.657   6.121   4.576 -0.1609  1.2751  0.6271
  756TIP3   OH223758   3.387   5.440  16.098  0.4950  0.0883  0.3544
  756TIP3    H123759   3.386   5.368  16.161 -1.3728 -0.2019  0.0205
  756TIP3    H223760   3.428   5.404  16.020 -0.5042 -0.6417  0.1640
  757TIP3   OH223761   6.257   1.608   1.699 -0.3351 -0.2221 -0.1326
  757TIP3    H123762   6.232   1.525   1.741  0.8691 -0.0301  1.0161
  757TIP3    H223763   6.329   1.585   1.641  2.1151  0.4717  2.5128
  758TIP3   OH223764   6.757   2.114  15.533  0.5735 -0.2054  0.0264
  758TIP3    H123765   6.768   2.050  15.603  0.6096 -1.6580 -1.2743
  758TIP3    H223766   6.846   2.137  15.506  0.5539 -0.8830 -0.6321
  759TIP3   OH223767   1.114   2.490  16.151  0.3232  0.0032  0.6866
  759TIP3    H123768   1.134   2.479  16.058  0.5425  2.1228  0.4660
  759TIP3    H223769   1.160   2.418  16.194  0.2552 -0.9607 -0.8399
  760TIP3   OH223770   3.231   1.947   4.610  0.6755  0.2708  0.3120
  760TIP3    H123771   3.229   2.041   4.629  2.8047  0.4590 -0.2640
  760TIP3    H223772   3.222   1.942   4.515 -0.2001 -0.1703  0.4097
  761TIP3   OH223773   1.734   1.550   4.322  0.0205 -0.4445 -0.8013
  761TIP3    H123774   1.716   1.457   4.334 -0.6692 -0.1010  0.9550
  761TIP3    H223775   1.713   1.567   4.231 -0.5396 -1.8543 -0.9444
  762TIP3   OH223776   3.620   2.390  13.400 -0.4374 -0.2572 -0.0642
  762TIP3    H123777   3.630   2.476  13.442 -0.3876 -0.5684  0.5725
  762TIP3    H223778   3.543   2.352  13.443  0.3552 -1.0926  0.6412
  763TIP3   OH223779   0.425   5.868  15.803  0.4623  0.1306 -0.1874
  763TIP3    H123780   0.473   5.839  15.881  2.1678  1.2378 -0.7856
  763TIP3    H223781   0.475   5.833  15.729 -1.2316 -1.0471 -0.7936
  764TIP3   OH223782   4.071   2.913  13.875  0.5197  0.0224 -0.4262
  764TIP3    H123783   4.148   2.918  13.818  0.3138 -2.7843 -1.0503
  764TIP3    H223784   4.106   2.894  13.962  0.7124  2.3685  0.0445
  765TIP3   OH223785   6.386   0.115   5.746 -0.0631  0.3952 -0.4370
  765TIP3    H123786   6.355   0.084   5.661 -0.4216 -0.1894 -0.0963
  765TIP3    H223787   6.330   0.071   5.809  0.8388  0.0697  0.1385
  766TIP3   OH223788   4.068   2.985  11.915 -0.7577  0.1285  0.0607
  766TIP3    H123789   4.051   2.905  11.964  2.5484 -0.4308  0.4059
  766TIP3    H223790   4.064   2.959  11.823 -1.1406 -0.1071  0.1445
  767TIP3   OH223791   3.157   4.575  11.627  0.1372 -0.0577 -0.0732
  767TIP3    H123792   3.163   4.539  11.715  0.7642 -0.4259 -0.2569
  767TIP3    H223793   3.067   4.605  11.618  0.0165 -0.2238  0.6128
  768TIP3   OH223794   4.105   4.818  13.345  0.1652 -0.4907  0.3099
  768TIP3    H123795   4.048   4.841  13.271 -0.7358 -1.0517  0.8177
  768TIP3    H223796   4.193   4.814  13.307  0.1346  2.1297 -0.1232
  769TIP3   OH223797   1.079   2.551  14.300  0.5544 -0.1283  0.1932
  769TIP3    H123798   1.045   2.639  14.312  0.5139 -0.0032 -0.7745
  769TIP3    H223799   1.171   2.556  14.327  0.9240  0.5462 -1.1608
  770TIP3   OH223800   0.929   0.432   2.688 -0.7044  0.3436 -0.1590
  770TIP3    H123801   0.842   0.470   2.680 -0.2991  1.2041 -0.5659
  770TIP3    H223802   0.949   0.436   2.781 -0.2637  2.0488 -0.3156
  771TIP3   OH223803   3.317   2.587  11.064  0.8808  0.1714 -0.1537
  771TIP3    H123804   3.282   2.510  11.019  1.1316 -0.2724  0.4040
  771TIP3    H223805   3.404   2.560  11.094  0.7442  0.4815  0.5330
  772TIP3   OH223806   4.240   6.315   5.151 -0.2702 -0.2339 -0.7286
  772TIP3    H123807   4.326   6.310   5.108 -0.0364  0.3820 -0.3384
  772TIP3    H223808   4.260   6.316   5.244 -0.7637 -1.2067 -0.6002
  773TIP3   OH223809   5.712   0.018   6.001  0.1563 -0.1529 -0.2376
  773TIP3    H123810   5.778   0.082   5.974  1.6147 -1.2610  0.6248
  773TIP3    H223811   5.681   0.050   6.086  0.4700 -0.2843 -0.0732
  774TIP3   OH223812   1.005   4.714   4.289  0.1529  0.3320 -0.7727
  774TIP3    H123813   1.022   4.808   4.297  0.2475  0.3413 -1.0649
  774TIP3    H223814   1.036   4.677   4.372  1.8374  0.3245 -1.3762
  775TIP3   OH223815   6.653   1.789  16.806  0.0549  0.3318 -0.6931
  775TIP3    H123816   6.656   1.885  16.807 -0.3640  0.3505  0.9245
  775TIP3    H223817   6.718   1.763  16.872 -1.0111 -0.4404  0.0749
  776TIP3   OH223818   6.800   6.087  16.816 -0.2537  0.5711 -0.0361
  776TIP3    H123819   6.726   6.112  16.872 -0.2754 -0.0142  0.2055
  776TIP3    H223820   6.877   6.123  16.860 -0.4675  1.8544 -0.6951
  777TIP3   OH223821   6.349   6.087   1.356 -0.3164  0.3689 -0.1181
  777TIP3    H123822   6.299   6.168   1.351 -2.4172 -0.9165 -0.5001
  777TIP3    H223823   6.329   6.041   1.275  2.1156  0.1400 -0.6461
  778TIP3   OH223824   1.339   4.389   4.446 -0.1283  0.2577 -0.5399
  778TIP3    H123825   1.346   4.394   4.351 -0.9310  0.1026 -0.6142
  778TIP3    H223826   1.261   4.336   4.461  0.5435 -0.5308  0.2074
  779TIP3   OH223827   4.181   6.080  12.843  0.0441 -0.4810 -0.6582
  779TIP3    H123828   4.086   6.084  12.850  0.0892 -0.9636  0.4512
  779TIP3    H223829   4.205   5.999  12.888  1.2075  1.2840  2.0918
  780TIP3   OH223830   5.452   1.505  11.789 -0.3182 -0.0812  0.2953
  780TIP3    H123831   5.386   1.480  11.725 -0.9221  0.9636  0.5010
  780TIP3    H223832   5.533   1.511  11.739 -0.4750 -0.8404 -0.0577
  781TIP3   OH223833   0.240   1.685  13.194  0.6521 -0.1316 -0.2037
  781TIP3    H123834   0.260   1.593  13.177  2.0210  0.3097 -1.0748
  781TIP3    H223835   0.210   1.686  13.285  2.8591 -1.1315  0.5980
  782TIP3   OH223836   3.526   1.154   0.134 -0.2342 -0.6696  0.0539
  782TIP3    H123837   3.616   1.156   0.103 -0.3191 -0.5541 -0.1872
  782TIP3    H223838   3.533   1.157   0.230 -0.0454  1.8822  0.0077
  783TIP3   OH223839   6.106   5.068   4.114 -0.2375 -0.2465 -0.2452
  783TIP3    H123840   6.056   5.040   4.191 -1.2814  0.7408 -0.5451
  783TIP3    H223841   6.040   5.107   4.056  0.7873  0.4702 -0.9391
  784TIP3   OH223842   5.664   0.472  13.959 -0.5372  1.4491  0.2218
  784TIP3    H123843   5.751   0.439  13.981 -0.6368  2.0124  1.5011
  784TIP3    H223844   5.644   0.434  13.874  1.8369  2.9716 -1.0642
  785TIP3   OH223845   2.500   0.183  14.664 -0.5902 -0.0632 -0.5215
  785TIP3    H123846   2.550   0.240  14.606  0.6401 -0.4051  0.1930
  785TIP3    H223847   2.554   0.105  14.674 -0.5284  0.2101  1.5014
  786TIP3   OH223848   6.057   0.624  16.457  0.5791 -0.0300  0.0274
  786TIP3    H123849   6.009   0.571  16.392 -1.0040  1.0768  0.2677
  786TIP3    H223850   6.144   0.584  16.460 -0.0885 -1.6385 -0.9638
  787TIP3   OH223851   3.257   5.645  11.559 -0.2751 -0.0708  0.0001
  787TIP3    H123852   3.283   5.561  11.522  0.3038  0.1734 -0.1638
  787TIP3    H223853   3.221   5.694  11.485 -0.1698 -0.0031 -0.0072
  788TIP3   OH223854   0.609   2.268   4.055 -0.1940  0.1528  0.0394
  788TIP3    H123855   0.695   2.237   4.028 -0.2760 -0.4839  0.4920
  788TIP3    H223856   0.618   2.363   4.060  0.6432  0.0422  0.6395
  789TIP3   OH223857   4.907   3.066   0.162 -0.1977 -0.0758  0.0544
  789TIP3    H123858   4.879   2.998   0.223 -0.6651  0.3556  0.3319
  789TIP3    H223859   5.000   3.050   0.148 -0.1287 -0.2762  0.7493
  790TIP3   OH223860   2.033   2.470  11.604 -0.5079 -0.1305 -0.1947
  790TIP3    H123861   1.966   2.475  11.536 -0.1532  2.5941 -0.4174
  790TIP3    H223862   1.996   2.413  11.671 -1.9690 -0.7051 -1.4709
  791TIP3   OH223863   0.232   5.138  13.530  0.6105 -0.2545 -0.4656
  791TIP3    H123864   0.260   5.060  13.577  0.6539  0.4133  0.6237
  791TIP3    H223865   0.176   5.185  13.591  3.1045  2.1580  0.0752
  792TIP3   OH223866   3.959   3.217  14.668 -0.1879  0.6501  0.1688
  792TIP3    H123867   4.038   3.165  14.686 -2.1171 -2.3394  0.3857
  792TIP3    H223868   3.927   3.184  14.584 -0.5777  2.6779 -0.5041
  793TIP3   OH223869   3.720   0.727   2.748 -0.1747 -0.6600  0.3102
  793TIP3    H123870   3.811   0.711   2.774 -0.4625 -0.8937  1.2019
  793TIP3    H223871   3.674   0.646   2.773 -0.5164 -0.7713 -0.6744
  794TIP3   OH223872   3.862   1.894   2.743 -0.1909  0.0997  0.5530
  794TIP3    H123873   3.845   1.966   2.683  2.6054  0.7902  0.5315
  794TIP3    H223874   3.885   1.937   2.826 -0.5465 -0.8026  1.1332
  795TIP3   OH223875   2.181   4.572   2.569  1.0125  0.2927 -0.3526
  795TIP3    H123876   2.091   4.545   2.551  0.7278  2.0711 -1.7071
  795TIP3    H223877   2.227   4.491   2.589 -0.6716 -0.7392 -0.5971
  796TIP3   OH223878   1.358   1.443   0.226 -0.3106 -0.0234 -0.5347
  796TIP3    H123879   1.268   1.430   0.197 -0.2436 -1.5801 -0.1111
  796TIP3    H223880   1.395   1.355   0.230  0.6351  0.4283  1.2118
  797TIP3   OH223881   0.426   0.203   4.044  0.0203  0.1080  0.4166
  797TIP3    H123882   0.451   0.255   3.968 -0.4762  0.0492  0.2108
  797TIP3    H223883   0.374   0.263   4.099  1.1683  0.4303  1.1687
  798TIP3   OH223884   5.834   3.253   0.218 -0.2572  0.0441 -0.1123
  798TIP3    H123885   5.812   3.208   0.300 -0.5088  1.9087  0.8520
  798TIP3    H223886   5.783   3.206   0.151 -1.1406 -0.5964  0.9915
  799TIP3   OH223887   6.314   2.696  16.848  0.4014 -0.2437 -0.0206
  799TIP3    H123888   6.374   2.680  16.921 -0.5882  2.4435  1.4255
  799TIP3    H223889   6.358   2.657  16.773  1.7213 -2.5529  1.8761
  800TIP3   OH223890   3.941   2.778  12.849  0.1315  0.0576  0.2542
  800TIP3    H123891   3.980   2.849  12.798 -1.4115  1.2316  0.6523
  800TIP3    H223892   3.928   2.707  12.785  1.4931  0.1915 -0.1946
  801TIP3   OH223893   3.666   0.323  15.186  0.0769 -0.3068  0.7685
  801TIP3    H123894   3.744   0.366  15.151  0.8899 -3.0659 -0.9553
  801TIP3    H223895   3.683   0.317  15.280  2.6767 -2.1381  0.2542
  802TIP3   OH223896   1.093   5.449   1.409 -0.3805 -0.0977  0.2802
  802TIP3    H123897   1.161   5.422   1.347 -1.8518 -0.6787 -1.1143
  802TIP3    H223898   1.100   5.386   1.481  1.1341  0.3933  0.5816
  803TIP3   OH223899   3.458   1.163   4.234 -0.3342 -0.3140 -0.6756
  803TIP3    H123900   3.411   1.181   4.315 -1.0272  2.5460 -1.6563
  803TIP3    H223901   3.427   1.076   4.207 -0.6267 -0.9693  1.7274
  804TIP3   OH223902   2.379   3.332   5.104  0.2385  0.1137  0.4721
  804TIP3    H123903   2.463   3.304   5.140  0.3368  1.3202  1.1924
  804TIP3    H223904   2.401   3.405   5.046 -0.5315  1.8633  2.3354
  805TIP3   OH223905   0.864   5.081  11.284  0.0887 -1.0232  0.1525
  805TIP3    H123906   0.932   5.127  11.333 -2.1839  0.6803  1.7879
  805TIP3    H223907   0.891   5.089  11.193  2.1094 -0.4653  0.7612
  806TIP3   OH223908   5.700   0.623  16.721 -0.4478 -0.6877  0.4291
  806TIP3    H123909   5.703   0.703  16.668 -0.0256 -1.2515 -0.4232
  806TIP3    H223910   5.790   0.590  16.720 -0.6941 -1.3799  0.4245
  807TIP3   OH223911   1.240   5.851   2.424 -0.2079  0.6361  0.2153
  807TIP3    H123912   1.279   5.881   2.342  0.0434  2.5789  1.0114
  807TIP3    H223913   1.169   5.913   2.441 -0.6482 -0.1117  1.1501
  808TIP3   OH223914   6.395   2.441   3.901  0.7229  0.0990 -0.1980
  808TIP3    H123915   6.418   2.533   3.894  1.7314 -0.2064 -1.0570
  808TIP3    H223916   6.382   2.427   3.995 -1.6590  1.6124 -0.2774
  809TIP3   OH223917   2.611   1.684  11.511 -0.4810 -0.7177 -0.5968
  809TIP3    H123918   2.545   1.707  11.576  1.0925 -0.9193  1.1291
  809TIP3    H223919   2.671   1.625  11.558  1.0132 -0.3964 -2.0443
  810TIP3   OH223920   4.610   2.959   3.635 -0.3680 -0.5066  0.0735
  810TIP3    H123921   4.621   2.864   3.638 -2.9077 -0.7974  1.2835
  810TIP3    H223922   4.560   2.980   3.713 -0.2547  1.8008 -0.4253
  811TIP3   OH223923   6.302   0.543  15.725 -0.8178  1.3053 -0.2444
  811TIP3    H123924   6.291   0.614  15.661  2.0113  0.7423 -1.4381
  811TIP3    H223925   6.309   0.587  15.809  0.0242  2.3987 -0.8767
  812TIP3   OH223926   1.567   3.572  14.511 -0.1251  0.3297 -0.2285
  812TIP3    H123927   1.578   3.660  14.548  1.5248  0.3830 -0.8075
  812TIP3    H223928   1.559   3.587  14.417  2.1509 -0.2541 -0.5478
  813TIP3   OH223929   4.370   4.284  11.379 -0.1954  0.0741 -0.6253
  813TIP3    H123930   4.422   4.224  11.433  1.3586 -1.2717 -3.5415
  813TIP3    H223931   4.282   4.280  11.419  0.3515 -2.6274  0.4537
  814TIP3   OH223932   1.378   5.185  12.586  0.3986 -0.0088 -0.5853
  814TIP3    H123933   1.371   5.175  12.681 -0.3712 -1.1716 -0.7562
  814TIP3    H223934   1.291   5.163  12.554  0.2956  1.5945 -1.4717
  815TIP3   OH223935   1.862   3.806   2.549  0.5434  0.3051 -0.0148
  815TIP3    H123936   1.806   3.838   2.478 -1.1934 -1.4305  0.5286
  815TIP3    H223937   1.883   3.716   2.524 -1.1054 -0.7446  2.2296
  816TIP3   OH223938   5.843   3.540   4.570  0.3972 -0.2739 -0.7416
  816TIP3    H123939   5.929   3.529   4.609  0.8116  0.6507 -1.3825
  816TIP3    H223940   5.812   3.625   4.604  0.6265  0.3871 -2.1375
  817TIP3   OH223941   2.614   3.169   2.494 -0.3444  0.0159  0.2773
  817TIP3    H123942   2.622   3.131   2.582  0.2475  0.1251  0.2722
  817TIP3    H223943   2.702   3.199   2.473 -0.6326  0.6344 -0.0662
  818TIP3   OH223944   5.896   6.127   2.821 -0.0598 -0.3744 -0.0548
  818TIP3    H123945   5.872   6.200   2.765  0.5349 -0.8887 -0.9975
  818TIP3    H223946   5.926   6.167   2.903  1.5582  0.4869 -1.0554
  819TIP3   OH223947   3.774   1.199   0.394  0.1646  0.0105  0.2803
  819TIP3    H123948   3.849   1.148   0.363  0.0315 -0.5041  0.8088
  819TIP3    H223949   3.803   1.236   0.477  0.5397  1.4389 -0.4706
  820TIP3   OH223950   3.489   3.150   3.623  0.2382  0.0611  0.1664
  820TIP3    H123951   3.509   3.083   3.689  0.4733 -0.5495 -0.5263
  820TIP3    H223952   3.493   3.104   3.539  3.0001  1.4804 -0.5307
  821TIP3   OH223953   3.220   4.895  12.813 -0.3574 -0.4495  0.8378
  821TIP3    H123954   3.219   4.915  12.719  0.8974 -1.1581  0.6645
  821TIP3    H223955   3.277   4.962  12.851  1.6314 -1.9967  0.6459
  822TIP3   OH223956   1.095   3.417   4.072  0.1155 -0.0830  0.4182
  822TIP3    H123957   1.094   3.321   4.069  0.1927 -0.1134  1.3978
  822TIP3    H223958   1.156   3.438   4.143 -0.1350  0.6913  0.4046
  823TIP3   OH223959   1.941   5.470  11.616  0.5379 -0.0352  0.5695
  823TIP3    H123960   1.907   5.534  11.554 -0.1193  0.8226  1.8115
  823TIP3    H223961   2.021   5.509  11.650  1.2641 -0.8027 -0.2132
  824TIP3   OH223962   2.273   0.706   1.905 -0.0499  0.0665 -0.7025
  824TIP3    H123963   2.260   0.613   1.886  1.7090 -0.6186  1.2466
  824TIP3    H223964   2.212   0.751   1.847 -1.8952 -2.3635 -0.7334
  825TIP3   OH223965   4.260   6.364  12.910 -0.0049  0.1211 -0.1064
  825TIP3    H123966   4.251   6.272  12.887  0.6532  0.6356 -2.5886
  825TIP3    H223967   4.208   6.411  12.844  0.2429  1.5581  0.6965
  826TIP3   OH223968   4.662   4.907  13.099 -0.7903 -0.2423  0.0397
  826TIP3    H123969   4.597   4.839  13.081 -0.6776 -0.5735  0.8372
  826TIP3    H223970   4.690   4.937  13.013 -1.7217 -0.3653 -0.3117
  827TIP3   OH223971   1.124   4.978  11.212 -0.1400  0.0718 -0.6896
  827TIP3    H123972   1.176   4.997  11.290 -0.2591 -0.4849 -0.4729
  827TIP3    H223973   1.186   4.937  11.152  0.1305  1.1743 -1.1787
  828TIP3   OH223974   1.184   3.197   5.683 -0.1614 -0.9032 -0.8804
  828TIP3    H123975   1.095   3.196   5.718 -0.0293 -0.3749 -0.5208
  828TIP3    H223976   1.240   3.211   5.760  0.1303  0.3204 -1.3075
  829TIP3   OH223977   2.541   4.116  13.257 -0.5152 -0.1061  0.2149
  829TIP3    H123978   2.503   4.086  13.174 -1.9436  0.1753  0.7569
  829TIP3    H223979   2.519   4.046  13.319  1.3034 -0.7329  0.1884
  830TIP3   OH223980   5.192   5.082   2.172 -0.1460 -0.0120  0.1768
  830TIP3    H123981   5.215   5.006   2.226 -1.0259  0.0874  0.6960
  830TIP3    H223982   5.203   5.052   2.082  1.5793 -0.1055  0.4036
  831TIP3   OH223983   1.109   0.109   1.311  0.1169  0.3874 -0.2692
  831TIP3    H123984   1.097   0.164   1.234  0.7686  0.2239 -0.4886
  831TIP3    H223985   1.136   0.169   1.380  0.5787  0.3834 -0.4441
  832TIP3   OH223986   5.441   5.210   2.124 -0.0850 -0.9265 -0.6016
  832TIP3    H123987   5.346   5.213   2.139 -0.0690 -1.2131 -0.4432
  832TIP3    H223988   5.451   5.149   2.051  0.0365 -1.4747 -0.1284
  833TIP3   OH223989   5.452   1.157  13.407  0.4646 -0.0852 -0.6085
  833TIP3    H123990   5.463   1.252  13.406  0.5252 -0.0689  0.7433
  833TIP3    H223991   5.388   1.141  13.477 -0.2248 -0.9691 -1.4323
  834TIP3   OH223992   5.814   2.125   5.447 -0.3733 -0.2133  0.1020
  834TIP3    H123993   5.810   2.188   5.519  1.0007  0.7535 -0.6451
  834TIP3    H223994   5.733   2.140   5.398 -0.7694 -0.0844  0.7937
  835TIP3   OH223995   2.146   2.151  12.771  0.0073  0.1767 -0.1243
  835TIP3    H123996   2.097   2.230  12.749 -0.1205  0.2795  0.5206
  835TIP3    H223997   2.106   2.119  12.852  0.1201 -0.4981 -0.3265
  836TIP3   OH223998   3.956   2.605  13.349  0.2220  0.3303 -0.3011
  836TIP3    H123999   3.920   2.519  13.325  0.8980 -0.3111  0.9423
  836TIP3    H224000   4.048   2.588  13.368  0.2735  1.2641  0.3245
  837TIP3   OH224001   4.227   6.088   4.655 -1.1115  0.0462  0.3949
  837TIP3    H124002   4.158   6.114   4.716 -0.7546 -0.6886  1.1330
  837TIP3    H224003   4.284   6.164   4.649  0.0424 -0.5737  2.6910
  838TIP3   OH224004   5.808   5.509  13.404  0.2971  0.2650  0.2332
  838TIP3    H124005   5.744   5.440  13.386  1.2273 -0.0623 -1.8586
  838TIP3    H224006   5.858   5.519  13.323  1.4211  2.0986  1.1028
  839TIP3   OH224007   3.303   0.384   2.941  0.2684 -0.2505 -1.5074
  839TIP3    H124008   3.292   0.448   3.012 -4.0365 -1.5976 -0.8532
  839TIP3    H224009   3.374   0.327   2.972 -0.0082  0.5403  0.6854
  840TIP3   OH224010   5.724   0.773   1.884  0.2068  0.5804  0.0279
  840TIP3    H124011   5.765   0.715   1.820 -0.4843 -0.3076  0.3717
  840TIP3    H224012   5.657   0.821   1.834  2.0281  2.4582 -0.6585
  841TIP3   OH224013   3.906   5.736  17.258  0.0671 -0.1635 -0.3965
  841TIP3    H124014   3.904   5.663  17.319 -0.1000  0.3729  0.2484
  841TIP3    H224015   3.816   5.741  17.225  0.0809 -0.2577 -0.4481
  842TIP3   OH224016   6.385   0.123  11.021  0.1158  0.0978 -0.0628
  842TIP3    H124017   6.396   0.210  11.060  1.6008  0.5838 -1.5200
  842TIP3    H224018   6.389   0.139  10.927  1.0519 -1.6371 -0.3311
  843TIP3   OH224019   0.818   5.644   1.183  0.3871  0.1334 -0.1629
  843TIP3    H124020   0.847   5.702   1.113 -1.7600  0.5613 -0.7075
  843TIP3    H224021   0.725   5.630   1.166  0.0998 -0.6523  1.9637
  844TIP3   OH224022   2.256   6.544  15.543  0.9377  0.1035  0.6354
  844TIP3    H124023   2.223   6.552  15.633 -0.3254  2.3136 -0.0042
  844TIP3    H224024   2.286   6.632  15.520  0.0870 -0.1559 -1.5510
  845TIP3   OH224025   0.354   0.265   4.604  0.7368  0.3574 -0.3405
  845TIP3    H124026   0.370   0.207   4.678  0.3030  1.6478  0.7927
  845TIP3    H224027   0.293   0.217   4.548 -1.6813  0.7566  1.8674
  846TIP3   OH224028   0.687   6.555  15.162  0.3045 -0.1532 -0.2527
  846TIP3    H124029   0.602   6.599  15.150 -0.1964 -1.0849 -0.1085
  846TIP3    H224030   0.748   6.608  15.110 -0.3856  0.4564 -0.4530
  847TIP3   OH224031   6.694   0.366  14.831  0.1462 -0.2271 -0.3156
  847TIP3    H124032   6.689   0.456  14.861 -0.2125 -0.1023 -0.7411
  847TIP3    H224033   6.657   0.368  14.742  1.1882 -0.5792 -0.7768
  848TIP3   OH224034   3.586   0.362   3.418 -0.5696  0.5075  0.0210
  848TIP3    H124035   3.526   0.288   3.412 -1.1591  0.7686  2.4988
  848TIP3    H224036   3.529   0.438   3.428  0.0346  1.3501 -2.5276
  849TIP3   OH224037   0.347   6.437   5.218  0.1678 -0.1574  0.8774
  849TIP3    H124038   0.333   6.517   5.269 -0.8073 -0.2541  0.7570
  849TIP3    H224039   0.366   6.468   5.130  0.0544 -0.0549  0.8897
  850TIP3   OH224040   6.327   6.332  14.560 -0.3524 -0.0752  0.1380
  850TIP3    H124041   6.339   6.369  14.472 -0.0741 -0.6109 -0.0453
  850TIP3    H224042   6.360   6.400  14.618 -0.2846  0.1710 -0.1836
  851TIP3   OH224043   6.339   5.226  10.866  0.7961  0.1145  0.2225
  851TIP3    H124044   6.420   5.179  10.888  0.4444 -0.7938 -0.4173
  851TIP3    H224045   6.326   5.210  10.773  1.3370  2.5260 -0.3066
  852TIP3   OH224046   4.116   1.064  13.274 -0.2233 -0.3339 -0.5055
  852TIP3    H124047   4.049   1.132  13.271  0.4302  0.2691 -1.6846
  852TIP3    H224048   4.171   1.087  13.349  0.5201  0.9504 -1.4287
  853TIP3   OH224049   6.570   5.268  15.844 -0.2538 -0.1356  0.0847
  853TIP3    H124050   6.637   5.205  15.870 -1.4983 -0.5612  2.4377
  853TIP3    H224051   6.496   5.214  15.816 -0.3473  0.2908 -0.4893
  854TIP3   OH224052   5.544   1.111  15.414  0.0771  0.1710  0.0983
  854TIP3    H124053   5.532   1.184  15.354  2.1557  0.3957 -0.0960
  854TIP3    H224054   5.492   1.040  15.377 -1.0506  1.2061 -0.3278
  855TIP3   OH224055   1.874   5.296  16.033  0.5642 -0.1226 -0.1164
  855TIP3    H124056   1.954   5.249  16.057  0.3302 -0.1585  0.5910
  855TIP3    H224057   1.823   5.231  15.984  0.8132 -0.2070 -0.2677
  856TIP3   OH224058   6.389   3.431  12.981 -0.1399  0.4110  0.6841
  856TIP3    H124059   6.333   3.432  12.904  1.0122 -2.1528 -0.2024
  856TIP3    H224060   6.387   3.341  13.012  1.6602  0.7983  2.0094
  857TIP3   OH224061   2.738   4.419  12.644 -0.0356  0.1957 -0.0133
  857TIP3    H124062   2.833   4.405  12.651 -0.0810 -0.8182 -1.1762
  857TIP3    H224063   2.700   4.336  12.673 -0.6131  0.9181  1.3589
  858TIP3   OH224064   6.454   6.677   4.190  0.0368  0.3002  0.1717
  858TIP3    H124065   6.399   6.719   4.124 -0.1514  1.7978  1.2499
  858TIP3    H224066   6.543   6.697   4.163 -0.0068  0.0784 -0.1507
  859TIP3   OH224067   1.692   2.875   1.744 -0.4670  0.1743  0.2726
  859TIP3    H124068   1.637   2.883   1.821 -1.3586 -0.0122 -0.3301
  859TIP3    H224069   1.733   2.789   1.752 -1.4909 -0.3494 -0.0528
  860TIP3   OH224070   4.063   2.070   0.714 -0.4072  0.0229 -0.0202
  860TIP3    H124071   4.003   2.084   0.787 -0.5189 -0.0543 -0.0967
  860TIP3    H224072   4.071   1.975   0.708 -0.2640  0.0337  0.0006
  861TIP3   OH224073   5.992   5.981   5.032 -0.0552  0.2526 -0.0914
  861TIP3    H124074   6.071   6.021   4.996 -0.3671  1.1982  0.2514
  861TIP3    H224075   5.937   5.963   4.956  0.2310  0.1647 -0.2785
  862TIP3   OH224076   1.141   4.049   3.066  0.1613  0.0346 -0.1067
  862TIP3    H124077   1.101   4.066   2.981 -0.8992  0.6619  0.5139
  862TIP3    H224078   1.117   3.958   3.085 -1.2549  0.5091  0.4107
  863TIP3   OH224079   1.083   5.433  16.058  0.7712  0.2032 -0.0989
  863TIP3    H124080   0.987   5.437  16.060  0.5733 -3.8804  1.5896
  863TIP3    H224081   1.110   5.452  16.148  1.5733  0.7840 -0.4503
  864TIP3   OH224082   1.746   5.883  13.995 -0.4559  0.0059  0.6474
  864TIP3    H124083   1.735   5.971  13.959 -0.3606  0.2759  1.2679
  864TIP3    H224084   1.826   5.889  14.047  0.3364 -0.8266 -0.4511
  865TIP3   OH224085   3.275   0.802   1.814 -0.1708  0.1681 -0.2054
  865TIP3    H124086   3.223   0.755   1.749  0.7027  0.5373 -1.1889
  865TIP3    H224087   3.223   0.798   1.894 -0.0811 -2.5082 -0.2372
  866TIP3   OH224088   5.341   6.033  17.141 -0.4792 -0.0577 -0.4930
  866TIP3    H124089   5.255   5.995  17.122 -0.0102 -0.3689 -2.0965
  866TIP3    H224090   5.395   5.959  17.168 -0.1140 -0.2341 -1.6700
  867TIP3   OH224091   3.294   2.188   2.534  0.6526  0.1197 -0.2707
  867TIP3    H124092   3.360   2.140   2.484 -0.5086 -0.8015 -0.9405
  867TIP3    H224093   3.272   2.263   2.480 -1.1894 -1.3051 -1.5498
  868TIP3   OH224094   4.305   3.621   5.829  0.3824 -0.3002  0.3170
  868TIP3    H124095   4.400   3.613   5.836  0.3724 -2.0555 -1.0179
  868TIP3    H224096   4.272   3.533   5.846 -1.0839  0.4772  1.6509
  869TIP3   OH224097   5.862   4.401   1.098  0.0009  0.8967 -0.9815
  869TIP3    H124098   5.847   4.348   1.020 -0.2734  0.1276 -0.4161
  869TIP3    H224099   5.820   4.351   1.169 -1.7173  2.6875 -0.7083
  870TIP3   OH224100   6.011   0.506  16.960 -0.2037 -0.4151 -0.7809
  870TIP3    H124101   6.093   0.456  16.955 -0.5763 -1.0362 -0.6477
  870TIP3    H224102   5.986   0.519  16.868 -0.4047 -0.9699 -0.8100
  871TIP3   OH224103   5.034   4.491  16.934  0.4664 -0.4180  0.3319
  871TIP3    H124104   5.106   4.553  16.945 -1.2140  1.9526 -1.5091
  871TIP3    H224105   5.002   4.476  17.023  0.2305  2.2133  0.7327
  872TIP3   OH224106   5.533   4.907  15.824  0.2720 -0.3582 -0.9176
  872TIP3    H124107   5.614   4.959  15.818  0.4113 -0.7098 -2.1663
  872TIP3    H224108   5.559   4.819  15.797 -0.4600 -0.5460 -1.0129
  873TIP3   OH224109   3.133   5.798   1.512  0.1291  0.2567 -0.0307
  873TIP3    H124110   3.044   5.816   1.482  0.9241  3.7843 -0.5015
  873TIP3    H224111   3.176   5.759   1.436 -1.0667 -1.8931  0.3343
  874TIP3   OH224112   0.638   3.727   1.086  0.1665  0.5810 -0.2292
  874TIP3    H124113   0.578   3.794   1.052  0.7043  1.5504  0.7001
  874TIP3    H224114   0.614   3.647   1.039 -0.2649  1.4950 -1.5920
  875TIP3   OH224115   3.047   3.315   4.641  0.3200  0.7677  0.1226
  875TIP3    H124116   3.122   3.255   4.641  2.3392  3.1386  3.0364
  875TIP3    H224117   2.971   3.258   4.639  2.1686 -1.8016  0.3357
  876TIP3   OH224118   1.190   4.263  14.832  0.1236  0.9231  0.2271
  876TIP3    H124119   1.222   4.200  14.896 -0.9315  0.0146 -0.1304
  876TIP3    H224120   1.265   4.281  14.776  0.4253 -0.0034  0.3377
  877TIP3   OH224121   6.338   0.840   2.233 -0.1369 -0.4572  0.1684
  877TIP3    H124122   6.399   0.767   2.245 -0.1222 -0.4553  0.1047
  877TIP3    H224123   6.392   0.918   2.242  0.0220 -0.4597 -0.6932
  878TIP3   OH224124   3.278   1.499   5.901 -0.0876  0.1917  0.3069
  878TIP3    H124125   3.281   1.419   5.848  0.6854 -0.1374  0.8584
  878TIP3    H224126   3.202   1.487   5.958 -1.8378  1.1859 -1.7298
  879TIP3   OH224127   6.816   3.741  15.064  0.6109 -0.4097  0.0469
  879TIP3    H124128   6.850   3.688  15.136  0.1444  0.5838  1.0113
  879TIP3    H224129   6.730   3.704  15.046  1.5006 -1.8865 -1.3082
  880TIP3   OH224130   5.552   1.150   6.267 -0.3304 -0.4979  0.0142
  880TIP3    H124131   5.616   1.192   6.209  0.0688 -1.5590 -0.3179
  880TIP3    H224132   5.604   1.089   6.320 -0.9649 -0.8363  0.2519
  881TIP3   OH224133   3.178   0.920  12.849  0.4156  0.0595 -0.5568
  881TIP3    H124134   3.106   0.858  12.863  0.6988 -1.0770 -3.7897
  881TIP3    H224135   3.135   0.999  12.817  0.2841  0.7410  1.2431
  882TIP3   OH224136   0.534   1.640  14.697 -0.2178 -0.2283 -0.0329
  882TIP3    H124137   0.574   1.727  14.686 -0.6891  0.1295  1.0006
  882TIP3    H224138   0.498   1.619  14.610  0.2804  0.4196 -0.3979
  883TIP3   OH224139   0.169   5.472  16.606 -0.3275 -0.0413 -0.2578
  883TIP3    H124140   0.245   5.421  16.579 -0.5000 -0.8014  0.6878
  883TIP3    H224141   0.161   5.540  16.539  0.2683 -0.8756 -1.1895
  884TIP3   OH224142   4.092   3.403   6.135  0.3020 -0.4979 -0.5390
  884TIP3    H124143   4.035   3.359   6.197  0.5039  0.2032  0.1534
  884TIP3    H224144   4.034   3.461   6.085  0.4115  0.3001  0.2412
  885TIP3   OH224145   0.904   5.506  12.513 -0.7623 -0.1256 -0.7300
  885TIP3    H124146   0.889   5.459  12.595  0.1160  1.2818  0.2659
  885TIP3    H224147   0.817   5.535  12.485 -0.9963 -0.0232  0.0786
  886TIP3   OH224148   0.796   0.827   5.189 -0.0668  0.1805 -0.8034
  886TIP3    H124149   0.877   0.861   5.227 -0.1178 -0.8167  0.2069
  886TIP3    H224150   0.727   0.876   5.233 -0.0282  0.9811 -1.6143
  887TIP3   OH224151   2.515   0.733  16.669 -0.0278 -0.2273  0.1079
  887TIP3    H124152   2.564   0.654  16.644 -1.3525 -1.6232  1.8202
  887TIP3    H224153   2.526   0.792  16.594  3.9901 -0.5900  0.2634
  888TIP3   OH224154   3.849   5.048   3.769  0.5906 -0.1660 -0.2841
  888TIP3    H124155   3.805   5.018   3.848  0.0947  0.0193 -0.4889
  888TIP3    H224156   3.782   5.096   3.720  1.1971  0.7138 -0.2696
  889TIP3   OH224157   4.071   0.299   0.492 -0.2395 -0.4203 -0.6011
  889TIP3    H124158   4.030   0.225   0.447 -0.3364 -0.2854 -0.7342
  889TIP3    H224159   4.060   0.373   0.432 -0.5660 -0.1886 -0.2598
  890TIP3   OH224160   0.458   2.978   4.055 -0.3146  0.5642  0.1581
  890TIP3    H124161   0.458   3.052   3.994  2.3955 -0.1696 -0.8144
  890TIP3    H224162   0.538   2.990   4.107  0.6532 -2.1254 -0.6165
  891TIP3   OH224163   2.634   0.800  14.746 -0.4901 -0.6903  0.6602
  891TIP3    H124164   2.714   0.846  14.773  0.7096 -1.0349 -2.1849
  891TIP3    H224165   2.577   0.869  14.714 -0.1626 -0.7744 -0.1026
  892TIP3   OH224166   2.946   1.130   0.938  0.0088  0.2337  0.4870
  892TIP3    H124167   3.006   1.195   0.975 -2.5064  2.3074  1.0255
  892TIP3    H224168   2.939   1.154   0.845  2.1042 -1.6970 -0.2237
  893TIP3   OH224169   1.822   4.131   1.284 -0.1024 -0.2058 -0.1137
  893TIP3    H124170   1.752   4.077   1.246  0.0250  0.5838 -1.5097
  893TIP3    H224171   1.779   4.213   1.308  0.5512  0.7289 -2.0548
  894TIP3   OH224172   6.508   2.982   3.336 -0.7574  0.7188  0.0371
  894TIP3    H124173   6.555   2.906   3.370 -0.3090  0.5732 -0.8794
  894TIP3    H224174   6.577   3.045   3.315 -0.9954  0.6563 -0.9493
  895TIP3   OH224175   3.060   3.207   0.413 -0.3435 -0.3768  0.2809
  895TIP3    H124176   2.991   3.162   0.363 -0.2484  0.7849 -0.9165
  895TIP3    H224177   3.043   3.300   0.400  0.8309 -0.0751  0.8429
  896TIP3   OH224178   1.001   1.907  15.969 -0.8428  0.0092  0.1760
  896TIP3    H124179   0.998   1.991  16.014  1.6916  0.1000  0.2560
  896TIP3    H224180   1.026   1.844  16.036 -2.1456 -0.7424 -0.0131
  897TIP3   OH224181   3.291   5.333  13.836 -0.4153  0.3552  0.3486
  897TIP3    H124182   3.255   5.266  13.894  1.3211 -1.4248 -0.5802
  897TIP3    H224183   3.217   5.359  13.781 -1.4044  0.1217  1.5487
  898TIP3   OH224184   2.255   5.529   6.233  0.3696 -0.8987 -0.0355
  898TIP3    H124185   2.186   5.492   6.288 -0.8635 -0.1591 -1.0507
  898TIP3    H224186   2.215   5.534   6.146  1.6217 -0.2135 -0.5777
  899TIP3   OH224187   0.764   6.434   3.197  0.4040 -0.4024 -0.9712
  899TIP3    H124188   0.820   6.361   3.225  0.9318  0.1460 -0.6011
  899TIP3    H224189   0.825   6.501   3.166  0.0453  0.8231  0.9045
  900TIP3   OH224190   4.682   3.237  14.483 -0.0374 -0.6948  0.0130
  900TIP3    H124191   4.775   3.218  14.469 -0.0727 -0.1579 -0.9484
  900TIP3    H224192   4.641   3.223  14.398 -0.3968  1.6805 -0.2359
  901TIP3   OH224193   4.002   2.801  17.081 -0.1845 -0.6043  0.6856
  901TIP3    H124194   3.970   2.891  17.093 -0.0408 -0.6186  1.1878
  901TIP3    H224195   3.924   2.751  17.056 -0.1945 -0.2674  0.0046
  902TIP3   OH224196   3.702   0.290  14.019  0.1148 -0.2242  0.2371
  902TIP3    H124197   3.794   0.312  14.014 -0.1030  1.2834  2.4800
  902TIP3    H224198   3.695   0.230  14.094 -0.9365  0.8978  1.0539
  903TIP3   OH224199   1.907   4.424  15.063 -0.0313  0.4136  0.2517
  903TIP3    H124200   1.977   4.429  14.997 -0.8103  0.5722 -0.5662
  903TIP3    H224201   1.894   4.331  15.077  1.3406  0.3845  1.4827
  904TIP3   OH224202   1.822   1.857  15.584  0.0748 -0.4158 -0.9428
  904TIP3    H124203   1.750   1.919  15.574  0.9126  0.5418 -1.0944
  904TIP3    H224204   1.781   1.771  15.570 -1.1511  0.0618 -0.4471
  905TIP3   OH224205   2.605   5.000  13.245 -0.1699  0.4905  0.3858
  905TIP3    H124206   2.529   5.039  13.202  0.9548 -1.3694 -3.4988
  905TIP3    H224207   2.652   5.075  13.283 -2.4803  1.9272  0.4762
  906TIP3   OH224208   3.386   6.749  16.409  0.0663 -0.0469 -0.1217
  906TIP3    H124209   3.387   6.697  16.328 -1.1886 -1.0412  0.4806
  906TIP3    H224210   3.475   6.741  16.443  0.2790 -0.6027 -0.7947
  907TIP3   OH224211   4.986   2.705  15.959 -0.2187  0.1358  0.0305
  907TIP3    H124212   4.933   2.656  15.896 -0.5567  0.9722 -0.3394
  907TIP3    H224213   4.980   2.796  15.930  0.5423  0.3807  0.6156
  908TIP3   OH224214   2.101   2.127  15.850  0.2073 -0.1113  0.5417
  908TIP3    H124215   2.194   2.146  15.837  0.0156  0.4417 -0.0213
  908TIP3    H224216   2.068   2.204  15.897 -0.5482  0.9179 -1.6362
  909TIP3   OH224217   1.208   3.667   4.146 -0.2583  0.2164  0.0395
  909TIP3    H124218   1.273   3.677   4.077 -0.5315 -1.5473 -0.5134
  909TIP3    H224219   1.148   3.740   4.134 -0.4367 -0.1965 -1.7640
  910TIP3   OH224220   2.395   0.298  13.657 -0.0639 -0.2750 -0.1255
  910TIP3    H124221   2.487   0.289  13.631  0.2769  1.7724  0.3475
  910TIP3    H224222   2.347   0.249  13.590  1.0560  2.2907 -2.9326
  911TIP3   OH224223   0.085   0.980   6.190 -0.2307 -0.1329  0.4657
  911TIP3    H124224  -0.003   1.013   6.172  0.2184  1.2406  0.6835
  911TIP3    H224225   0.072   0.910   6.254 -1.3899 -1.7480 -1.4701
  912TIP3   OH224226   4.743   0.029   0.606 -0.4865  0.7214 -0.9137
  912TIP3    H124227   4.777  -0.046   0.558 -2.0922 -0.3236 -0.4404
  912TIP3    H224228   4.652   0.008   0.624 -0.1288  1.3731  1.9742
  913TIP3   OH224229   2.481   4.701  15.585  0.4624 -0.3415 -0.0441
  913TIP3    H124230   2.520   4.672  15.668 -1.3900 -0.5623  0.7667
  913TIP3    H224231   2.515   4.790  15.573  1.8174 -0.8018  0.2416
  914TIP3   OH224232   6.566   6.216  16.895 -0.0390 -0.6133 -0.1274
  914TIP3    H124233   6.513   6.240  16.971 -2.0281 -0.3387 -1.5647
  914TIP3    H224234   6.597   6.299  16.860 -0.8975 -0.5975 -0.8568
  915TIP3   OH224235   5.925   0.463  14.860 -0.7623  0.6814 -0.4991
  915TIP3    H124236   5.891   0.375  14.845 -1.2446  0.7053  0.3762
  915TIP3    H224237   5.981   0.481  14.784 -1.9906  0.2779 -1.5277
  916TIP3   OH224238   4.620   1.940   6.093 -0.3224  0.3262 -0.6714
  916TIP3    H124239   4.576   2.023   6.107 -1.7830 -0.1647 -2.1159
  916TIP3    H224240   4.677   1.929   6.169 -4.2633 -0.0288  2.3966
  917TIP3   OH224241   3.265   4.067  15.829  0.3504 -0.0704 -0.2507
  917TIP3    H124242   3.236   4.007  15.761  1.4604 -0.8022 -0.0851
  917TIP3    H224243   3.188   4.120  15.848 -0.7146 -1.6276 -0.1831
  918TIP3   OH224244   3.537   6.720   0.289 -0.2422 -0.1735 -0.9723
  918TIP3    H124245   3.583   6.762   0.217  1.4204 -0.2610  0.0122
  918TIP3    H224246   3.451   6.763   0.291  0.4995  1.3726 -1.5983
  919TIP3   OH224247   2.490   1.789  16.137  0.4654  0.3982  0.2477
  919TIP3    H124248   2.395   1.804  16.138  0.5197  1.0817 -1.8119
  919TIP3    H224249   2.504   1.723  16.205 -1.4568  0.4441  0.7431
  920TIP3   OH224250   1.334   2.472   4.734  0.5766 -0.1264 -0.1436
  920TIP3    H124251   1.358   2.541   4.673 -1.0451  2.3733  1.9842
  920TIP3    H224252   1.258   2.430   4.693 -0.1249  1.1260 -0.1445
  921TIP3   OH224253   4.418   0.338  15.122  0.2837 -0.1698  0.0780
  921TIP3    H124254   4.407   0.363  15.213  0.0686 -1.2847  0.3668
  921TIP3    H224255   4.452   0.417  15.079  3.2069 -0.5043  1.6890
  922TIP3   OH224256   4.037   0.840   1.763  0.1865 -0.2171 -0.3189
  922TIP3    H124257   4.116   0.894   1.759  0.4286 -0.2751  2.9107
  922TIP3    H224258   3.974   0.885   1.707  0.9943  2.3897  0.8324
  923TIP3   OH224259   5.629   4.012   0.044 -0.2819  0.1130 -0.1315
  923TIP3    H124260   5.685   3.997  -0.032 -0.3645 -1.0459  0.0313
  923TIP3    H224261   5.555   3.952   0.033  0.7861 -1.6731  1.9431
  924TIP3   OH224262   1.834   3.737  11.369 -0.0018 -0.2944 -0.5127
  924TIP3    H124263   1.760   3.681  11.344 -0.2938 -0.1970  0.1384
  924TIP3    H224264   1.805   3.782  11.448  0.9195 -0.5828 -0.0042
  925TIP3   OH224265   3.007   2.269  16.677 -0.3590  0.1900 -0.3269
  925TIP3    H124266   2.963   2.188  16.702  0.5013 -0.3850 -0.6583
  925TIP3    H224267   3.097   2.243  16.659 -0.0650  1.2271 -0.4021
  926TIP3   OH224268   1.672   6.327  13.725  0.2878 -0.0252 -0.1603
  926TIP3    H124269   1.737   6.394  13.703 -1.2857  0.9650 -1.9592
  926TIP3    H224270   1.623   6.314  13.644 -0.7747 -1.8744  0.7452
  927TIP3   OH224271   3.322   6.254   3.499  0.1213  0.1694 -0.0005
  927TIP3    H124272   3.384   6.236   3.428  2.4190 -1.5204  2.3572
  927TIP3    H224273   3.251   6.191   3.485  1.3519 -1.2608  0.1306
  928TIP3   OH224274   4.526   2.692   4.303 -0.7852  0.4670  0.1423
  928TIP3    H124275   4.599   2.684   4.364 -0.1956 -0.6232 -0.6759
  928TIP3    H224276   4.538   2.777   4.261 -0.1115  0.3928  0.1832
  929TIP3   OH224277   3.377   0.691  13.591  0.3691  0.2785 -0.4593
  929TIP3    H124278   3.312   0.634  13.549  0.0622 -0.7153  1.3375
  929TIP3    H224279   3.376   0.665  13.683 -0.3132  3.6962  0.5522
  930TIP3   OH224280   6.223   3.626  12.313  0.0551 -0.6747  1.0753
  930TIP3    H124281   6.307   3.627  12.267 -0.4192 -0.4846  0.1964
  930TIP3    H224282   6.158   3.608  12.245 -0.7175  0.1472  1.5718
  931TIP3   OH224283   5.077   4.775   0.542 -0.2630  0.0740 -0.5894
  931TIP3    H124284   5.165   4.791   0.575 -0.0218 -1.6385 -0.3544
  931TIP3    H224285   5.075   4.681   0.523 -1.3976  0.4470 -2.4911
  932TIP3   OH224286   3.643   1.564  14.794  0.5434 -0.3694  0.2940
  932TIP3    H124287   3.667   1.603  14.878  1.8283 -1.5040  0.4775
  932TIP3    H224288   3.721   1.515  14.767  0.6808  1.2061 -2.3021
  933TIP3   OH224289   6.249   4.997  13.716 -0.7722 -0.2813 -0.1274
  933TIP3    H124290   6.156   4.999  13.737 -0.4763  0.7187  1.1225
  933TIP3    H224291   6.280   4.915  13.755 -1.4077 -1.3530 -1.8232
  934TIP3   OH224292   6.602   0.727  11.616 -0.0069 -0.3282  0.2122
  934TIP3    H124293   6.560   0.734  11.531  0.0210 -3.3075 -0.1265
  934TIP3    H224294   6.664   0.655  11.606  0.9258  0.1387  2.3642
  935TIP3   OH224295   4.602   6.311  13.003  0.3452  0.5435 -0.4189
  935TIP3    H124296   4.517   6.271  13.021 -0.2729  0.7853 -2.6150
  935TIP3    H224297   4.636   6.337  13.089 -1.0861 -0.9770  0.6260
  936TIP3   OH224298   0.774   2.864  12.423 -0.2719 -0.2721 -0.5942
  936TIP3    H124299   0.722   2.895  12.349 -1.0354 -0.1722 -0.0186
  936TIP3    H224300   0.835   2.801  12.384 -1.2144 -0.8335 -1.1743
  937TIP3   OH224301   3.985   1.004  10.949 -0.3310  0.7035  0.2521
  937TIP3    H124302   4.022   0.924  10.911 -2.1728 -1.0424  2.0311
  937TIP3    H224303   4.021   1.075  10.895  1.2942 -1.3085 -1.3935
  938TIP3   OH224304   3.527   1.644   0.448  0.7750 -0.0402  0.1754
  938TIP3    H124305   3.588   1.713   0.476  0.7284 -0.9062  2.5439
  938TIP3    H224306   3.483   1.680   0.371  1.7737  2.0029  0.5286
  939TIP3   OH224307   1.784   1.228   5.476  0.4572 -0.1333  0.3137
  939TIP3    H124308   1.770   1.290   5.405  0.6188  1.0999  1.3296
  939TIP3    H224309   1.775   1.142   5.436  0.3917  0.5514 -1.1511
  940TIP3   OH224310   5.605   5.943   5.919 -0.1134  0.3914 -0.8898
  940TIP3    H124311   5.619   5.912   6.009  1.3084 -1.6379 -1.7773
  940TIP3    H224312   5.536   6.009   5.927 -0.9659 -0.7268  1.5004
  941TIP3   OH224313   5.066   6.598   5.555 -0.2973 -0.0444 -0.3218
  941TIP3    H124314   5.022   6.668   5.604  1.9937  0.5033  1.0636
  941TIP3    H224315   5.157   6.628   5.548  0.2131 -1.8394 -1.7400
  942TIP3   OH224316   1.611   3.638   2.796  0.2381  0.4997  0.4347
  942TIP3    H124317   1.518   3.646   2.816  0.1517 -0.2611  0.3616
  942TIP3    H224318   1.614   3.595   2.710  0.6599  0.1073  0.6408
  943TIP3   OH224319   0.536   0.206   3.632  0.1046  0.8952 -0.1428
  943TIP3    H124320   0.488   0.263   3.571  0.0353  0.7659 -0.2090
  943TIP3    H224321   0.575   0.266   3.696 -0.3423  0.9777  0.0484
  944TIP3   OH224322   4.484   1.559   1.006  0.2351  0.0733 -0.2610
  944TIP3    H124323   4.396   1.594   1.024  0.6547  1.4600 -0.7992
  944TIP3    H224324   4.499   1.494   1.074 -0.5879  0.9405  0.7571
  945TIP3   OH224325   1.853   2.021  13.224 -0.6028 -0.2640 -0.0284
  945TIP3    H124326   1.791   2.008  13.295 -1.2596  0.6965 -0.4136
  945TIP3    H224327   1.886   1.933  13.204  1.5542 -0.2721  3.2046
  946TIP3   OH224328   1.362   4.373  15.876  0.0415  0.4163 -0.2718
  946TIP3    H124329   1.330   4.320  15.803 -1.0949 -1.2779  1.4243
  946TIP3    H224330   1.433   4.322  15.915  0.8889  1.4775 -0.3914
  947TIP3   OH224331   0.615   6.703   2.758 -0.1337 -0.1064  0.4982
  947TIP3    H124332   0.535   6.681   2.709 -0.3572 -0.9046  1.2135
  947TIP3    H224333   0.667   6.622   2.755  1.0309  0.6745 -0.6994
  948TIP3   OH224334   5.392   4.403  16.562 -0.8318  0.5721  0.4286
  948TIP3    H124335   5.450   4.415  16.638 -2.1447 -1.2169  1.7550
  948TIP3    H224336   5.442   4.350  16.501  0.2087  1.9606  0.0378
  949TIP3   OH224337   4.264   2.643   4.946 -0.0280  0.1038  0.7687
  949TIP3    H124338   4.304   2.557   4.959  0.0252 -0.2440 -1.4523
  949TIP3    H224339   4.197   2.649   5.014  0.4072 -1.4109  1.3554
  950TIP3   OH224340   5.065   2.809   5.370 -0.3881  0.5109 -0.1033
  950TIP3    H124341   5.121   2.735   5.350 -1.1012  0.6109 -2.6628
  950TIP3    H224342   5.069   2.864   5.292 -1.1969  2.3267  1.0921
  951TIP3   OH224343   0.278   6.438  12.859 -0.2904  0.1940 -0.1833
  951TIP3    H124344   0.296   6.360  12.807 -2.8905  0.5878 -1.7151
  951TIP3    H224345   0.343   6.502  12.828  0.1469 -0.5159 -0.7695
  952TIP3   OH224346   6.010   6.401  12.414  0.0106 -0.1957  0.2876
  952TIP3    H124347   6.009   6.477  12.356 -0.4926 -1.4834 -1.4136
  952TIP3    H224348   5.950   6.338  12.373  1.4796 -2.0615  0.9181
  953TIP3   OH224349   5.752   0.963   0.654 -0.2352  0.2347  0.0614
  953TIP3    H124350   5.818   0.923   0.598  0.1621  0.2991  0.4770
  953TIP3    H224351   5.800   0.988   0.734 -1.3219 -2.3688  1.5878
  954TIP3   OH224352   2.948   6.403   5.933  0.0773  0.0742 -0.5106
  954TIP3    H124353   2.936   6.447   5.849  0.3941 -0.4356 -0.8272
  954TIP3    H224354   3.006   6.462   5.982  1.4562 -0.5495 -1.3741
  955TIP3   OH224355   6.352   1.896   5.844 -0.2811 -0.6616  0.2741
  955TIP3    H124356   6.406   1.920   5.920  0.1644 -0.7487 -0.0133
  955TIP3    H224357   6.296   1.972   5.829  0.9982  0.1357 -0.5262
  956TIP3   OH224358   4.703   1.170  13.967  0.1555 -0.2059 -0.0748
  956TIP3    H124359   4.752   1.250  13.985 -0.8702  0.1826  1.0068
  956TIP3    H224360   4.705   1.121  14.049 -3.0610  0.7823  0.6415
  957TIP3   OH224361   6.185   5.115  11.679  0.2778  0.4082 -0.3770
  957TIP3    H124362   6.173   5.192  11.623  1.3440  0.9805  0.1615
  957TIP3    H224363   6.231   5.149  11.756 -1.1499 -0.3593  0.8492
  958TIP3   OH224364   3.091   6.099   3.457 -0.2350  0.0305 -0.1636
  958TIP3    H124365   3.001   6.120   3.481 -0.3002  0.8472 -1.0521
  958TIP3    H224366   3.135   6.082   3.540 -0.8584  1.0601  0.3914
  959TIP3   OH224367   0.436   0.373   3.402  0.1217 -0.0497  0.1978
  959TIP3    H124368   0.480   0.314   3.341  0.3975 -0.2077  0.5461
  959TIP3    H224369   0.465   0.460   3.377  0.1897 -0.1097  0.0688
  960TIP3   OH224370   4.457   1.241  11.382 -1.1394  0.1061 -0.1126
  960TIP3    H124371   4.548   1.226  11.407 -0.4916  0.6134 -2.0963
  960TIP3    H224372   4.408   1.229  11.463  0.5389 -1.5243  0.6989
  961TIP3   OH224373   6.020   3.919   1.841 -0.4113 -0.9005 -0.2368
  961TIP3    H124374   6.029   3.833   1.882 -1.3447 -0.9540 -0.1336
  961TIP3    H224375   5.936   3.915   1.795 -0.2586 -0.1896 -0.5861
  962TIP3   OH224376   0.037   6.173   0.889 -0.3896  0.1232  0.3627
  962TIP3    H124377   0.037   6.106   0.958 -0.4989 -0.8811 -0.6013
  962TIP3    H224378   0.042   6.256   0.937 -0.3163 -0.5626  1.5771
  963TIP3   OH224379   3.623   0.752  13.140  0.1080  0.2608  0.7298
  963TIP3    H124380   3.603   0.740  13.233  0.0987  1.1442  0.8458
  963TIP3    H224381   3.538   0.752  13.097 -0.0342  1.9604  0.9771
  964TIP3   OH224382   1.814   1.680  13.501 -0.2237  0.0240 -0.0672
  964TIP3    H124383   1.725   1.715  13.511  0.3374  1.4659  0.0061
  964TIP3    H224384   1.851   1.684  13.589 -0.4697 -1.6946  0.1362
  965TIP3   OH224385   3.371   1.051  13.561  0.9110 -0.0405 -0.0007
  965TIP3    H124386   3.405   1.139  13.577  1.2636 -0.5458  2.1890
  965TIP3    H224387   3.288   1.049  13.610 -0.1418 -0.2588 -1.7389
  966TIP3   OH224388   0.203   3.395   3.110 -0.1520  0.0945 -0.5957
  966TIP3    H124389   0.270   3.339   3.149 -0.0437  0.6517  0.0317
  966TIP3    H224390   0.156   3.432   3.185 -1.1391 -0.2611 -1.0328
  967TIP3   OH224391   5.802   5.851  10.994 -0.2494  0.1760  0.5385
  967TIP3    H124392   5.886   5.893  10.975  0.4179 -1.2406  0.2566
  967TIP3    H224393   5.819   5.794  11.069 -0.4379 -1.5637 -0.6807
  968TIP3   OH224394   1.018   3.696  17.093  0.5230  0.3977 -0.2953
  968TIP3    H124395   1.010   3.706  17.188 -1.0083 -0.2867 -0.3355
  968TIP3    H224396   0.944   3.745  17.057  0.4312 -0.3046 -1.0809
  969TIP3   OH224397   0.075   3.571  15.302  0.1630  0.6442  0.4900
  969TIP3    H124398   0.004   3.518  15.337  0.3409 -0.0312 -0.1669
  969TIP3    H224399   0.154   3.531  15.336  0.4598 -1.3002 -2.3324
  970TIP3   OH224400   1.985   6.152  14.114  0.4813 -0.0799  0.7010
  970TIP3    H124401   1.925   6.218  14.148  0.6162  0.1004  0.5858
  970TIP3    H224402   1.969   6.150  14.019  2.2628  1.5911  0.3379
  971TIP3   OH224403   4.299   2.591  16.702  0.7373 -0.0809 -0.4474
  971TIP3    H124404   4.393   2.601  16.716  0.5812 -1.6798  2.0486
  971TIP3    H224405   4.260   2.667  16.744  0.8655  0.4306 -1.2293
  972TIP3   OH224406   3.862   4.889  17.256 -0.2192  0.1265  0.7182
  972TIP3    H124407   3.934   4.887  17.319 -0.7957  0.8228  1.3979
  972TIP3    H224408   3.798   4.949  17.294 -0.1235  1.3584 -1.0245
  973TIP3   OH224409   2.234   1.719  13.021  0.3454 -0.5187 -0.2847
  973TIP3    H124410   2.221   1.628  13.051  1.7113  0.4454  3.6137
  973TIP3    H224411   2.150   1.761  13.039  1.0603 -0.0224  2.0962
  974TIP3   OH224412   6.409   0.627   5.287  0.5584 -0.2119 -0.3668
  974TIP3    H124413   6.315   0.641   5.284  0.0909 -2.8115  0.9538
  974TIP3    H224414   6.436   0.623   5.195 -0.3132  2.3140 -0.7455
  975TIP3   OH224415   4.301   5.817  12.866 -0.3473  0.8328  0.1164
  975TIP3    H124416   4.300   5.847  12.957 -0.9700  1.5024 -0.1073
  975TIP3    H224417   4.221   5.765  12.857  1.4647 -2.1930  0.9123
  976TIP3   OH224418   2.406   1.355   1.049 -0.4783 -0.5540 -0.5314
  976TIP3    H124419   2.500   1.336   1.039 -0.7967 -2.0232 -0.7613
  976TIP3    H224420   2.364   1.270   1.047 -1.8055  0.0849 -0.0989
  977TIP3   OH224421   4.120   0.957   4.920  0.0241 -0.2383  0.1730
  977TIP3    H124422   4.145   1.012   4.846  1.0779 -0.0579  0.6506
  977TIP3    H224423   4.083   1.018   4.984 -1.0860 -0.4243 -0.2970
  978TIP3   OH224424   0.810   0.001   0.209  0.1775 -0.4630  0.1651
  978TIP3    H124425   0.888  -0.046   0.182 -0.0409 -1.3109  0.9833
  978TIP3    H224426   0.820   0.012   0.304  0.9464  2.4587 -0.2143
  979TIP3   OH224427   5.827   6.751  14.657  0.2635 -0.2392 -0.0858
  979TIP3    H124428   5.799   6.842  14.651  0.5293  0.0314  2.4609
  979TIP3    H224429   5.771   6.705  14.594 -1.0714  1.3969 -0.1376
  980TIP3   OH224430   3.340   2.636  16.487  0.4251  0.2446 -0.0270
  980TIP3    H124431   3.250   2.602  16.484  0.5031  0.0835 -0.4937
  980TIP3    H224432   3.356   2.652  16.580  0.6331 -1.6807  0.2957
  981TIP3   OH224433   0.494   3.631  14.860  0.6108  0.7728  0.0455
  981TIP3    H124434   0.451   3.710  14.893  0.2221  0.4633  0.2771
  981TIP3    H224435   0.505   3.647  14.766 -2.0790 -0.0935 -0.4651
  982TIP3   OH224436   5.762   3.815   4.146  0.3464  0.0730 -0.0323
  982TIP3    H124437   5.777   3.892   4.200 -2.4387  0.4205  0.3107
  982TIP3    H224438   5.760   3.742   4.207 -2.0843  0.3786  0.2893
  983TIP3   OH224439   1.101   0.858   3.854 -0.3286 -0.4320  0.0758
  983TIP3    H124440   1.104   0.902   3.938 -0.8845  1.0434 -0.6692
  983TIP3    H224441   1.017   0.811   3.854 -0.0234 -0.9750  0.6123
  984TIP3   OH224442   5.122   1.260  11.434 -0.2284  0.0141  0.3844
  984TIP3    H124443   5.058   1.237  11.503 -0.8379  2.7239  0.7567
  984TIP3    H224444   5.068   1.293  11.362  0.6621  0.6073 -0.0048
  985TIP3   OH224445   2.819   5.430  15.777 -0.0529  0.0597  0.0319
  985TIP3    H124446   2.898   5.389  15.812  0.1340 -0.8517 -1.4378
  985TIP3    H224447   2.845   5.520  15.758  1.0483 -0.6036 -1.7371
  986TIP3   OH224448   1.097   0.954   4.088 -0.1083  0.5137  0.6254
  986TIP3    H124449   1.151   1.002   4.151 -0.0842  0.2606  0.7964
  986TIP3    H224450   1.073   0.873   4.134 -0.9881  0.8183  0.7124
  987TIP3   OH224451   1.507   1.999  10.897 -0.4990 -0.3839 -0.7736
  987TIP3    H124452   1.504   2.095  10.890 -0.0946 -0.3270 -0.2535
  987TIP3    H224453   1.502   1.968  10.807 -0.1235  0.1475 -0.9797
  988TIP3   OH224454   2.027   5.263  16.413 -0.1067 -0.1157 -0.7648
  988TIP3    H124455   2.118   5.234  16.412 -0.0128  0.2294 -2.3806
  988TIP3    H224456   1.997   5.252  16.323 -1.4511  0.4551 -0.3978
  989TIP3   OH224457   3.929   3.340  15.045 -0.1955 -0.4593 -0.0015
  989TIP3    H124458   3.968   3.400  14.983 -1.7664  1.7918  1.1403
  989TIP3    H224459   4.000   3.279  15.067  2.0020  2.0814  0.2205
  990TIP3   OH224460   0.858   0.081  16.544  0.1912 -0.4305 -0.3749
  990TIP3    H124461   0.876   0.060  16.636 -0.8461  1.4567  0.2885
  990TIP3    H224462   0.809   0.005  16.511 -1.5526 -0.0806  1.3176
  991TIP3   OH224463   6.562   2.830   1.708  0.0889 -0.1419  0.0063
  991TIP3    H124464   6.628   2.821   1.777 -0.2287  0.0490  0.3376
  991TIP3    H224465   6.560   2.924   1.690 -0.0151 -0.1623 -0.0799
  992TIP3   OH224466   2.232   3.506  10.753  0.2994 -0.4579  0.7789
  992TIP3    H124467   2.168   3.478  10.688  0.1206 -1.1992  1.2819
  992TIP3    H224468   2.227   3.602  10.751  1.4476 -0.3920 -1.4669
  993TIP3   OH224469   0.567   4.196  16.099 -0.4959 -0.5347 -0.2005
  993TIP3    H124470   0.622   4.127  16.139  1.2110  0.3352 -1.0123
  993TIP3    H224471   0.590   4.275  16.148 -1.8397 -0.3651  0.1639
  994TIP3   OH224472   2.755   4.865   5.146  0.1605  0.1568 -0.2192
  994TIP3    H124473   2.805   4.791   5.181 -0.5007 -0.3148 -0.2669
  994TIP3    H224474   2.747   4.847   5.053  0.7400  0.7267 -0.3839
  995TIP3   OH224475   2.766   6.296   5.636 -0.0816 -0.1756  0.2556
  995TIP3    H124476   2.730   6.319   5.721  0.5418 -1.1168  0.7770
  995TIP3    H224477   2.730   6.210   5.616  1.0514 -0.6651  0.3080
  996TIP3   OH224478   2.615   1.745  13.782 -0.4910  0.1760  0.2971
  996TIP3    H124479   2.583   1.738  13.872  0.9614 -0.8458  0.7492
  996TIP3    H224480   2.601   1.836  13.758  0.2588  0.7591  2.0009
  997TIP3   OH224481   0.003   5.648   0.166  0.5411 -0.1713  0.3917
  997TIP3    H124482  -0.081   5.680   0.133 -0.0146 -0.5200  1.4260
  997TIP3    H224483   0.039   5.722   0.216  0.2951 -0.4076  0.9256
  998TIP3   OH224484   2.633   0.530  12.694  0.1027  0.4149 -0.3458
  998TIP3    H124485   2.697   0.599  12.675 -0.4728  1.0541  0.0006
  998TIP3    H224486   2.638   0.471  12.619  1.3141  0.2899 -0.1730
  999TIP3   OH224487   0.155   3.681  13.833  0.0507  0.2411  0.3148
  999TIP3    H124488   0.193   3.744  13.894  1.8411  0.4859 -1.0285
  999TIP3    H224489   0.199   3.599  13.852  0.4934  0.2802 -0.5383
 1000TIP3   OH224490   4.094   4.159   5.447 -0.0847 -0.3042 -0.4711
 1000TIP3    H124491   4.171   4.156   5.503  0.3585 -1.9777 -1.1378
 1000TIP3    H224492   4.030   4.102   5.489 -1.2708  1.6154  0.4529
 1001TIP3   OH224493   1.235   0.654  12.137 -0.9994 -1.0414 -0.2108
 1001TIP3    H124494   1.314   0.693  12.101 -1.9275  0.2998 -0.8175
 1001TIP3    H224495   1.208   0.590  12.072 -1.5935  0.0049 -0.9953
 1002TIP3   OH224496   5.130   5.664   2.822 -0.2826 -0.0031 -0.4721
 1002TIP3    H124497   5.106   5.672   2.730 -0.7319  0.9908 -0.2858
 1002TIP3    H224498   5.058   5.615   2.861 -1.4118  1.8329 -0.1697
 1003TIP3   OH224499   6.330   5.910   6.454 -0.2228 -0.1233  0.4203
 1003TIP3    H124500   6.296   5.823   6.430  0.7324 -0.3538 -0.1330
 1003TIP3    H224501   6.252   5.965   6.461 -0.7486 -0.7464 -0.3857
 1004TIP3   OH224502   6.278   6.194  14.946  0.4175  0.1353 -1.0812
 1004TIP3    H124503   6.305   6.286  14.951 -0.2944  0.3643 -1.3635
 1004TIP3    H224504   6.194   6.196  14.900  0.4798 -0.6767 -1.2426
 1005TIP3   OH224505   0.860   5.572  17.073  0.0407 -0.1792 -0.2357
 1005TIP3    H124506   0.779   5.562  17.023  1.8365 -1.7085 -2.9941
 1005TIP3    H224507   0.848   5.517  17.150 -1.7726  0.1161 -0.2777
 1006TIP3   OH224508   4.835   5.086   4.400  0.7311  0.5323  0.1532
 1006TIP3    H124509   4.775   5.131   4.458  0.8884  0.8649  0.0619
 1006TIP3    H224510   4.793   5.003   4.381  1.6188 -0.4686  2.3841
 1007TIP3   OH224511   4.370   5.098  16.484 -0.1640 -0.2741 -0.7986
 1007TIP3    H124512   4.361   5.183  16.441 -0.7221  0.0117 -0.1355
 1007TIP3    H224513   4.393   5.120  16.575 -1.1174 -0.8026 -0.4212
 1008TIP3   OH224514   0.995   0.771   3.537  0.4297 -0.1283 -0.2279
 1008TIP3    H124515   0.946   0.723   3.470 -1.3130  0.7566  0.3743
 1008TIP3    H224516   0.944   0.851   3.551  1.1171  0.0058  1.6705
 1009TIP3   OH224517   2.482   0.537  12.919  0.7613  0.1109 -0.8535
 1009TIP3    H124518   2.444   0.454  12.948  0.6364  0.1227 -0.9782
 1009TIP3    H224519   2.540   0.512  12.847 -1.8424  0.4662 -3.1672
 1010TIP3   OH224520   5.994   5.283  12.715 -0.6609  0.4120 -0.3478
 1010TIP3    H124521   6.066   5.256  12.657 -2.0225  1.6389 -2.6797
 1010TIP3    H224522   5.947   5.350  12.666 -2.1158  1.2114  2.0486
 1011TIP3   OH224523   5.351   3.996  12.658  0.7659  0.4241 -0.1885
 1011TIP3    H124524   5.429   3.987  12.603  0.7776  1.1339 -0.2863
 1011TIP3    H224525   5.298   4.063  12.615 -0.1406 -0.4092 -0.4010
 1012TIP3   OH224526   5.959   3.067   5.657  0.2147 -0.0771  0.0059
 1012TIP3    H124527   5.881   3.045   5.707  0.6221  1.3615  1.3166
 1012TIP3    H224528   6.008   3.127   5.714  2.8790 -1.8955 -0.2740
 1013TIP3   OH224529   2.687   2.637   1.461  0.0945  0.0405  0.1280
 1013TIP3    H124530   2.716   2.558   1.505 -0.1923  0.9601  2.0136
 1013TIP3    H224531   2.592   2.630   1.458  0.0681  0.3327  0.3140
 1014TIP3   OH224532   2.776   5.101  15.584  0.1851 -0.0224 -0.1711
 1014TIP3    H124533   2.759   5.185  15.541 -2.6888 -0.1035  0.6926
 1014TIP3    H224534   2.809   5.124  15.671  0.4555  0.1825 -0.3272
 1015TIP3   OH224535   1.700   2.784  13.800  0.1213  0.2559  0.3366
 1015TIP3    H124536   1.637   2.814  13.866  0.6060  0.2378  0.8084
 1015TIP3    H224537   1.658   2.708  13.760 -0.3695  0.5357  0.3105
 1016TIP3   OH224538   3.549   3.213   2.259  0.5652  0.1180  0.0417
 1016TIP3    H124539   3.563   3.274   2.187  1.1891 -0.9597 -0.7485
 1016TIP3    H224540   3.466   3.241   2.298  0.6990  1.2826 -0.5031
 1017TIP3   OH224541   1.666   2.690   3.738 -0.6897 -0.2204  0.4070
 1017TIP3    H124542   1.690   2.597   3.741 -0.9273 -0.4552 -3.1479
 1017TIP3    H224543   1.746   2.735   3.711 -0.7680  0.5567  1.4223
 1018TIP3   OH224544   1.528   0.984  14.477 -0.3566 -0.1275 -0.7930
 1018TIP3    H124545   1.521   0.956  14.568  0.0292  0.5512 -0.5467
 1018TIP3    H224546   1.487   1.071  14.475 -1.3825 -0.6153 -1.5049
 1019TIP3   OH224547   4.329   6.272  13.872  0.2073  0.1752  0.3065
 1019TIP3    H124548   4.291   6.334  13.809 -0.2096  0.7518  1.1073
 1019TIP3    H224549   4.259   6.209  13.890 -0.4047  1.2104  1.7457
 1020TIP3   OH224550   5.790   3.688  13.900 -0.1504  0.0767 -0.2592
 1020TIP3    H124551   5.842   3.650  13.829 -0.0673 -1.8445  0.7928
 1020TIP3    H224552   5.816   3.639  13.977  0.2258  2.5758  1.2402
 1021TIP3   OH224553   0.468   0.946  16.968  0.2056  0.0716  0.1558
 1021TIP3    H124554   0.409   1.010  16.929  1.1421  0.1105 -1.2077
 1021TIP3    H224555   0.527   0.920  16.898  0.2413 -1.8383  0.8398
 1022TIP3   OH224556   6.349   6.679   1.436  0.0454 -0.1871  0.0433
 1022TIP3    H124557   6.423   6.703   1.492 -1.3808 -0.7651  2.2219
 1022TIP3    H224558   6.274   6.726   1.473 -1.2583 -1.9741 -0.2519
 1023TIP3   OH224559   1.975   4.294   3.494 -0.7147 -0.0194 -0.0609
 1023TIP3    H124560   1.895   4.298   3.443 -0.7326 -1.7533 -0.1992
 1023TIP3    H224561   1.995   4.200   3.500  0.5975  0.3155  1.0486
 1024TIP3   OH224562   2.295   6.541   4.956 -0.2421 -0.0443 -0.3184
 1024TIP3    H124563   2.237   6.616   4.969  0.0846 -0.0136  1.0274
 1024TIP3    H224564   2.250   6.487   4.890 -0.9994  0.7893 -0.4910
 1025TIP3   OH224565   2.776   1.571   5.536 -0.3253 -0.6640  0.4361
 1025TIP3    H124566   2.738   1.593   5.451 -0.8774  0.6525  1.0147
 1025TIP3    H224567   2.758   1.647   5.591 -0.6073 -1.8012  1.9496
 1026TIP3   OH224568   6.712   1.639  13.135 -0.1044 -0.6816  0.4361
 1026TIP3    H124569   6.749   1.722  13.164  0.3267 -0.2735 -1.2206
 1026TIP3    H224570   6.617   1.649  13.146 -0.1906  0.6774 -1.3382
 1027TIP3   OH224571   3.680   2.593  12.200  0.3247 -0.0603 -0.0437
 1027TIP3    H124572   3.721   2.675  12.225  1.4577 -0.0403 -1.8294
 1027TIP3    H224573   3.587   2.613  12.195  0.2650  0.3437  2.3655
 1028TIP3   OH224574   2.391   6.718   1.480 -0.6941  0.2751  0.3101
 1028TIP3    H124575   2.383   6.656   1.552 -2.2152  0.5723  0.3988
 1028TIP3    H224576   2.428   6.796   1.520 -1.1737  0.3047  0.6995
 1029TIP3   OH224577   5.315   4.211  11.883  0.2999  0.2817 -0.0896
 1029TIP3    H124578   5.344   4.201  11.792 -1.4704  1.4975 -0.8135
 1029TIP3    H224579   5.222   4.232  11.877 -0.4827 -2.2134  2.1259
 1030TIP3   OH224580   5.280   1.067   2.927 -0.5704 -0.5837 -0.5422
 1030TIP3    H124581   5.249   0.978   2.941  0.6914 -1.0212 -0.4138
 1030TIP3    H224582   5.371   1.056   2.897 -0.0550  0.6885  0.4948
 1031TIP3   OH224583   3.988   1.449   1.283 -0.2592  0.4763  0.1291
 1031TIP3    H124584   3.928   1.493   1.344 -2.1906 -1.9757  0.0678
 1031TIP3    H224585   4.062   1.424   1.338  0.9370  3.7599  0.1524
 1032TIP3   OH224586   5.722   0.799   4.299 -0.0352  0.3677 -0.0021
 1032TIP3    H124587   5.746   0.750   4.220  1.3218 -0.3078  0.8175
 1032TIP3    H224588   5.637   0.764   4.324 -0.6025  0.7605 -1.2985
 1033TIP3   OH224589   0.456   1.142   1.649  0.1352  0.2772  0.1695
 1033TIP3    H124590   0.383   1.192   1.613 -0.0809  0.1397  0.4167
 1033TIP3    H224591   0.534   1.184   1.613 -0.1102 -0.4919 -1.2785
 1034TIP3   OH224592   0.899   3.347   0.017 -0.0228  0.0712 -0.1843
 1034TIP3    H124593   0.854   3.431   0.006 -0.7766 -0.2804  0.2299
 1034TIP3    H224594   0.917   3.317  -0.072 -0.4880  0.2729 -0.3466
 1035TIP3   OH224595   3.442   2.283   4.003 -0.0922  0.1497  0.1855
 1035TIP3    H124596   3.438   2.192   4.032 -2.9309  0.6256  1.3985
 1035TIP3    H224597   3.365   2.324   4.042  0.5019  2.7968 -1.3388
 1036TIP3   OH224598   5.618   1.823   2.729  0.7646  0.1547  0.1186
 1036TIP3    H124599   5.703   1.792   2.697  1.2244  1.9360 -0.4741
 1036TIP3    H224600   5.621   1.807   2.823  1.7016  0.0455  0.0837
 1037TIP3   OH224601   3.142   3.554  15.971 -0.0485  0.1521  0.2273
 1037TIP3    H124602   3.156   3.480  15.912  1.2919  1.6482 -1.3917
 1037TIP3    H224603   3.205   3.541  16.041 -1.1598 -1.2622  0.9915
 1038TIP3   OH224604   2.650   4.582  15.107  0.0416 -0.4046  0.3791
 1038TIP3    H124605   2.668   4.626  15.024  0.9729  0.9361  1.2730
 1038TIP3    H224606   2.642   4.489  15.084  0.3772 -0.0481 -1.1957
 1039TIP3   OH224607   1.564   1.295  15.525 -0.2507  0.2972 -0.5150
 1039TIP3    H124608   1.519   1.317  15.444 -1.1454 -0.0783 -0.1286
 1039TIP3    H224609   1.549   1.202  15.537 -1.7109  0.6968  1.0306
 1040TIP3   OH224610   6.193   0.534  13.809 -0.2388  0.0189 -0.5225
 1040TIP3    H124611   6.108   0.491  13.798  0.2730 -0.8867 -1.0137
 1040TIP3    H224612   6.223   0.552  13.720 -0.5214  1.5713 -0.3203
 1041TIP3   OH224613   5.659   2.535  11.289  0.3955 -0.4301 -0.1869
 1041TIP3    H124614   5.624   2.502  11.372 -0.0318 -0.8675 -0.5414
 1041TIP3    H224615   5.748   2.563  11.310  0.3846 -0.8012  0.3590
 1042TIP3   OH224616   2.646   3.023   4.915  0.3280 -0.2199 -0.1333
 1042TIP3    H124617   2.686   3.081   4.981  1.0586 -1.8661  0.8947
 1042TIP3    H224618   2.553   3.044   4.919  0.4797  0.3305  0.8116
 1043TIP3   OH224619   6.654   2.294  10.842  0.0184 -0.2620  0.2049
 1043TIP3    H124620   6.632   2.385  10.822  1.1141 -0.1786 -0.7167
 1043TIP3    H224621   6.666   2.293  10.937  2.0422  1.0464  0.0096
 1044TIP3   OH224622   6.681   1.830   1.256 -0.1923  0.3483  0.2191
 1044TIP3    H124623   6.674   1.911   1.306  3.7575  1.2376 -0.5527
 1044TIP3    H224624   6.718   1.856   1.172  2.3979 -2.3853  0.4064
 1045TIP3   OH224625   2.150   3.156   1.942  0.1156  0.1272  0.5169
 1045TIP3    H124626   2.245   3.161   1.936 -0.0209 -0.5443 -3.1777
 1045TIP3    H224627   2.133   3.070   1.981  1.0064 -0.1888  0.2255
 1046TIP3   OH224628   4.677   5.873   2.035 -1.0283 -0.3146 -0.7806
 1046TIP3    H124629   4.695   5.779   2.033  1.2962  0.1050 -0.8268
 1046TIP3    H224630   4.740   5.908   2.098 -1.8877  1.2264 -0.7464
 1047TIP3   OH224631   5.680   0.451   1.149 -0.1454 -0.2678  0.3548
 1047TIP3    H124632   5.760   0.399   1.155 -0.7177 -1.1088  0.8239
 1047TIP3    H224633   5.655   0.447   1.057  0.1489 -0.2994  0.2748
 1048TIP3   OH224634   0.281   4.838   5.466 -0.5968  0.2495  0.5749
 1048TIP3    H124635   0.317   4.811   5.550 -0.0172  0.4912  0.4068
 1048TIP3    H224636   0.203   4.889   5.488 -0.0827  0.8636  0.9908
 1049TIP3   OH224637   3.767   5.196  15.939  0.2162 -0.2517  0.1321
 1049TIP3    H124638   3.824   5.121  15.960  0.5641 -0.4363 -1.4636
 1049TIP3    H224639   3.823   5.255  15.890 -1.2865 -1.0050 -2.5779
 1050TIP3   OH224640   2.019   4.632  14.024 -0.6616 -0.0745  0.4759
 1050TIP3    H124641   1.941   4.612  14.075 -0.9575 -2.4895 -0.7896
 1050TIP3    H224642   1.988   4.635  13.933  0.5720 -0.3249  0.0294
 1051TIP3   OH224643   5.007   0.034   5.694  0.5407  0.0865  0.7215
 1051TIP3    H124644   4.958   0.061   5.772 -0.0754 -0.6170  0.5817
 1051TIP3    H224645   5.049   0.114   5.663  0.6793  0.4018  1.6963
 1052TIP3   OH224646   4.778   3.325   0.867  0.2244 -0.3659 -0.9808
 1052TIP3    H124647   4.818   3.412   0.869 -1.9481  0.6295  2.4485
 1052TIP3    H224648   4.703   3.334   0.809  2.1156 -1.0042 -3.6225
 1053TIP3   OH224649   1.979   1.059  16.066 -0.2166 -0.6754  0.0142
 1053TIP3    H124650   1.995   1.067  16.160 -1.6204  0.3374  0.1618
 1053TIP3    H224651   2.054   1.104  16.026 -0.8698  1.0301  0.6712
 1054TIP3   OH224652   0.807   5.956  16.540  0.4044 -0.3464 -0.3815
 1054TIP3    H124653   0.816   5.942  16.446 -1.3619  1.0019 -0.7909
 1054TIP3    H224654   0.824   6.049  16.552 -0.1529 -0.3550  0.5230
 1055TIP3   OH224655   5.218   4.515   4.066  0.0101  0.0196 -0.1653
 1055TIP3    H124656   5.122   4.521   4.062 -0.0592 -0.6920  0.3893
 1055TIP3    H224657   5.245   4.591   4.118 -0.2433  0.3298 -0.4916
 1056TIP3   OH224658   6.816   4.601  16.653 -0.2841  0.4540 -0.2067
 1056TIP3    H124659   6.734   4.583  16.607 -0.5434  0.6302  0.1825
 1056TIP3    H224660   6.812   4.694  16.673 -0.5239  0.2227  0.8509
 1057TIP3   OH224661   5.251   4.864   3.416  0.0122 -0.1130  0.0267
 1057TIP3    H124662   5.174   4.838   3.466 -0.3943  0.6114 -0.2201
 1057TIP3    H224663   5.282   4.783   3.377 -2.4415  0.0574 -2.4124
 1058TIP3   OH224664   5.054   4.585  15.965  0.5393 -0.9181 -0.0594
 1058TIP3    H124665   5.134   4.637  15.956  0.7354 -1.0358  0.8578
 1058TIP3    H224666   5.080   4.497  15.937  0.5207 -0.7808 -0.5054
 1059TIP3   OH224667   0.111   2.357  16.424  0.8805 -0.1935  0.2449
 1059TIP3    H124668   0.039   2.408  16.461  0.6391  0.0189 -0.5225
 1059TIP3    H224669   0.078   2.268  16.420 -0.0168  0.2091 -1.8387
 1060TIP3   OH224670   4.574   5.794  11.543 -0.0379  0.0935 -0.0416
 1060TIP3    H124671   4.531   5.836  11.468 -1.3197 -1.5808 -0.2734
 1060TIP3    H224672   4.527   5.827  11.619 -0.6211 -0.3935 -0.1823
 1061TIP3   OH224673   3.408   4.333  15.106  0.4283  0.1798  0.3437
 1061TIP3    H124674   3.399   4.397  15.178 -2.2436 -0.0577  0.2629
 1061TIP3    H224675   3.447   4.256  15.148  0.9767  0.8163  1.0487
 1062TIP3   OH224676   3.532   2.315  16.521  0.7270  0.2023  0.3452
 1062TIP3    H124677   3.525   2.267  16.438  0.8736 -0.7418  0.8731
 1062TIP3    H224678   3.448   2.299  16.565  0.1849  1.6686 -0.1276
 1063TIP3   OH224679   1.730   4.699   4.823 -0.5427 -0.0886  0.7619
 1063TIP3    H124680   1.767   4.786   4.836 -1.0677  0.0045  1.7342
 1063TIP3    H224681   1.671   4.687   4.898 -0.5461 -1.2370  0.5852
 1064TIP3   OH224682   2.433   5.888  16.361  0.0194 -0.2348  0.4967
 1064TIP3    H124683   2.525   5.911  16.377 -0.0166  0.7836 -0.6994
 1064TIP3    H224684   2.432   5.853  16.272 -0.8110  0.1228  0.3585
 1065TIP3   OH224685   3.285   5.963  14.157 -0.1676 -0.6445 -0.7615
 1065TIP3    H124686   3.198   5.950  14.118 -0.4517  0.6766 -0.6050
 1065TIP3    H224687   3.305   6.055  14.139  0.1017 -0.2651  1.4164
 1066TIP3   OH224688   0.205   1.187   4.458  0.3137 -0.2880  0.3865
 1066TIP3    H124689   0.193   1.144   4.543 -0.7796 -0.1664  0.2990
 1066TIP3    H224690   0.278   1.141   4.418 -1.7939 -3.0995 -0.3423
 1067TIP3   OH224691   0.374   3.560   1.595  0.0134 -0.2755 -0.2836
 1067TIP3    H124692   0.285   3.567   1.561  0.7446 -0.7521 -2.3991
 1067TIP3    H224693   0.403   3.650   1.607 -1.3436 -0.1081  2.1562
 1068TIP3   OH224694   2.206   5.105   4.063  0.2492  0.2874 -0.6837
 1068TIP3    H124695   2.131   5.085   4.121  0.3798 -3.0632 -1.5390
 1068TIP3    H224696   2.231   5.194   4.086 -0.7529 -0.3335  3.3099
 1069TIP3   OH224697   4.465   2.732   0.129 -0.1935  0.0272  0.0355
 1069TIP3    H124698   4.518   2.652   0.130  1.4366  1.0670  1.9168
 1069TIP3    H224699   4.478   2.768   0.041  1.4255 -0.2851  0.1229
 1070TIP3   OH224700   3.270   2.502   2.740  0.4240  0.5246 -0.2649
 1070TIP3    H124701   3.359   2.475   2.764  0.9160  1.6144 -0.8252
 1070TIP3    H224702   3.223   2.420   2.725  0.8964 -0.1067  1.5682
 1071TIP3   OH224703   1.191   1.755  16.586 -0.5024  0.0441  0.0453
 1071TIP3    H124704   1.205   1.666  16.616 -0.9756  0.1785  0.6794
 1071TIP3    H224705   1.134   1.794  16.652  1.3991  1.4566  0.9143
 1072TIP3   OH224706   5.691   5.739  17.079  0.3443  0.1954 -0.5904
 1072TIP3    H124707   5.697   5.814  17.140  0.3686 -1.0086  0.9207
 1072TIP3    H224708   5.649   5.775  17.001  0.0425  1.7196  0.2476
 1073TIP3   OH224709   5.471   1.896   5.925  0.1839 -0.3484  0.3191
 1073TIP3    H124710   5.527   1.913   5.850  0.0493  0.6791  0.4462
 1073TIP3    H224711   5.385   1.875   5.887 -0.5142  2.5374  0.2234
 1074TIP3   OH224712   2.385   2.969  15.540 -0.2080  0.0589 -0.4482
 1074TIP3    H124713   2.468   2.988  15.496  0.2781 -2.1647 -0.5672
 1074TIP3    H224714   2.339   2.909  15.481 -1.1255 -0.0963  0.4109
 1075TIP3   OH224715   0.501   1.471  14.472  0.4488  0.0736 -0.3614
 1075TIP3    H124716   0.451   1.488  14.392  0.3787  1.7459  0.0239
 1075TIP3    H224717   0.593   1.471  14.443  0.3507 -0.6662 -0.6725
 1076TIP3   OH224718   4.273   2.854  12.924 -0.9818 -0.0636  0.1854
 1076TIP3    H124719   4.301   2.946  12.923 -0.9046 -0.0915 -0.0541
 1076TIP3    H224720   4.182   2.856  12.897 -0.5962 -0.1978 -1.1406
 1077TIP3   OH224721   4.752   6.707  10.272 -0.4351 -0.3905 -0.0862
 1077TIP3    H124722   4.695   6.778  10.300  0.5032 -0.1551  1.3024
 1077TIP3    H224723   4.769   6.657  10.352 -0.2831 -1.5885 -0.8598
 1078TIP3   OH224724   6.058   1.067  11.363  0.0447  0.6214  0.4973
 1078TIP3    H124725   5.963   1.070  11.377  0.0696  1.3955  0.5171
 1078TIP3    H224726   6.075   0.977  11.335 -0.7873  0.6693 -0.1797
 1079TIP3   OH224727   4.438   1.581  10.858 -0.7008 -0.0019 -0.0226
 1079TIP3    H124728   4.467   1.533  10.781 -1.0079 -1.8826  1.0002
 1079TIP3    H224729   4.343   1.572  10.858 -0.6261 -1.0217  1.1821
 1080TIP3   OH224730   5.608   5.788   3.499 -0.0665 -0.3847  0.5352
 1080TIP3    H124731   5.698   5.755   3.499  0.3284  0.6496 -0.1461
 1080TIP3    H224732   5.590   5.811   3.590  0.9176  0.8604  0.4327
 1081TIP3   OH224733   6.298   0.970  11.873  0.1377  0.1345  0.3560
 1081TIP3    H124734   6.252   0.890  11.900 -0.4273 -0.1057 -1.2596
 1081TIP3    H224735   6.274   0.981  11.781  1.0808  1.5750  0.2740
 1082TIP3   OH224736   2.872   2.902  12.832 -0.5335 -0.2490  0.1729
 1082TIP3    H124737   2.798   2.960  12.811 -1.4562 -1.4220  0.1158
 1082TIP3    H224738   2.942   2.961  12.859 -0.8010  1.0285 -1.7826
 1083TIP3   OH224739   1.305   5.759  14.071 -0.2120  0.1415 -0.0746
 1083TIP3    H124740   1.352   5.751  13.988  0.6629 -1.2980  0.5642
 1083TIP3    H224741   1.372   5.751  14.138 -1.1717 -0.5021  0.8167
 1084TIP3   OH224742   4.301   3.554   2.583 -0.2278  0.3262 -0.5209
 1084TIP3    H124743   4.275   3.475   2.535 -0.2903 -0.6582  1.0802
 1084TIP3    H224744   4.397   3.555   2.578 -0.1934 -0.1992 -0.0202
 1085TIP3   OH224745   3.613   1.287   5.762 -0.3087 -0.6278  0.2859
 1085TIP3    H124746   3.631   1.285   5.669 -0.8823 -1.4034  0.1798
 1085TIP3    H224747   3.590   1.378   5.781 -3.3909 -1.0827 -0.9679
 1086TIP3   OH224748   4.008   2.130   5.471  0.0250  0.1904  0.3226
 1086TIP3    H124749   3.968   2.095   5.391 -0.3393 -0.3516  0.7387
 1086TIP3    H224750   4.013   2.224   5.455  0.7985 -0.0115 -0.7065
 1087TIP3   OH224751   4.485   3.008   6.227  0.1887 -0.3538  0.1517
 1087TIP3    H124752   4.546   2.970   6.163 -0.4974 -0.3476 -0.5024
 1087TIP3    H224753   4.534   3.080   6.267  0.6507 -0.4149 -0.2985
 1088TIP3   OH224754   6.190   3.725  14.363 -0.4253 -0.3058 -0.1434
 1088TIP3    H124755   6.271   3.734  14.313  0.1105 -0.5273  0.6812
 1088TIP3    H224756   6.174   3.630  14.367 -0.4947 -0.2874  0.0570
 1089TIP3   OH224757   1.682   5.973   3.669  0.3925  0.6635 -0.2027
 1089TIP3    H124758   1.734   6.029   3.611 -1.1122  1.0550 -1.2056
 1089TIP3    H224759   1.710   5.884   3.647  1.0332  0.8971 -0.3437
 1090TIP3   OH224760   6.201   4.674   5.052 -0.0511 -0.2597  0.2159
 1090TIP3    H124761   6.109   4.666   5.076  0.2225 -2.4839  0.5762
 1090TIP3    H224762   6.241   4.721   5.125 -0.7205 -0.0784  0.4731
 1091TIP3   OH224763   0.718   5.840   3.465 -0.1183 -0.2928  0.0143
 1091TIP3    H124764   0.737   5.748   3.451  0.3677 -0.3098  0.7242
 1091TIP3    H224765   0.800   5.876   3.502 -0.8140  0.0748  1.2399
 1092TIP3   OH224766   6.259   3.816  12.815  0.5447  0.0567 -0.0672
 1092TIP3    H124767   6.264   3.911  12.820 -1.4496  0.2423 -1.1112
 1092TIP3    H224768   6.272   3.786  12.905 -1.7803  1.4992  0.7997
 1093TIP3   OH224769   6.538   0.759   0.144 -0.5474 -0.3124 -0.2173
 1093TIP3    H124770   6.623   0.767   0.188 -1.2348 -0.2476  1.1188
 1093TIP3    H224771   6.560   0.748   0.052  0.8989  0.4349  0.0172
 1094TIP3   OH224772   2.095   3.632   0.554 -0.3431 -0.2779 -0.1933
 1094TIP3    H124773   2.042   3.709   0.530  1.2137  0.6869 -0.6364
 1094TIP3    H224774   2.162   3.627   0.485 -0.2847 -1.8898 -0.0205
 1095TIP3   OH224775   5.874   3.836   4.696 -0.0172  0.1539 -0.2106
 1095TIP3    H124776   5.964   3.848   4.667  0.2633 -0.4215  0.4152
 1095TIP3    H224777   5.882   3.802   4.785 -0.8361 -0.9386 -0.5396
 1096TIP3   OH224778   2.002   3.974   5.263  0.4300  0.1297  0.2438
 1096TIP3    H124779   1.941   3.932   5.202  1.2008  1.2560 -1.3438
 1096TIP3    H224780   1.957   4.052   5.293 -0.2414 -0.8003  1.7215
 1097TIP3   OH224781   2.679   2.743   5.472 -0.4376  0.4721  0.3042
 1097TIP3    H124782   2.729   2.746   5.554  0.8203  0.4586 -0.4558
 1097TIP3    H224783   2.640   2.830   5.465  2.0318  1.5314 -0.6617
 1098TIP3   OH224784   3.309   5.711   0.911  0.0078  0.6954  0.7962
 1098TIP3    H124785   3.329   5.707   0.817  2.6143 -0.9452  1.3891
 1098TIP3    H224786   3.255   5.633   0.927 -2.8340  2.4452  0.1873
 1099TIP3   OH224787   5.743   5.006   0.131  0.1002 -0.0288 -0.2529
 1099TIP3    H124788   5.660   5.029   0.089  0.7645  0.3266 -1.3872
 1099TIP3    H224789   5.734   4.913   0.151 -1.0925  0.3088  0.8571
 1100TIP3   OH224790   2.503   6.042  14.365 -0.2907  0.0009  0.2410
 1100TIP3    H124791   2.530   5.983  14.295 -0.2168  1.2913 -0.8325
 1100TIP3    H224792   2.566   6.025  14.436  0.3871 -0.4228 -0.4585
 1101TIP3   OH224793   5.766   3.650  16.445 -0.2565  0.2463  0.2468
 1101TIP3    H124794   5.671   3.659  16.455 -0.2435 -0.5800  1.3013
 1101TIP3    H224795   5.791   3.720  16.386 -1.5979  0.1609 -0.4423
 1102TIP3   OH224796   1.060   5.420   4.906  0.1767  0.5584  0.5339
 1102TIP3    H124797   1.108   5.406   4.824  1.5338  0.0089  1.4144
 1102TIP3    H224798   1.027   5.333   4.929  0.1696  0.6323  0.8008
 1103TIP3   OH224799   3.361   2.020   4.052 -0.1086  0.5329 -0.0152
 1103TIP3    H124800   3.440   1.968   4.035 -0.5664 -0.9756  2.3603
 1103TIP3    H224801   3.304   2.002   3.977  0.8789 -0.1543 -0.6130
 1104TIP3   OH224802   4.443   0.384  16.046  0.3701  0.0316 -0.3119
 1104TIP3    H124803   4.404   0.365  16.131  1.9989 -0.3880  0.3660
 1104TIP3    H224804   4.381   0.443  16.003 -0.8830 -0.4631  0.8113
 1105TIP3   OH224805   3.359   4.763  16.156  0.0478  0.4339 -0.7199
 1105TIP3    H124806   3.310   4.842  16.176  0.2874  0.3332  0.2678
 1105TIP3    H224807   3.337   4.701  16.226  0.2483 -0.2037 -1.2109
 1106TIP3   OH224808   4.503   0.312  10.766 -0.1259 -0.8168 -0.0410
 1106TIP3    H124809   4.458   0.234  10.736  2.5263 -2.1553 -0.6410
 1106TIP3    H224810   4.556   0.340  10.692  1.7699 -0.6143  1.3432
 1107TIP3   OH224811   5.491   2.666   1.989 -0.3969 -0.5630  0.3087
 1107TIP3    H124812   5.446   2.587   2.021 -0.2744 -1.3916 -1.5277
 1107TIP3    H224813   5.550   2.690   2.061  1.5973 -3.7499 -0.1693
 1108TIP3   OH224814   6.222   5.356  11.540 -0.1039 -0.3255  0.1309
 1108TIP3    H124815   6.147   5.328  11.486  0.4918 -1.3800 -0.1712
 1108TIP3    H224816   6.239   5.446  11.512  0.1689 -0.8381 -1.4305
 1109TIP3   OH224817   2.835   1.472  12.036 -0.2412  0.4340  0.1478
 1109TIP3    H124818   2.770   1.467  11.966  0.2117 -1.1578 -0.1731
 1109TIP3    H224819   2.874   1.559  12.026 -2.2481  1.3817  0.3019
 1110TIP3   OH224820   0.780   0.923   0.949  0.5568  0.3229  0.0265
 1110TIP3    H124821   0.782   0.993   1.014  0.5765  0.8371 -0.5166
 1110TIP3    H224822   0.721   0.857   0.986 -0.2466  1.0766  0.1004
 1111TIP3   OH224823   5.693   3.053  14.420  0.3143  0.1138  0.2311
 1111TIP3    H124824   5.737   3.000  14.486  2.3621  0.3804 -0.8880
 1111TIP3    H224825   5.615   3.002  14.396  1.1862 -1.4365  0.6288
 1112TIP3   OH224826   6.460   5.647  17.288  0.1805  0.0649 -0.0810
 1112TIP3    H124827   6.439   5.581  17.353 -0.8865  1.3495  0.9165
 1112TIP3    H224828   6.480   5.598  17.209  0.7448 -1.4850  1.0121
 1113TIP3   OH224829   1.934   1.271   4.116  0.0354 -0.1634  0.0280
 1113TIP3    H124830   2.010   1.307   4.071 -1.4156 -1.2337 -3.3903
 1113TIP3    H224831   1.858   1.309   4.071 -1.4993  0.4659  3.0021
 1114TIP3   OH224832   5.713   2.056  15.313  0.3700 -0.4353 -0.1350
 1114TIP3    H124833   5.775   2.036  15.384 -0.5893  1.0319  1.1317
 1114TIP3    H224834   5.651   1.983  15.314  1.0051 -0.9837 -0.2174
 1115TIP3   OH224835   2.971   0.516  10.922 -0.5118  0.6179 -0.2188
 1115TIP3    H124836   3.063   0.523  10.898 -0.3325 -0.1707  0.1989
 1115TIP3    H224837   2.924   0.513  10.839 -0.3145  2.8054 -0.4201
 1116TIP3   OH224838   5.888   6.274   4.837 -0.6396  0.1754 -0.4139
 1116TIP3    H124839   5.966   6.317   4.802 -0.5975 -0.5515 -1.2369
 1116TIP3    H224840   5.877   6.311   4.925  1.7216 -1.0897  0.4607
 1117TIP3   OH224841   1.088   4.737   6.704  0.4219  0.3236 -0.6663
 1117TIP3    H124842   1.057   4.647   6.701 -1.6303  0.9890 -0.2988
 1117TIP3    H224843   1.181   4.730   6.725  0.0723 -1.6585  0.3148
 1118TIP3   OH224844   3.991   4.774   3.541  0.5354 -0.1148 -0.2187
 1118TIP3    H124845   3.991   4.754   3.635  0.0491  0.9534  0.0081
 1118TIP3    H224846   3.943   4.701   3.502  0.8904 -0.6593  0.3375
 1119TIP3   OH224847   2.863   2.276   1.129  0.0746  0.1181 -0.0680
 1119TIP3    H124848   2.911   2.208   1.176  0.2226 -0.5769 -1.2132
 1119TIP3    H224849   2.772   2.246   1.129 -0.0549  0.5039  0.4533
 1120TIP3   OH224850   3.904   3.622   2.407 -0.3106  0.2806  0.2189
 1120TIP3    H124851   3.834   3.625   2.472  1.0952  0.0216  1.7699
 1120TIP3    H224852   3.948   3.707   2.414 -0.0206  0.1697 -0.2407
 1121TIP3   OH224853   4.166   0.649  16.394  0.0628 -0.2405 -0.1492
 1121TIP3    H124854   4.133   0.560  16.406 -0.6432  0.2252  1.4650
 1121TIP3    H224855   4.236   0.658  16.458 -1.3008  1.0514  1.2266
 1122TIP3   OH224856   0.829   2.150  16.699 -0.4007 -0.1662  1.0136
 1122TIP3    H124857   0.770   2.076  16.687 -0.6358 -0.1326  1.8885
 1122TIP3    H224858   0.913   2.120  16.664 -1.1165  0.0668 -0.9711
 1123TIP3   OH224859   4.011   2.152   4.757  0.3822 -0.5401 -0.2075
 1123TIP3    H124860   3.973   2.079   4.708  0.7581 -0.6151 -0.3925
 1123TIP3    H224861   3.936   2.205   4.783  0.1285 -0.8466 -0.3112
 1124TIP3   OH224862   5.825   0.758  17.028 -0.1548 -0.3311 -0.3237
 1124TIP3    H124863   5.748   0.702  17.037  0.2755 -0.8963 -0.0706
 1124TIP3    H224864   5.899   0.698  17.041  0.3026  0.4063  0.4957
 1125TIP3   OH224865   2.796   3.904   4.949  0.0385  0.2487 -0.1291
 1125TIP3    H124866   2.763   3.892   5.038  0.3304  0.4830  0.0114
 1125TIP3    H224867   2.798   3.816   4.912 -1.3702  0.2988 -0.3630
 1126TIP3   OH224868   3.910   6.138  13.097  0.1233 -0.3717 -0.0740
 1126TIP3    H124869   3.977   6.140  13.165  0.7270 -1.1721 -0.6460
 1126TIP3    H224870   3.828   6.122  13.145  0.6272 -1.5544  0.3983
 1127TIP3   OH224871   4.611   4.960   4.633 -0.1509  0.2483  0.2266
 1127TIP3    H124872   4.686   5.009   4.667  0.5505 -0.3203 -0.4861
 1127TIP3    H224873   4.644   4.872   4.617 -0.1774  0.7338 -2.8386
 1128TIP3   OH224874   3.704   5.922  12.562 -0.1196 -0.1829  0.2265
 1128TIP3    H124875   3.612   5.936  12.537 -0.1831 -0.9056  0.0248
 1128TIP3    H224876   3.698   5.879  12.648  0.0435  0.2880  0.4720
 1129TIP3   OH224877   6.113   2.977  12.901  1.1389 -0.0832 -0.4636
 1129TIP3    H124878   6.041   3.014  12.952  2.4884  1.8165  0.1140
 1129TIP3    H224879   6.140   2.900  12.951 -0.9327 -1.2272 -1.0652
 1130TIP3   OH224880   3.811   1.150   0.098  0.1681  0.4966  0.8127
 1130TIP3    H124881   3.829   1.071   0.149  1.1749 -0.5728 -1.1070
 1130TIP3    H224882   3.876   1.213   0.128  0.1149  0.1994  1.5534
 1131TIP3   OH224883   0.784   2.963  11.955  0.2493 -0.2913 -0.1269
 1131TIP3    H124884   0.864   2.916  11.935  0.5098  0.0036  0.2202
 1131TIP3    H224885   0.768   3.018  11.878  1.3870  1.0351  0.5548
 1132TIP3   OH224886   1.246   2.336   3.820 -0.3013 -0.1448  0.4811
 1132TIP3    H124887   1.210   2.264   3.871 -1.8551  1.0588  1.1472
 1132TIP3    H224888   1.219   2.319   3.730 -1.1976 -0.0702  0.7359
 1133TIP3   OH224889   2.121   5.215  12.910  0.4311 -0.2883  0.1125
 1133TIP3    H124890   2.096   5.163  12.987  1.6893 -1.7934 -0.4784
 1133TIP3    H224891   2.180   5.158  12.861 -0.8960  0.3913 -2.3466
 1134TIP3   OH224892   1.371   2.792   2.056  0.0758  0.2616 -0.4933
 1134TIP3    H124893   1.409   2.718   2.008 -1.5265 -0.1766 -1.1369
 1134TIP3    H224894   1.414   2.790   2.141 -0.1288 -1.5971 -0.4141
 1135TIP3   OH224895   1.780   0.805   4.784  0.2575  0.3422 -0.0788
 1135TIP3    H124896   1.748   0.760   4.706 -0.6668 -0.6193  0.8437
 1135TIP3    H224897   1.702   0.843   4.824  0.8526  1.6171 -0.1171
 1136TIP3   OH224898   0.442   4.960  15.881  0.5002 -0.0540  1.1599
 1136TIP3    H124899   0.439   4.906  15.960 -0.0152 -0.7934  0.6417
 1136TIP3    H224900   0.402   5.043  15.907 -1.2561 -0.9001  1.2194
 1137TIP3   OH224901   3.336   2.817   1.552 -0.2519  0.2586  0.2551
 1137TIP3    H124902   3.368   2.727   1.551 -0.1940  0.2805  0.1204
 1137TIP3    H224903   3.274   2.821   1.479 -0.0267  0.4111  0.0745
 1138TIP3   OH224904   4.610   3.144  11.855  0.4546  0.1400  0.0906
 1138TIP3    H124905   4.542   3.079  11.835  0.7166  0.3434 -1.5725
 1138TIP3    H224906   4.613   3.147  11.950 -0.9370 -0.8518  0.1859
 1139TIP3   OH224907   0.062   0.633   0.788  0.1169 -0.0656 -0.1711
 1139TIP3    H124908   0.108   0.621   0.705  0.1313 -1.3085  0.0099
 1139TIP3    H224909   0.120   0.592   0.853 -1.6425 -2.4663 -0.0594
 1140TIP3   OH224910   5.874   5.576   5.370  0.1973 -0.3553 -0.0714
 1140TIP3    H124911   5.849   5.635   5.299  0.0173  0.4523  0.6486
 1140TIP3    H224912   5.795   5.526   5.389  0.7020 -1.7285 -1.5327
 1141TIP3   OH224913   3.731   5.206   4.923  0.1159 -0.3090  0.5480
 1141TIP3    H124914   3.817   5.165   4.929  0.7697  0.6622 -1.6240
 1141TIP3    H224915   3.701   5.211   5.014  1.9391 -1.4881  1.2606
 1142TIP3   OH224916   2.241   5.548  11.584 -0.3355 -0.1283 -0.4884
 1142TIP3    H124917   2.235   5.452  11.578  1.8505 -0.3487  0.4073
 1142TIP3    H224918   2.295   5.573  11.509  0.1988  0.2684  0.0294
 1143TIP3   OH224919   6.293   0.991  16.815  0.5463  0.2145  0.1288
 1143TIP3    H124920   6.247   0.947  16.886  1.8443 -2.2644 -0.5015
 1143TIP3    H224921   6.378   1.013  16.852  0.2339  1.3851  0.1578
 1144TIP3   OH224922   1.555   5.328  14.633  0.4601  0.6011 -0.3083
 1144TIP3    H124923   1.503   5.288  14.564  0.9744  0.4008 -0.5869
 1144TIP3    H224924   1.492   5.371  14.689 -0.4095 -3.0129  1.6428
 1145TIP3   OH224925   3.052   5.898   2.589  0.3577  0.5129 -0.0206
 1145TIP3    H124926   3.006   5.940   2.662 -0.0337 -2.1332  1.3128
 1145TIP3    H224927   3.060   5.966   2.523 -1.5439  2.2539  1.5014
 1146TIP3   OH224928   2.431   4.677  14.060  0.2081  0.1444  0.9215
 1146TIP3    H124929   2.385   4.737  14.001 -0.1660 -0.5941  0.4414
 1146TIP3    H224930   2.363   4.617  14.090  1.2796 -2.7226 -2.0121
 1147TIP3   OH224931   3.587   1.690  11.900  0.0639  0.2005 -0.5359
 1147TIP3    H124932   3.542   1.741  11.832  0.3865  0.6285 -0.4346
 1147TIP3    H224933   3.580   1.744  11.979 -1.0067 -0.6645 -0.0353
 1148TIP3   OH224934   4.567   4.878  15.887  0.4042  0.1573  0.4198
 1148TIP3    H124935   4.540   4.787  15.897  1.9264 -0.4262 -0.5337
 1148TIP3    H224936   4.529   4.923  15.962 -0.6457 -1.2008  0.7197
 1149TIP3   OH224937   2.868   4.409  11.654  0.4503 -0.2754 -0.6618
 1149TIP3    H124938   2.947   4.375  11.696  1.6027  1.2970 -1.5116
 1149TIP3    H224939   2.893   4.424  11.563 -0.7585  0.4454 -0.8870
 1150TIP3   OH224940   0.831   3.491   4.561 -0.2120  0.0240  0.0638
 1150TIP3    H124941   0.848   3.554   4.491  0.1017  0.4213  0.4977
 1150TIP3    H224942   0.905   3.502   4.622 -1.5109  1.1034  1.4854
 1151TIP3   OH224943   0.634   1.390   4.927 -0.0907 -0.7002  0.0541
 1151TIP3    H124944   0.560   1.335   4.903 -0.0684 -0.3143 -0.8990
 1151TIP3    H224945   0.711   1.336   4.909 -0.1485 -1.3309  1.6279
 1152TIP3   OH224946   3.757   4.205   5.258 -0.4860 -0.4353 -0.2994
 1152TIP3    H124947   3.665   4.179   5.265 -0.1434 -1.2787  1.2782
 1152TIP3    H224948   3.768   4.273   5.324  0.0184 -0.3276 -0.4910
 1153TIP3   OH224949   6.403   3.217  12.783 -0.4885 -0.3558 -0.2748
 1153TIP3    H124950   6.338   3.194  12.717 -1.3008  1.2328 -0.0373
 1153TIP3    H224951   6.459   3.281  12.740 -0.6971  0.2825  0.4017
 1154TIP3   OH224952   5.449   2.106  14.965  0.0323 -0.2470 -0.1720
 1154TIP3    H124953   5.507   2.133  14.893 -1.1552  0.6888 -0.7872
 1154TIP3    H224954   5.366   2.087  14.922 -0.8445  0.8391  1.0216
 1155TIP3   OH224955   6.534   0.535   2.520 -0.0019 -0.3507 -0.1435
 1155TIP3    H124956   6.595   0.462   2.525 -1.4573 -1.5449  0.8484
 1155TIP3    H224957   6.477   0.524   2.597 -0.8048  1.3100 -0.4710
 1156TIP3   OH224958   2.847   1.889  17.033 -0.1977  0.5456 -0.1356
 1156TIP3    H124959   2.905   1.954  17.072 -0.7150  1.3532 -0.6703
 1156TIP3    H224960   2.860   1.810  17.084  0.3227  1.1255  0.6355
 1157TIP3   OH224961   2.067   4.941   5.316 -0.1200 -0.1518  0.1113
 1157TIP3    H124962   1.972   4.947   5.326 -0.2535 -0.8766 -0.6453
 1157TIP3    H224963   2.085   4.985   5.233  0.3804  1.2749  0.9577
 1158TIP3   OH224964   6.326   4.640  15.988  0.3906  0.1065 -0.0218
 1158TIP3    H124965   6.325   4.732  15.964 -0.2746  0.1579  0.2079
 1158TIP3    H224966   6.357   4.594  15.910 -0.2306  0.4238 -0.4467
 1159TIP3   OH224967   1.839   1.221  13.544  0.2237  0.2651  0.2081
 1159TIP3    H124968   1.925   1.182  13.560 -0.7460 -1.4139  1.4917
 1159TIP3    H224969   1.826   1.212  13.450  1.0399 -0.3318  0.1420
 1160TIP3   OH224970   4.617   2.048  17.110 -0.0450 -0.1732 -0.4740
 1160TIP3    H124971   4.592   2.012  17.025 -0.0400 -0.2240 -0.4528
 1160TIP3    H224972   4.713   2.051  17.107 -0.1162  2.1947 -1.4683
 1161TIP3   OH224973   0.077   1.942  12.035  0.2563  0.4731  0.1420
 1161TIP3    H124974   0.094   2.036  12.050  0.2585  0.2220  1.8948
 1161TIP3    H224975   0.088   1.930  11.941  2.3220  1.8466  0.1713
 1162TIP3   OH224976   5.741   0.051   3.685  0.1114 -0.4971  0.3178
 1162TIP3    H124977   5.813   0.038   3.624  0.9192 -0.9842  1.3631
 1162TIP3    H224978   5.781   0.049   3.772 -0.5989  2.9272  0.8069
 1163TIP3   OH224979   6.229   3.487   0.405  0.3580  0.2893 -0.1799
 1163TIP3    H124980   6.226   3.394   0.382 -4.0063  0.3215 -0.1084
 1163TIP3    H224981   6.223   3.489   0.500 -1.8331  0.6650 -0.3074
 1164TIP3   OH224982   4.633   3.592   2.916 -0.5488  0.4098  0.3761
 1164TIP3    H124983   4.667   3.613   2.830 -2.4576 -1.3997 -0.8859
 1164TIP3    H224984   4.705   3.611   2.976  2.0273 -1.4895 -1.9594
 1165TIP3   OH224985   6.654   1.366   5.430  0.0292  0.3429 -0.2805
 1165TIP3    H124986   6.689   1.419   5.359 -0.8925  1.0110 -0.2590
 1165TIP3    H224987   6.718   1.297   5.444  1.3204  1.5286 -0.2442
 1166TIP3   OH224988   2.003   0.925   4.464  0.4571  0.0469 -0.3649
 1166TIP3    H124989   1.949   0.997   4.496  1.6592  0.8224 -0.0828
 1166TIP3    H224990   2.039   0.957   4.381  1.9967  0.2648  0.3742
 1167TIP3   OH224991   4.541   1.901  15.085  0.5244 -0.0647  0.1536
 1167TIP3    H124992   4.606   1.835  15.107  0.5572  0.3548  1.4044
 1167TIP3    H224993   4.580   1.951  15.014 -0.0549 -2.1943 -1.6993
 1168TIP3   OH224994   1.070   2.160  13.258 -0.5450 -0.3045 -0.4406
 1168TIP3    H124995   1.025   2.245  13.253  1.1766  0.6317 -0.1142
 1168TIP3    H224996   1.041   2.123  13.341  1.0071  1.2951  0.8454
 1169TIP3   OH224997   2.079   3.626   4.631 -0.1451 -0.1128  0.4434
 1169TIP3    H124998   2.156   3.680   4.644 -0.7579  0.2583  2.5916
 1169TIP3    H224999   2.071   3.574   4.711 -2.2415  0.0005  0.3401
 1170TIP3   OH225000   0.511   2.599   5.589 -0.0830  0.0090  0.0513
 1170TIP3    H125001   0.427   2.625   5.551 -0.0815 -1.5307 -1.0818
 1170TIP3    H225002   0.488   2.562   5.674 -0.5757 -0.4820 -0.2876
 1171TIP3   OH225003   1.305   4.072  16.735 -0.0853 -0.1106  0.5225
 1171TIP3    H125004   1.262   3.987  16.727 -1.5541  0.7483 -1.2939
 1171TIP3    H225005   1.255   4.117  16.804  0.1203 -0.3758  0.8483
 1172TIP3   OH225006   6.617   1.317  14.979 -0.0553 -0.4386 -0.5271
 1172TIP3    H125007   6.566   1.336  15.058  1.9470 -0.1093  0.7349
 1172TIP3    H225008   6.677   1.248  15.005  2.0354  1.0837 -1.1360
 1173TIP3   OH225009   3.120   1.779   5.154 -0.3939 -0.1138  0.5536
 1173TIP3    H125010   3.157   1.864   5.178 -0.2975 -0.6980  2.5471
 1173TIP3    H225011   3.093   1.740   5.237 -0.7213 -1.9024 -0.3653
 1174TIP3   OH225012   0.374   2.505  14.665  0.5643  0.2576 -0.4367
 1174TIP3    H125013   0.358   2.486  14.757 -0.2892 -2.1150 -1.0478
 1174TIP3    H225014   0.359   2.600  14.657  0.2222  0.4068  1.7510
 1175TIP3   OH225015   4.745   6.494   2.660 -0.0803  0.0142  0.0790
 1175TIP3    H125016   4.652   6.472   2.665 -0.1224  0.2164  0.1609
 1175TIP3    H225017   4.749   6.588   2.675  0.2321 -0.1529  1.0699
 1176TIP3   OH225018   0.998   1.630  11.239  0.3805  0.4169 -0.0790
 1176TIP3    H125019   1.088   1.613  11.211  0.7669  2.0200  0.0898
 1176TIP3    H225020   0.946   1.561  11.199  1.5939 -0.1106 -0.7718
 1177TIP3   OH225021   0.771   1.592  15.836 -0.4941  0.2727  0.1477
 1177TIP3    H125022   0.682   1.578  15.868  0.0090 -1.4642  0.8370
 1177TIP3    H225023   0.773   1.547  15.752 -0.3051  0.4319  0.0672
 1178TIP3   OH225024   5.163   6.181   5.831 -0.2317 -0.1108  1.0853
 1178TIP3    H125025   5.078   6.163   5.871 -1.8835  1.4590 -1.5271
 1178TIP3    H225026   5.154   6.270   5.797  2.0028 -0.4146 -0.3904
 1179TIP3   OH225027   0.540   5.755   5.651 -0.0725 -0.3083  0.0661
 1179TIP3    H125028   0.617   5.710   5.684 -0.7165  1.4045  4.2046
 1179TIP3    H225029   0.477   5.685   5.633  1.1773 -1.4741  0.2315
 1180TIP3   OH225030   5.008   5.030   0.595  0.2833  0.4485 -0.6839
 1180TIP3    H125031   4.980   4.972   0.666 -1.6076 -0.3122 -2.0341
 1180TIP3    H225032   5.063   4.975   0.539  0.8249  0.7388 -0.4403
 1181TIP3   OH225033   0.420   5.881  15.063 -0.4982  0.8856  0.3663
 1181TIP3    H125034   0.427   5.845  14.974 -0.3407 -1.4388  1.2858
 1181TIP3    H225035   0.326   5.890  15.077 -0.6765 -2.0166  1.2066
 1182TIP3   OH225036   2.733   2.704  11.485  0.4091 -0.3471  0.3618
 1182TIP3    H125037   2.675   2.650  11.538  0.1275 -1.9373 -1.5328
 1182TIP3    H225038   2.735   2.662  11.399 -0.1650  2.8717 -1.3245
 1183TIP3   OH225039   3.634   2.015  15.082  0.3035  0.3197 -0.3600
 1183TIP3    H125040   3.688   2.075  15.029 -0.1025  1.5949  0.6355
 1183TIP3    H225041   3.659   2.034  15.172 -1.3604  0.4899  0.0833
 1184TIP3   OH225042   5.890   5.286   4.747  0.3222  0.8701  0.8841
 1184TIP3    H125043   5.810   5.257   4.790 -2.5310  1.6747 -3.5272
 1184TIP3    H225044   5.892   5.381   4.762  0.6592  0.7881  1.3470
 1185TIP3   OH225045   6.190   5.328   3.465 -0.5298  0.1826  0.3101
 1185TIP3    H125046   6.254   5.370   3.407 -0.1727 -0.6947  0.0527
 1185TIP3    H225047   6.242   5.270   3.521 -0.9685  0.3795  0.9254
 1186TIP3   OH225048   5.350   2.754   2.393  0.8449 -0.1620  0.2522
 1186TIP3    H125049   5.333   2.661   2.379  1.0479  0.0749 -1.7995
 1186TIP3    H225050   5.361   2.763   2.488  1.0080 -2.2515  0.4521
 1187TIP3   OH225051   4.263   2.316  16.750 -0.4411  1.3882 -1.0359
 1187TIP3    H125052   4.294   2.403  16.726 -2.7793  2.1234 -1.5603
 1187TIP3    H225053   4.209   2.288  16.676 -2.2085  0.8205  0.4108
 1188TIP3   OH225054   3.911   4.602   2.412  0.3171  0.2060  0.2572
 1188TIP3    H125055   3.987   4.660   2.399 -2.0733  3.9219  1.8947
 1188TIP3    H225056   3.916   4.578   2.505  0.3923 -0.8438 -0.0242
 1189TIP3   OH225057   6.220   5.164   0.360 -0.8755 -0.0537 -0.1573
 1189TIP3    H125058   6.125   5.166   0.348 -0.9141 -1.6933 -0.1618
 1189TIP3    H225059   6.239   5.078   0.398  0.3943  1.0126  1.7455
 1190TIP3   OH225060   4.720   0.860   0.508 -0.6311 -0.2491  0.4864
 1190TIP3    H125061   4.800   0.838   0.554  0.1145  0.2650 -0.5288
 1190TIP3    H225062   4.744   0.933   0.451 -1.4890 -0.8951 -0.7551
 1191TIP3   OH225063   4.528   6.509   0.582 -0.2626 -0.0309  0.4597
 1191TIP3    H125064   4.598   6.465   0.630 -0.2107 -0.5582 -0.1012
 1191TIP3    H225065   4.449   6.487   0.630 -0.2327 -0.7097  0.2101
 1192TIP3   OH225066   5.574   0.499   1.951 -0.0465  0.4745  0.2982
 1192TIP3    H125067   5.498   0.470   1.901  0.9549 -2.4243  0.3040
 1192TIP3    H225068   5.642   0.513   1.885  0.3065 -0.0659  0.5420
 1193TIP3   OH225069   3.797   4.618   2.715  0.0478  0.0489 -0.3942
 1193TIP3    H125070   3.716   4.604   2.765  0.1012 -1.8821 -0.8272
 1193TIP3    H225071   3.787   4.707   2.680 -3.2021 -1.1486 -2.7890
 1194TIP3   OH225072   0.235   5.564   4.476  0.3917 -0.3373 -0.4257
 1194TIP3    H125073   0.186   5.616   4.413 -0.8832 -0.1703  0.6864
 1194TIP3    H225074   0.182   5.486   4.491  0.9855 -0.6775 -0.0299
 1195TIP3   OH225075   4.421   6.291  15.478  0.3217 -0.4060  0.3523
 1195TIP3    H125076   4.454   6.379  15.459  1.0478 -0.5544  0.8784
 1195TIP3    H225077   4.453   6.237  15.406  1.1080 -0.5178  0.7810
 1196TIP3   OH225078   0.534   0.266  15.386  0.1301  0.4803  0.5851
 1196TIP3    H125079   0.472   0.241  15.455  0.7524 -0.0489  0.9612
 1196TIP3    H225080   0.488   0.248  15.304 -1.2627  2.7310  0.8435
 1197TIP3   OH225081   5.522   0.401   4.607  0.2705  0.2315 -0.0164
 1197TIP3    H125082   5.545   0.337   4.674 -0.1272  0.9993  0.8762
 1197TIP3    H225083   5.570   0.480   4.633 -1.3544  1.0940  0.4364
 1198TIP3   OH225084   5.726   4.414   1.571 -0.5672  0.1672  0.7294
 1198TIP3    H125085   5.773   4.462   1.639  1.8508  0.1479 -0.8690
 1198TIP3    H225086   5.672   4.481   1.528  1.1198  1.0762 -0.0555
 1199TIP3   OH225087   1.393   0.685  14.737 -0.4146  0.0661 -0.0736
 1199TIP3    H125088   1.486   0.672  14.718 -0.5484 -0.6737 -0.2418
 1199TIP3    H225089   1.387   0.679  14.832 -0.4324 -0.8880 -0.1281
 1200TIP3   OH225090   4.419   6.515  14.500 -0.1283  0.0992  0.3087
 1200TIP3    H125091   4.405   6.606  14.525  0.0922 -0.3520  2.2208
 1200TIP3    H225092   4.448   6.472  14.581 -0.8293 -1.7990 -0.4020
 1201TIP3   OH225093   3.126   4.704  13.013  0.2302 -0.0285 -0.3931
 1201TIP3    H125094   3.049   4.648  13.005  0.2692 -0.1161 -0.1360
 1201TIP3    H225095   3.130   4.750  12.929 -0.2194  0.1336 -0.3288
 1202TIP3   OH225096   4.902   4.890   1.936 -0.0261 -0.0960 -0.4431
 1202TIP3    H125097   4.859   4.804   1.933  0.4933 -0.3068 -2.6861
 1202TIP3    H225098   4.830   4.952   1.932 -0.4617 -0.3714  1.9561
 1203TIP3   OH225099   0.039   0.162   2.292 -0.8040 -0.1127 -0.3609
 1203TIP3    H125100   0.088   0.241   2.269 -0.9683  0.5058  1.3407
 1203TIP3    H225101  -0.048   0.194   2.316 -1.1182 -0.8935 -0.4520
 1204TIP3   OH225102   3.622   3.932   2.136  0.1211  0.2463  0.5211
 1204TIP3    H125103   3.544   3.918   2.081 -0.4813 -2.4391  1.9683
 1204TIP3    H225104   3.691   3.884   2.090  0.5722  1.3873  0.0099
 1205TIP3   OH225105   3.616   1.504  13.123  0.2000 -0.1068 -0.3591
 1205TIP3    H125106   3.666   1.453  13.187 -1.0900 -0.8601  0.0846
 1205TIP3    H225107   3.540   1.535  13.173 -0.0974  0.4867 -1.1741
 1206TIP3   OH225108   3.773   6.003  12.262 -0.0195  0.8542 -0.1500
 1206TIP3    H125109   3.684   5.981  12.290  0.3095 -0.8019 -0.3886
 1206TIP3    H225110   3.767   6.095  12.235 -1.4884  0.9695  0.5039
 1207TIP3   OH225111   1.093   2.801   0.969 -0.2983  0.0488 -0.0771
 1207TIP3    H125112   1.082   2.891   1.000  0.2260  0.2104 -0.3587
 1207TIP3    H225113   1.172   2.770   1.013 -1.4809 -0.9045  1.4584
 1208TIP3   OH225114   6.275   4.057   1.866  0.4649 -0.5005  0.1587
 1208TIP3    H125115   6.284   4.128   1.803 -0.0568  0.8513  1.5636
 1208TIP3    H225116   6.185   4.026   1.855  0.1104  0.2870  0.7885
 1209TIP3   OH225117   1.426   6.174   0.297 -0.0257 -0.0962  0.1360
 1209TIP3    H125118   1.446   6.217   0.215 -0.4133 -0.4352 -0.1400
 1209TIP3    H225119   1.467   6.088   0.290  0.6141  0.1640  0.6208
 1210TIP3   OH225120   4.727   3.343   4.443 -0.5962  0.1560 -0.5273
 1210TIP3    H125121   4.715   3.248   4.443  0.9182 -0.0740  1.6720
 1210TIP3    H225122   4.821   3.355   4.432 -0.7451  1.3904 -0.4650
 1211TIP3   OH225123   5.403   3.353  11.596 -0.0264  0.7589  0.6210
 1211TIP3    H125124   5.465   3.377  11.527 -1.0177  1.1558 -0.1553
 1211TIP3    H225125   5.370   3.437  11.629 -1.8363  0.5382 -0.5544
 1212TIP3   OH225126   5.296   3.340   3.669 -0.6477  0.0483 -0.0142
 1212TIP3    H125127   5.224   3.278   3.661  0.2375 -1.0536  0.4175
 1212TIP3    H225128   5.356   3.316   3.598  0.3456 -0.4825  0.9826
 1213TIP3   OH225129   4.812   5.548   1.217 -0.4645  0.2398 -0.0705
 1213TIP3    H125130   4.814   5.453   1.210 -2.5519  0.2645 -1.1278
 1213TIP3    H225131   4.754   5.577   1.147 -0.4230  2.2438  0.6821
 1214TIP3   OH225132   4.491   4.734  15.297  0.4008 -0.7453 -0.2461
 1214TIP3    H125133   4.502   4.794  15.370 -2.2798 -0.2394 -0.2055
 1214TIP3    H225134   4.556   4.665  15.312  1.3909  0.5139  1.3699
 1215TIP3   OH225135   4.617   1.093  16.810 -0.0815  0.0660  0.0738
 1215TIP3    H125136   4.554   1.029  16.845 -1.2696  1.9020  1.4261
 1215TIP3    H225137   4.632   1.153  16.883 -0.1429  2.1829 -1.6077
 1216TIP3   OH225138   4.481   3.152  15.068  0.1596 -0.2791 -0.1810
 1216TIP3    H125139   4.556   3.101  15.037  1.7259  1.7319  0.1763
 1216TIP3    H225140   4.471   3.222  15.003 -0.7425  0.0962  0.3517
 1217TIP3   OH225141   5.740   3.366   1.240  0.5094 -0.2203 -0.0959
 1217TIP3    H125142   5.668   3.371   1.177  1.3584  1.7974 -0.9771
 1217TIP3    H225143   5.735   3.448   1.289 -0.6546 -2.1351  3.1342
 1218TIP3   OH225144   3.952   3.393   2.314  0.5162  0.6500 -0.4024
 1218TIP3    H125145   3.938   3.488   2.317 -1.2583  0.4504 -1.5097
 1218TIP3    H225146   3.897   3.358   2.384  1.2979  0.4361  0.1136
 1219TIP3   OH225147   3.793   3.221  16.850  0.1936 -0.1952 -0.4669
 1219TIP3    H125148   3.780   3.292  16.914  2.1640  0.3891 -0.6771
 1219TIP3    H225149   3.823   3.266  16.771  1.1440 -1.2318 -0.7034
 1220TIP3   OH225150   4.255   2.534   0.249  0.7809  0.1184 -0.0543
 1220TIP3    H125151   4.313   2.462   0.224  0.2597 -0.2339 -0.2359
 1220TIP3    H225152   4.288   2.609   0.199  0.7497 -0.2053 -0.5597
 1221TIP3   OH225153   4.137   6.063   1.297 -0.3618  0.7257  0.6034
 1221TIP3    H125154   4.222   6.022   1.278 -1.4321 -0.5837 -1.5573
 1221TIP3    H225155   4.115   6.110   1.217 -1.9409  0.5557  0.9283
 1222TIP3   OH225156   4.276   5.660   1.873 -0.2206 -0.3347 -0.7366
 1222TIP3    H125157   4.211   5.592   1.888  0.2786 -0.3519  1.4445
 1222TIP3    H225158   4.360   5.621   1.899  0.0267  1.1989  0.8647
 1223TIP3   OH225159   1.497   3.007   6.963  0.4743  0.4128  0.1301
 1223TIP3    H125160   1.412   3.019   7.004  0.3664  1.8298 -0.4947
 1223TIP3    H225161   1.478   2.956   6.884  0.2764  0.3780  0.1981
 1224TIP3   OH225162   1.877   2.560  15.586 -0.3634  0.3210  0.2573
 1224TIP3    H125163   1.834   2.502  15.522  0.1698 -3.1072  2.8539
 1224TIP3    H225164   1.806   2.589  15.643 -0.4042  1.0635 -0.1652
 1225TIP3   OH225165   1.796   2.558   2.997  0.4885  0.0830 -0.9923
 1225TIP3    H125166   1.887   2.587   2.989  0.1918  0.6821 -2.4148
 1225TIP3    H225167   1.779   2.511   2.916 -0.2236 -0.7516 -0.3690
 1226TIP3   OH225168   0.353   6.116  12.962  0.4429  0.1766 -0.6136
 1226TIP3    H125169   0.427   6.168  12.992  0.5237 -0.2480 -0.0688
 1226TIP3    H225170   0.308   6.172  12.899  0.5763  0.8650 -0.0988
 1227TIP3   OH225171   1.526   4.848  13.383 -0.1468  0.0514 -0.3250
 1227TIP3    H125172   1.447   4.850  13.436 -0.0062  0.2805 -0.1225
 1227TIP3    H225173   1.577   4.924  13.413  0.3095 -0.3014 -0.1994
 1228TIP3   OH225174   0.165   4.089  11.551 -0.1190  0.3574 -0.3104
 1228TIP3    H125175   0.230   4.138  11.602  0.9150 -0.6418 -0.6247
 1228TIP3    H225176   0.124   4.031  11.614  2.4140 -2.1640 -0.8729
 1229TIP3   OH225177   4.497   6.357  16.697  0.2089 -0.2119  0.4602
 1229TIP3    H125178   4.518   6.302  16.773  1.1597 -1.7307 -0.8511
 1229TIP3    H225179   4.480   6.294  16.626  2.4792  1.1642 -1.3834
 1230TIP3   OH225180   1.463   1.197   3.762  0.2212  0.0216  0.4562
 1230TIP3    H125181   1.477   1.155   3.847  0.3009  1.4000  1.1499
 1230TIP3    H225182   1.549   1.230   3.738 -0.4347  2.6698  1.5284
 1231TIP3   OH225183   6.377   3.719   6.491 -0.1761  0.3431  0.5828
 1231TIP3    H125184   6.347   3.774   6.420 -1.8029 -1.0159  0.1841
 1231TIP3    H225185   6.325   3.639   6.484  2.6229 -1.5917  0.6533
 1232TIP3   OH225186   6.304   1.433   3.932  0.1762 -0.1163  0.6398
 1232TIP3    H125187   6.293   1.404   4.022  2.5772  2.1564  1.7548
 1232TIP3    H225188   6.331   1.355   3.884  0.2510 -1.0526  2.1975
 1233TIP3   OH225189   5.255   4.648  16.832 -0.4864  0.2250 -0.8322
 1233TIP3    H125190   5.289   4.561  16.814  0.0380  0.0360  1.0223
 1233TIP3    H225191   5.332   4.702  16.847 -0.9058  0.0439  2.2572
 1234TIP3   OH225192   3.600   6.375  12.851  0.4479  0.1809 -0.0766
 1234TIP3    H125193   3.645   6.455  12.878  2.5664 -0.8178 -0.5768
 1234TIP3    H225194   3.615   6.369  12.757  1.6768 -1.6422  0.2217
 1235TIP3   OH225195   1.661   0.395  15.928  0.3699 -0.8412  0.0463
 1235TIP3    H125196   1.609   0.439  15.860  1.6017  0.8354  0.1629
 1235TIP3    H225197   1.598   0.375  15.997 -0.3737 -0.0181 -0.3833
 1236TIP3   OH225198   6.714   6.020  15.206 -0.3549  0.0845 -0.1213
 1236TIP3    H125199   6.775   6.094  15.212  0.7748 -0.9669  1.9147
 1236TIP3    H225200   6.663   6.037  15.127  0.6859  2.4336 -0.3250
 1237TIP3   OH225201   5.786   0.809   3.744  0.4938 -0.0323 -0.4200
 1237TIP3    H125202   5.706   0.766   3.714  0.7868 -0.3224 -0.7881
 1237TIP3    H225203   5.830   0.836   3.664  0.0249  1.5054 -0.1904
 1238TIP3   OH225204   3.399   6.135  13.519 -0.2446  0.2055  0.3466
 1238TIP3    H125205   3.330   6.202  13.527  0.3221  0.9932 -1.1026
 1238TIP3    H225206   3.477   6.185  13.491  0.5584 -0.8605  0.6724
 1239TIP3   OH225207   6.348   6.439  12.617  0.7332  0.5570 -0.0453
 1239TIP3    H125208   6.362   6.527  12.580  0.8209  0.7940  0.5414
 1239TIP3    H225209   6.422   6.426  12.676 -0.1054  0.7373  1.0733
 1240TIP3   OH225210   5.403   2.603   0.730 -0.2075 -0.3069 -0.0610
 1240TIP3    H125211   5.354   2.526   0.701  0.4519 -1.2340  1.2406
 1240TIP3    H225212   5.414   2.655   0.650  0.3941 -2.1447 -1.2225
 1241TIP3   OH225213   4.876   3.684  14.942 -0.0632  0.3811  0.2312
 1241TIP3    H125214   4.788   3.696  14.976 -0.0926  1.8810 -0.3249
 1241TIP3    H225215   4.868   3.611  14.880 -0.8239  0.2728  0.4559
 1242TIP3   OH225216   2.243   3.756  15.415 -0.1937  0.3584 -0.6338
 1242TIP3    H125217   2.220   3.825  15.352  0.2617  1.6254  0.5389
 1242TIP3    H225218   2.323   3.789  15.456 -0.8414 -0.1313  1.0543
 1243TIP3   OH225219   3.818   4.559  12.548 -0.3017  0.5164 -0.3769
 1243TIP3    H125220   3.731   4.530  12.575  0.2167  1.3332  2.3187
 1243TIP3    H225221   3.878   4.503  12.598  0.7102  1.1728 -0.8546
 1244TIP3   OH225222   0.345   4.088   0.802  0.0319  0.8752 -0.2978
 1244TIP3    H125223   0.412   4.146   0.763 -0.0379  0.4029 -1.1454
 1244TIP3    H225224   0.359   4.004   0.759  0.0197  0.3012  0.8088
 1245TIP3   OH225225   0.009   4.947  15.058  0.0508 -0.1632  0.0544
 1245TIP3    H125226  -0.073   4.987  15.086  0.1657 -1.9330  3.1263
 1245TIP3    H225227   0.064   5.021  15.033 -1.6904  1.1892  0.1325
 1246TIP3   OH225228   2.655   5.887   5.171 -0.3585 -0.4560  0.4646
 1246TIP3    H125229   2.675   5.830   5.245  0.9268  0.2482  0.6833
 1246TIP3    H225230   2.609   5.962   5.208  1.5208  0.5831  0.8048
 1247TIP3   OH225231   3.988   5.218  12.027 -0.0756  0.1142 -0.2410
 1247TIP3    H125232   3.899   5.232  12.058 -0.5094  0.4391 -1.6001
 1247TIP3    H225233   3.980   5.146  11.964  0.5367  0.4559 -0.7127
 1248TIP3   OH225234   3.324   2.378  15.977 -0.5157  0.1486 -0.3651
 1248TIP3    H125235   3.314   2.349  16.067  1.9634 -0.8845 -0.3646
 1248TIP3    H225236   3.375   2.308  15.935  1.3947  2.2218 -1.6214
 1249TIP3   OH225237   2.936   4.563   2.399 -0.3016  0.2096 -0.3015
 1249TIP3    H125238   2.986   4.638   2.365 -0.5767 -0.0027 -1.1767
 1249TIP3    H225239   2.938   4.499   2.328  0.7623 -1.0182  0.8131
 1250TIP3   OH225240   4.726   2.352   5.860  0.0400 -0.4483  0.6615
 1250TIP3    H125241   4.800   2.412   5.859 -0.7952  0.6629  2.8142
 1250TIP3    H225242   4.765   2.266   5.878  1.0454 -0.2864 -0.6744
 1251TIP3   OH225243   1.428   3.853   1.948  0.0323  0.3420 -0.3025
 1251TIP3    H125244   1.358   3.899   1.993 -0.2338 -1.2763  0.9936
 1251TIP3    H225245   1.383   3.780   1.903  0.7579 -0.1381 -0.2520
 1252TIP3   OH225246   5.959   6.375   0.839  0.1056  0.8105 -0.1928
 1252TIP3    H125247   6.014   6.327   0.901  1.4807 -0.5991 -2.4246
 1252TIP3    H225248   6.018   6.440   0.801  0.0066 -0.0467 -1.8668
 1253TIP3   OH225249   0.965   3.605   3.047 -0.1720  0.1838 -0.0221
 1253TIP3    H125250   1.026   3.550   2.997 -0.3594 -0.7329  0.7429
 1253TIP3    H225251   0.883   3.555   3.048 -0.1178  0.0971  1.3554
 1254TIP3   OH225252   5.638   0.411   2.203 -0.4908  0.0135 -0.3922
 1254TIP3    H125253   5.580   0.336   2.191 -1.1316  0.3539  0.5866
 1254TIP3    H225254   5.643   0.452   2.117 -1.6753 -0.0318 -0.4853
 1255TIP3   OH225255   5.850   1.965   5.821 -0.2626  0.4101 -0.4916
 1255TIP3    H125256   5.811   1.878   5.809  0.4397  0.0411 -0.1723
 1255TIP3    H225257   5.945   1.948   5.822 -0.0988  1.2641 -1.0980
 1256TIP3   OH225258   4.114   3.017  15.847  0.3755  0.5281  0.6870
 1256TIP3    H125259   4.110   3.112  15.855 -2.8231  0.3779  1.4178
 1256TIP3    H225260   4.122   2.985  15.937 -1.3312  0.0260  0.6715
 1257TIP3   OH225261   2.067   1.037   4.219  0.3725  0.2119 -0.4935
 1257TIP3    H125262   2.131   1.108   4.212  0.0873  0.4442 -0.8044
 1257TIP3    H225263   1.984   1.078   4.193 -0.2195  0.3719  1.5755
 1258TIP3   OH225264   1.941   6.073  10.965 -0.1992  0.3444  0.0491
 1258TIP3    H125265   1.947   6.039  11.054  0.9519  0.2720 -0.0483
 1258TIP3    H225266   1.923   6.166  10.977  0.5479  0.4565  0.3801
 1259TIP3   OH225267   1.906   2.793   0.373 -0.5900  0.1728 -0.0566
 1259TIP3    H125268   1.898   2.882   0.340 -0.9166 -0.1106 -0.7637
 1259TIP3    H225269   1.909   2.802   0.468 -0.2943  0.9583 -0.1403
 1260TIP3   OH225270   2.150   1.580  15.701  0.4930  0.2029 -0.1798
 1260TIP3    H125271   2.102   1.503  15.732  1.5255 -0.8424 -1.1417
 1260TIP3    H225272   2.091   1.622  15.639  0.1694 -0.1595 -0.1154
 1261TIP3   OH225273   5.607   4.453  14.927 -0.0388  0.1421  0.2629
 1261TIP3    H125274   5.572   4.542  14.932  0.3295  0.2566  0.7643
 1261TIP3    H225275   5.698   4.460  14.955  0.6659 -0.0029 -1.8996
 1262TIP3   OH225276   2.280   2.482   3.629  0.0262  0.3849  0.4635
 1262TIP3    H125277   2.368   2.454   3.655 -0.5283 -1.2679  0.6351
 1262TIP3    H225278   2.231   2.487   3.711  0.1196  1.8910  0.4292
 1263TIP3   OH225279   2.634   5.353  15.212  0.3811  0.2060 -0.3401
 1263TIP3    H125280   2.725   5.346  15.185 -0.1857 -0.6506 -2.0954
 1263TIP3    H225281   2.620   5.276  15.268  1.3215  1.5221  1.7440
 1264TIP3   OH225282   0.466   3.800  14.422  0.5876 -0.3408  0.3101
 1264TIP3    H125283   0.375   3.785  14.393  0.0502 -0.3993  1.9722
 1264TIP3    H225284   0.513   3.820  14.342 -0.5240 -2.0896 -0.8303
 1265TIP3   OH225285   0.867   0.006   0.476  0.1243 -0.1131 -0.2335
 1265TIP3    H125286   0.895  -0.080   0.444  2.1663  0.6950 -0.6723
 1265TIP3    H225287   0.937   0.033   0.536 -0.7640  1.0161  0.3145
 1266TIP3   OH225288   3.415   5.782   4.169 -0.0531 -0.0901 -0.0713
 1266TIP3    H125289   3.372   5.827   4.241 -2.5228 -1.0373 -0.9107
 1266TIP3    H225290   3.446   5.853   4.112  0.5124  0.6213  1.1060
 1267TIP3   OH225291   2.775   5.546  16.129 -0.3772 -0.1436 -0.1067
 1267TIP3    H125292   2.849   5.574  16.076 -0.0034  0.6811  0.8429
 1267TIP3    H225293   2.734   5.627  16.159 -1.5056 -0.5907 -0.3922
 1268TIP3   OH225294   5.035   6.599  17.159 -0.9173 -0.5996  0.7857
 1268TIP3    H125295   5.010   6.520  17.112 -1.7039 -0.5425  1.0908
 1268TIP3    H225296   5.130   6.597  17.162 -0.9085 -1.1692  0.1719
 1269TIP3   OH225297   5.926   1.117   5.025 -0.4687  0.9955 -0.0830
 1269TIP3    H125298   5.857   1.167   5.067 -0.9309  0.8029 -0.6129
 1269TIP3    H225299   5.898   1.107   4.934  0.8550  1.9927 -0.6178
 1270TIP3   OH225300   5.380   0.298  16.465 -0.4867  0.4261 -0.2712
 1270TIP3    H125301   5.462   0.326  16.505 -1.1301  0.0008  1.3780
 1270TIP3    H225302   5.312   0.321  16.529 -1.9177  2.7560 -2.5365
 1271TIP3   OH225303   6.322   5.335   4.446  0.1990 -0.1329 -0.2156
 1271TIP3    H125304   6.265   5.273   4.492 -0.2474  0.5022  0.0921
 1271TIP3    H225305   6.338   5.294   4.361  1.2971 -1.4692  0.6129
 1272TIP3   OH225306   5.904   1.276  16.816  0.1504  0.4310  0.0681
 1272TIP3    H125307   5.994   1.307  16.803 -0.0700  0.8857 -0.4276
 1272TIP3    H225308   5.857   1.309  16.739 -0.3826 -0.0160  0.2014
 1273TIP3   OH225309   6.642   1.787   2.528 -0.1472  1.0743  0.0932
 1273TIP3    H125310   6.561   1.828   2.497 -1.1686 -0.4336  0.7228
 1273TIP3    H225311   6.663   1.721   2.462  0.7306  1.6589 -0.2156
 1274TIP3   OH225312   4.463   0.461   3.246 -0.3199  0.1211 -0.2372
 1274TIP3    H125313   4.466   0.389   3.310  0.3902  0.2605 -0.1096
 1274TIP3    H225314   4.448   0.539   3.299 -1.5730  0.0114 -0.4235
 1275TIP3   OH225315   2.067   6.525   5.824 -0.0650 -0.2041 -0.3668
 1275TIP3    H125316   2.067   6.569   5.739  0.3728 -1.0715 -0.8223
 1275TIP3    H225317   2.157   6.494   5.835 -0.0199  0.2426  0.5982
 1276TIP3   OH225318   6.280   6.615  16.539  0.2068 -0.3272  0.4398
 1276TIP3    H125319   6.273   6.615  16.443 -2.1977  2.1368  0.5626
 1276TIP3    H225320   6.200   6.573  16.569  0.5466 -0.2896  1.4184
 1277TIP3   OH225321   5.048   5.952   2.717 -0.6326 -0.1057 -0.0812
 1277TIP3    H125322   5.037   5.915   2.804  1.2584 -3.2423 -1.0885
 1277TIP3    H225323   4.986   5.903   2.662 -1.8604  1.8890 -0.5341
 1278TIP3   OH225324   0.110   1.095  16.592 -0.4251  0.3914  0.8614
 1278TIP3    H125325   0.048   1.033  16.629 -0.2980 -0.6234 -0.5584
 1278TIP3    H225326   0.070   1.181  16.605 -1.0923 -0.0739  1.8973
 1279TIP3   OH225327   1.410   2.666   2.553 -0.0894  0.3566  0.3562
 1279TIP3    H125328   1.487   2.615   2.532 -0.1392  0.8931 -1.1737
 1279TIP3    H225329   1.417   2.684   2.647  2.2022  1.3452  0.0130
 1280TIP3   OH225330   5.233   4.818   1.618  0.3875  0.4128  0.1002
 1280TIP3    H125331   5.265   4.906   1.598 -1.7013  1.0774 -0.4389
 1280TIP3    H225332   5.159   4.832   1.676  0.2706 -1.0120  0.3054
 1281TIP3   OH225333   1.094   2.541  13.013 -0.0792 -0.4897  0.3211
 1281TIP3    H125334   1.050   2.490  13.081 -0.2096 -1.1319 -0.2391
 1281TIP3    H225335   1.183   2.505  13.010 -1.0994 -3.0769 -2.4116
 1282TIP3   OH225336   3.407   1.037   5.792  0.3888  0.0765 -0.5697
 1282TIP3    H125337   3.477   1.093   5.826 -0.6113  0.4874  0.8872
 1282TIP3    H225338   3.327   1.082   5.817 -0.4026 -0.7327 -1.6322
 1283TIP3   OH225339   3.758   6.209   1.217  0.2656 -0.0692 -0.1772
 1283TIP3    H125340   3.826   6.275   1.202  0.7850 -0.4904  0.2768
 1283TIP3    H225341   3.735   6.218   1.309 -2.3237  1.9497 -0.9664
 1284TIP3   OH225342   6.418   3.045   5.878  0.5464  0.5550 -0.0505
 1284TIP3    H125343   6.367   2.992   5.817 -0.5525 -0.1639  1.4617
 1284TIP3    H225344   6.509   3.018   5.864  0.1041 -0.9404 -0.0426
 1285TIP3   OH225345   2.377   2.964   2.151  0.3925  0.4945 -0.0268
 1285TIP3    H125346   2.375   3.022   2.228 -0.6635  0.0255  0.3145
 1285TIP3    H225347   2.317   2.894   2.173  0.7068 -0.0772 -0.9644
 1286TIP3   OH225348   0.767   0.097   2.826  0.6828 -0.5022  0.0658
 1286TIP3    H125349   0.723   0.181   2.836  0.1545 -0.6113 -1.3741
 1286TIP3    H225350   0.697   0.033   2.822  1.0882 -1.0485  1.2881
 1287TIP3   OH225351   0.509   1.910   2.510 -0.2739 -0.6518 -0.2439
 1287TIP3    H125352   0.523   1.927   2.417  0.9954  1.3021  0.2758
 1287TIP3    H225353   0.589   1.867   2.539 -1.6119 -3.4836 -0.5187
 1288TIP3   OH225354   2.207   1.301   3.393  0.0860  0.1400  0.4366
 1288TIP3    H125355   2.124   1.263   3.421  0.3510  0.0408  1.0927
 1288TIP3    H225356   2.260   1.306   3.473  1.0660 -0.7015 -0.1390
 1289TIP3   OH225357   4.037   0.587   3.427  0.4385 -0.1247  0.2564
 1289TIP3    H125358   3.946   0.586   3.456 -0.2656  0.7873 -1.7680
 1289TIP3    H225359   4.034   0.551   3.338  2.0453 -0.0994  0.1747
 1290TIP3   OH225360   0.773   6.252  15.957 -0.0178 -0.5337  0.3410
 1290TIP3    H125361   0.825   6.172  15.945  0.2148 -0.1968 -1.0559
 1290TIP3    H225362   0.713   6.252  15.882  0.3164  0.8465  0.0637
 1291TIP3   OH225363   3.595   0.479  11.562  0.2284  0.0578 -0.2022
 1291TIP3    H125364   3.508   0.476  11.601  0.7611 -0.1468  0.9881
 1291TIP3    H225365   3.605   0.568  11.530 -0.2930  0.1713 -0.0460
 1292TIP3   OH225366   4.264   1.147  15.229 -0.4299 -0.2432  0.5885
 1292TIP3    H125367   4.317   1.193  15.294 -0.1461 -0.0522  0.2209
 1292TIP3    H225368   4.275   1.054  15.249 -1.4110 -0.1371  1.6593
 1293TIP3   OH225369   1.453   6.173  14.695 -0.0810  0.2494 -0.1259
 1293TIP3    H125370   1.366   6.138  14.712 -0.0546  1.3287  2.3184
 1293TIP3    H225371   1.511   6.120  14.750  0.7274  0.0507 -1.1499
 1294TIP3   OH225372   3.064   3.401   5.488  0.1381 -0.4397 -0.4265
 1294TIP3    H125373   3.074   3.322   5.541 -0.6127 -1.7321 -2.1479
 1294TIP3    H225374   3.048   3.368   5.399  0.8303  1.6570 -1.3667
 1295TIP3   OH225375   0.427   2.889  14.180  0.2602 -0.2686 -0.4471
 1295TIP3    H125376   0.384   2.810  14.147 -0.7115  0.8144 -1.8507
 1295TIP3    H225377   0.442   2.942  14.101 -0.1506  1.4567  0.6293
 1296TIP3   OH225378   5.839   4.900  16.561  0.0627 -0.4119  0.2552
 1296TIP3    H125379   5.894   4.859  16.494  1.9054  0.6494  1.0865
 1296TIP3    H225380   5.852   4.994  16.550 -2.5752 -0.0760 -0.3291
 1297TIP3   OH225381   0.744   4.228   4.732  0.0716  0.5763  0.0363
 1297TIP3    H125382   0.806   4.299   4.714  1.1534 -0.2128  0.6032
 1297TIP3    H225383   0.713   4.200   4.646  3.0022 -1.2232 -0.4832
 1298TIP3   OH225384   3.925   5.928   5.005  0.2516  0.6916  0.0931
 1298TIP3    H125385   3.956   6.008   5.047  2.0659  1.3598 -2.3583
 1298TIP3    H225386   3.832   5.942   4.992  0.2749  1.7665  1.0539
 1299TIP3   OH225387   6.521   0.495   2.052 -0.2154  0.3619  0.0916
 1299TIP3    H125388   6.427   0.512   2.047 -0.1169  1.0498  0.4970
 1299TIP3    H225389   6.546   0.527   2.139  0.0137 -1.6850  0.8261
 1300TIP3   OH225390   5.680   1.668  14.631 -0.2029 -0.5576  0.4296
 1300TIP3    H125391   5.644   1.756  14.637  0.4810 -0.3382  1.4035
 1300TIP3    H225392   5.603   1.611  14.637 -0.4770 -0.0727  1.8107
 1301TIP3   OH225393   3.361   4.936   5.815  0.2544  0.1384  0.3265
 1301TIP3    H125394   3.455   4.950   5.801  0.3793 -0.0755  0.9569
 1301TIP3    H225395   3.356   4.865   5.879 -0.3476 -0.7626 -0.6939
 1302TIP3   OH225396   2.318   6.602  14.637  0.3581  0.4931  0.5101
 1302TIP3    H125397   2.269   6.551  14.573  1.3411 -0.5208  0.5496
 1302TIP3    H225398   2.319   6.546  14.716 -0.5359  1.5673  1.2911
 1303TIP3   OH225399   1.651   0.000  14.596 -0.4324 -0.0479 -0.4194
 1303TIP3    H125400   1.694  -0.034  14.674  2.0150  1.5531 -0.9940
 1303TIP3    H225401   1.563   0.024  14.625 -0.3029 -1.5578  1.2852
 1304TIP3   OH225402   3.949   6.776  12.107 -0.3022 -0.8836  0.4730
 1304TIP3    H125403   3.983   6.725  12.180  1.7294 -0.1514  0.0657
 1304TIP3    H225404   3.961   6.720  12.030  0.4818 -0.4199  0.2519
 1305TIP3   OH225405   4.421   2.081  11.621 -0.0912 -0.6630 -0.5985
 1305TIP3    H125406   4.430   2.054  11.713 -1.1958  2.0548  0.3843
 1305TIP3    H225407   4.492   2.144  11.608  0.5937 -1.6799 -1.9036
 1306TIP3   OH225408   0.522   5.707  15.613 -0.3289 -0.1904  0.2559
 1306TIP3    H125409   0.475   5.706  15.530 -0.2311 -0.6722  0.2076
 1306TIP3    H225410   0.606   5.664  15.595 -0.1792 -0.0207  0.5268
 1307TIP3   OH225411   3.665   0.107  11.216 -0.0099  0.4889  0.0212
 1307TIP3    H125412   3.761   0.115  11.218  0.2236 -1.1623 -2.3728
 1307TIP3    H225413   3.648   0.051  11.141 -2.9206  1.2614  0.0664
 1308TIP3   OH225414   2.751   0.458   0.888 -0.0837  0.4235 -0.5585
 1308TIP3    H125415   2.704   0.458   0.805  1.2261  2.3868 -1.3423
 1308TIP3    H225416   2.821   0.393   0.876 -0.5366 -0.0613 -0.5911
 1309TIP3   OH225417   0.428   1.800   0.596  0.2115 -0.1296  0.1530
 1309TIP3    H125418   0.520   1.825   0.583  0.9383 -0.6060  3.8728
 1309TIP3    H225419   0.431   1.706   0.613 -0.9327 -0.0926  0.5755
 1310TIP3   OH225420   0.524   5.848   3.832 -0.3183 -0.7720 -0.0302
 1310TIP3    H125421   0.606   5.801   3.817 -0.8249 -1.3334 -1.0596
 1310TIP3    H225422   0.460   5.779   3.850 -0.4762 -0.3124  1.1983
 1311TIP3   OH225423   1.078   0.274   1.783 -0.3046  0.4230 -0.3887
 1311TIP3    H125424   1.136   0.292   1.857 -0.0316 -1.8920 -0.0234
 1311TIP3    H225425   0.990   0.295   1.816 -0.4551 -2.7739  1.3904
 1312TIP3   OH225426   3.636   4.750   0.211 -0.5218 -0.1820 -0.0458
 1312TIP3    H125427   3.575   4.804   0.162  0.2321  1.9885  1.3385
 1312TIP3    H225428   3.623   4.776   0.302  2.4226  0.2902  0.2749
 1313TIP3   OH225429   2.797   1.366  12.306 -0.7945 -0.0083  0.1563
 1313TIP3    H125430   2.841   1.424  12.370  0.1969 -0.8282  0.2334
 1313TIP3    H225431   2.779   1.423  12.232  0.6221  0.3175  0.0339
 1314TIP3   OH225432   5.705   0.702  13.454  0.3189  0.3445  0.0426
 1314TIP3    H125433   5.783   0.653  13.482  0.8704  0.3549 -1.3914
 1314TIP3    H225434   5.674   0.654  13.377 -1.1502  0.3040  0.6424
 1315TIP3   OH225435   3.109   5.002   4.366  0.2648  1.0113  0.0772
 1315TIP3    H125436   3.044   4.964   4.307  0.5713 -0.0566  0.4157
 1315TIP3    H225437   3.068   5.082   4.399 -0.6723  0.6017 -0.0834
 1316TIP3   OH225438   0.274   4.865   6.147 -0.4587 -0.2267 -0.2837
 1316TIP3    H125439   0.279   4.809   6.225 -1.0437 -0.6010 -0.5079
 1316TIP3    H225440   0.180   4.878   6.133 -0.3185  0.9077 -0.1758
 1317TIP3   OH225441   0.473   2.800   1.721  0.4667  0.1249  0.8485
 1317TIP3    H125442   0.502   2.745   1.648  1.6900  0.3987  1.1056
 1317TIP3    H225443   0.461   2.886   1.682  0.1093  0.0314  0.7578
 1318TIP3   OH225444   5.051   1.902   0.847  0.9773 -0.1096 -0.1212
 1318TIP3    H125445   4.996   1.980   0.837  0.7304 -0.2995 -0.2511
 1318TIP3    H225446   5.127   1.932   0.896  0.7960  0.1743 -0.0151
 1319TIP3   OH225447   2.370   1.715  12.106  0.5855 -0.1467 -0.4742
 1319TIP3    H125448   2.387   1.634  12.155  1.1181 -0.3284 -0.9498
 1319TIP3    H225449   2.457   1.748  12.084  0.3598  0.3531 -0.6140
 1320TIP3   OH225450   0.586   2.282  12.988 -0.2554 -1.0492 -0.1959
 1320TIP3    H125451   0.680   2.275  12.972 -0.1606 -3.0443  1.0740
 1320TIP3    H225452   0.558   2.192  13.004 -2.2305 -0.3617  0.2998
 1321TIP3   OH225453   5.688   6.295  15.887 -0.2253 -0.1855  0.6750
 1321TIP3    H125454   5.629   6.365  15.859 -0.7367 -0.3316  1.3900
 1321TIP3    H225455   5.758   6.295  15.822 -0.7120  0.3752  0.1558
 1322TIP3   OH225456   4.895   5.358  14.816  0.2521  0.1965  0.2086
 1322TIP3    H125457   4.956   5.294  14.780  2.5484  1.3613  1.9257
 1322TIP3    H225458   4.818   5.352  14.759  1.0809 -2.8507 -0.6794
 1323TIP3   OH225459   1.499   6.447   2.625 -0.4350 -0.0585 -0.5839
 1323TIP3    H125460   1.466   6.465   2.537  0.2767 -1.1676 -1.0903
 1323TIP3    H225461   1.566   6.514   2.639 -0.6283  0.1931 -0.8381
 1324TIP3   OH225462   4.567   2.481  16.941 -0.3648  0.3607  0.5232
 1324TIP3    H125463   4.531   2.542  17.006 -2.7554 -0.8709  0.4198
 1324TIP3    H225464   4.564   2.529  16.858 -0.0811  0.9055  0.8279
 1325TIP3   OH225465   2.400   3.014  12.080 -0.1396  0.3117 -0.0690
 1325TIP3    H125466   2.360   3.074  12.017 -0.2055  0.8189  0.4528
 1325TIP3    H225467   2.469   2.969  12.031 -1.8227 -1.1176 -1.2071
 1326TIP3   OH225468   0.313   6.161  12.325  0.0580  0.3861 -0.4397
 1326TIP3    H125469   0.320   6.068  12.345 -0.7892 -0.9986 -5.8058
 1326TIP3    H225470   0.219   6.177  12.317  0.1653  1.8859  1.0212
 1327TIP3   OH225471   3.620   0.399  11.075  0.7351 -0.4475 -0.1569
 1327TIP3    H125472   3.668   0.422  10.996  0.8091 -2.1475 -0.6312
 1327TIP3    H225473   3.622   0.303  11.078 -1.4323 -0.5130  0.5467
 1328TIP3   OH225474   3.338   0.208   3.430 -0.3205 -0.0195 -0.0871
 1328TIP3    H125475   3.315   0.188   3.339 -0.8947  0.6114 -0.0783
 1328TIP3    H225476   3.269   0.266   3.461  1.5570  2.4436 -0.2727
 1329TIP3   OH225477   4.002   4.587  13.236  0.2132  0.4026  0.3686
 1329TIP3    H125478   4.047   4.634  13.306  1.7174  0.0723 -0.3742
 1329TIP3    H225479   3.951   4.519  13.282 -0.4420  1.4905  1.2878
 1330TIP3   OH225480   5.992   1.650  13.902 -0.3160  0.7077  0.9694
 1330TIP3    H125481   6.006   1.646  13.807  4.1175 -2.4936  1.6239
 1330TIP3    H225482   5.951   1.567  13.924 -0.5678  1.1045  2.0300
 1331TIP3   OH225483   3.323   3.082   4.426 -0.0859 -0.7073 -0.3251
 1331TIP3    H125484   3.368   3.165   4.442 -0.1932 -0.4446 -1.3852
 1331TIP3    H225485   3.240   3.106   4.386 -0.2618 -1.3064 -0.3247
 1332TIP3   OH225486   2.042   3.233   5.480  0.3935  0.1985 -0.0406
 1332TIP3    H125487   2.056   3.220   5.386  1.2899 -0.7017  0.2061
 1332TIP3    H225488   1.951   3.207   5.495  0.4972 -0.4710 -0.5267
 1333TIP3   OH225489   1.477   0.808   0.905 -0.1232  0.7868  0.3457
 1333TIP3    H125490   1.549   0.863   0.875 -0.3801 -0.0389 -1.9155
 1333TIP3    H225491   1.507   0.772   0.988  1.0406  2.3955  0.6523
 1334TIP3   OH225492   0.887   2.277  14.031 -0.8933  0.1621 -0.2219
 1334TIP3    H125493   0.804   2.249  14.070 -0.6558 -0.4517 -0.1460
 1334TIP3    H225494   0.871   2.367  14.003 -1.2310  0.4433  0.8293
 1335TIP3   OH225495   2.632   6.375   0.376  0.3798 -0.2067 -0.2291
 1335TIP3    H125496   2.650   6.365   0.469  1.7732  2.2692 -0.1777
 1335TIP3    H225497   2.659   6.292   0.337  1.3722 -0.6532  1.3763
 1336TIP3   OH225498   5.831   6.064  15.343  0.2973 -0.1829  0.1656
 1336TIP3    H125499   5.922   6.034  15.341 -0.2846 -1.8705 -2.0698
 1336TIP3    H225500   5.779   5.983  15.339 -1.3003  0.8443 -0.1962
 1337TIP3   OH225501   4.911   1.483  13.809  0.0005  1.1658 -0.1767
 1337TIP3    H125502   4.971   1.534  13.754  0.0470  0.9958 -0.2819
 1337TIP3    H225503   4.914   1.394  13.773  0.0591  1.0446  0.1277
 1338TIP3   OH225504   4.558   5.040   2.405  0.0605  0.4601 -0.1661
 1338TIP3    H125505   4.584   5.126   2.370  1.4099  0.1178 -0.0269
 1338TIP3    H225506   4.586   5.043   2.496 -3.1265  1.2220  0.8632
 1339TIP3   OH225507   3.807   2.574  13.701 -0.2021  0.2351 -0.1176
 1339TIP3    H125508   3.721   2.575  13.659 -0.1245 -0.5348 -0.3170
 1339TIP3    H225509   3.853   2.649  13.665 -1.1497  1.2434  0.7568
 1340TIP3   OH225510   6.016   5.686  11.515  0.2876 -0.2721  0.6655
 1340TIP3    H125511   5.954   5.713  11.448 -0.4257  0.0663  1.4436
 1340TIP3    H225512   5.992   5.596  11.535 -0.0605 -0.0927  1.0735
 1341TIP3   OH225513   6.138   0.904   5.024  0.0484 -0.7009 -0.3474
 1341TIP3    H125514   6.198   0.934   4.956 -0.6075  1.2130 -0.1354
 1341TIP3    H225515   6.095   0.984   5.054 -0.8276 -1.7254  1.2042
 1342TIP3   OH225516   2.604   1.932   1.023  0.3640 -0.6126  0.0964
 1342TIP3    H125517   2.658   1.908   1.098  0.5351 -0.3415  0.0638
 1342TIP3    H225518   2.571   1.849   0.989  0.6029 -0.7672  0.2388
 1343TIP3   OH225519   4.222   3.887  12.602  0.6622  0.5252 -0.4361
 1343TIP3    H125520   4.133   3.853  12.596  0.4364  0.9905  0.1639
 1343TIP3    H225521   4.271   3.837  12.537  0.4694 -1.3594  0.8134
 1344TIP3   OH225522   2.082   5.994  16.974 -0.4121  0.3554  0.1147
 1344TIP3    H125523   2.049   5.999  16.884 -0.9335  1.1577  0.3439
 1344TIP3    H225524   2.030   5.925  17.015  0.1102 -0.3045 -0.3067
 1345TIP3   OH225525   6.240   2.058  12.622  0.3361  0.2405 -0.0406
 1345TIP3    H125526   6.253   2.110  12.543 -1.1930  0.6503 -0.0298
 1345TIP3    H225527   6.301   2.096  12.685 -0.9624  2.2486  0.0597
 1346TIP3   OH225528   1.794   4.400   1.863  0.1838  0.1653  0.1889
 1346TIP3    H125529   1.853   4.452   1.917  1.5426 -1.0174 -0.1204
 1346TIP3    H225530   1.710   4.402   1.909 -0.1284  3.6074 -0.4389
 1347TIP3   OH225531   2.425   5.774  12.842  0.0009 -0.1470 -0.4498
 1347TIP3    H125532   2.478   5.844  12.805 -0.2756 -0.1512 -0.8554
 1347TIP3    H225533   2.382   5.734  12.767  0.7284 -1.2331 -0.3074
 1348TIP3   OH225534   3.243   1.938  16.758  0.6520  0.1439 -0.0528
 1348TIP3    H125535   3.210   1.851  16.779 -1.1369  0.2760 -2.0435
 1348TIP3    H225536   3.322   1.948  16.811 -2.0222 -0.5598  4.3134
 1349TIP3   OH225537   1.018   2.749   2.605 -0.5337  0.1340 -0.1640
 1349TIP3    H125538   1.017   2.729   2.511 -1.8182  1.5600 -0.4829
 1349TIP3    H225539   0.966   2.680   2.645  0.3890 -0.7335 -0.4322
 1350TIP3   OH225540   1.486   1.769  17.110 -0.0236  0.0910  0.2749
 1350TIP3    H125541   1.553   1.774  17.041 -0.2449 -1.9104 -0.1065
 1350TIP3    H225542   1.527   1.812  17.185  0.6354  1.3340 -0.7526
 1351TIP3   OH225543   3.399   4.558   0.298 -0.4202 -0.6744  1.2606
 1351TIP3    H125544   3.345   4.482   0.320 -0.3732 -0.5606  1.7740
 1351TIP3    H225545   3.347   4.633   0.325 -1.1848 -0.4376 -0.7585
 1352TIP3   OH225546   5.920   2.800   4.724  0.2954  0.4795 -0.1796
 1352TIP3    H125547   5.835   2.832   4.696 -0.8264 -2.1045  0.1861
 1352TIP3    H225548   5.978   2.816   4.649  0.0242  4.0507  0.2776
 1353TIP3   OH225549   5.722   5.715   0.177  0.1855  0.0525 -0.0328
 1353TIP3    H125550   5.645   5.677   0.134 -0.6814  0.2186  1.3641
 1353TIP3    H225551   5.736   5.798   0.131  0.2782 -0.5376 -1.0930
 1354TIP3   OH225552   1.123   4.431  16.040  0.0392 -0.2844 -0.5649
 1354TIP3    H125553   1.065   4.466  15.973 -0.6166  0.7994  0.5626
 1354TIP3    H225554   1.205   4.412  15.993 -0.3544  0.6267 -1.6328
 1355TIP3   OH225555   0.123   3.008  15.866  0.5900  0.1911 -0.1800
 1355TIP3    H125556   0.080   2.940  15.814  0.9722  0.8337 -1.3341
 1355TIP3    H225557   0.216   2.990  15.859  0.6729  0.5940 -0.1516
 1356TIP3   OH225558   6.016   2.915   0.528  0.2277 -0.3205  0.4147
 1356TIP3    H125559   5.984   3.002   0.504  0.6892  0.1732  1.5394
 1356TIP3    H225560   5.937   2.863   0.544 -0.0442 -0.0186  0.0405
 1357TIP3   OH225561   0.334   5.088  11.618 -0.2950 -0.2227 -0.1147
 1357TIP3    H125562   0.272   5.157  11.641  0.3253  1.1128 -2.3202
 1357TIP3    H225563   0.326   5.079  11.523  0.8759 -1.9981 -0.0635
 1358TIP3   OH225564   1.238   3.654   0.740 -0.2014 -0.3699  0.5844
 1358TIP3    H125565   1.318   3.694   0.774 -0.8790 -0.0865  1.8887
 1358TIP3    H225566   1.175   3.726   0.737 -0.2065 -0.4199 -1.1668
 1359TIP3   OH225567   2.737   0.751   0.830 -0.0165 -0.0120 -0.2725
 1359TIP3    H125568   2.740   0.656   0.833 -2.2441 -0.0973 -0.1444
 1359TIP3    H225569   2.825   0.779   0.859  0.1474 -1.9837  1.2306
 1360TIP3   OH225570   6.611   3.090   1.627 -0.1873 -0.0784 -0.2909
 1360TIP3    H125571   6.662   3.089   1.708 -0.4427 -2.0638 -0.1476
 1360TIP3    H225572   6.670   3.052   1.562 -1.2109 -1.7178 -0.2765
 1361TIP3   OH225573   6.248   5.920   0.323  0.1575 -0.5107  0.0038
 1361TIP3    H125574   6.294   5.993   0.282  0.6504 -1.4934 -1.2188
 1361TIP3    H225575   6.167   5.911   0.274 -0.7898  0.4123  1.3622
 1362TIP3   OH225576   2.685   5.721   1.202  0.8188 -0.0251  0.3432
 1362TIP3    H125577   2.725   5.634   1.212  0.6553 -0.2894 -1.2411
 1362TIP3    H225578   2.598   5.711   1.242 -0.6207 -1.6575 -3.0376
 1363TIP3   OH225579   5.644   5.907   2.660  0.2158 -0.9658  0.3248
 1363TIP3    H125580   5.701   5.932   2.732  0.9530 -1.6607 -0.0088
 1363TIP3    H225581   5.693   5.839   2.613 -1.0091 -1.7893  0.2120
 1364TIP3   OH225582   3.827   6.390  13.809  0.4083 -0.5988  0.3720
 1364TIP3    H125583   3.826   6.435  13.893 -1.0822 -1.9508  1.1319
 1364TIP3    H225584   3.839   6.459  13.744  1.5464  0.4649  1.6905
 1365TIP3   OH225585   2.068   2.678  13.995 -0.0198 -0.4513  0.2313
 1365TIP3    H125586   2.134   2.646  14.056  0.7885 -0.2874 -0.5362
 1365TIP3    H225587   2.097   2.766  13.972 -0.0825 -0.6621 -0.6969
 1366TIP3   OH225588   0.154   1.146   6.582 -0.6455 -0.0054 -0.2887
 1366TIP3    H125589   0.088   1.079   6.596 -0.9742 -0.0954 -2.0528
 1366TIP3    H225590   0.104   1.223   6.555 -0.1298  0.3287 -0.2976
 1367TIP3   OH225591   1.467   5.904   1.012  0.0004  0.3727  0.0729
 1367TIP3    H125592   1.463   5.871   1.102 -2.8006 -0.1227 -0.2054
 1367TIP3    H225593   1.439   5.830   0.958  2.4407  0.4027 -1.3147
 1368TIP3   OH225594   4.934   6.573   5.283  0.2661  0.0497  0.6174
 1368TIP3    H125595   5.026   6.558   5.306  0.8159  2.8366  0.3275
 1368TIP3    H225596   4.886   6.526   5.351  1.9029 -0.2285  1.6313
 1369TIP3   OH225597   4.005   1.239  12.503 -0.2608  0.3528 -0.7666
 1369TIP3    H125598   3.953   1.316  12.527 -0.4626 -0.2232  0.7441
 1369TIP3    H225599   3.968   1.210  12.419 -2.8101 -0.3771  0.5382
 1370TIP3   OH225600   6.403   2.401  16.812  0.1068  0.4838  0.3297
 1370TIP3    H125601   6.423   2.319  16.856 -0.5814  0.7933  1.2428
 1370TIP3    H225602   6.319   2.385  16.769 -0.8767  1.2322  1.9267
 1371TIP3   OH225603   4.422   5.663   3.685 -0.1990 -0.1463 -0.2747
 1371TIP3    H125604   4.440   5.704   3.601 -2.3818 -1.8120 -1.6240
 1371TIP3    H225605   4.493   5.600   3.697  0.8011  0.9778 -0.2563
 1372TIP3   OH225606   6.115   4.681  16.901  0.1068 -0.1509  0.6353
 1372TIP3    H125607   6.155   4.682  16.814 -1.6903  0.7824 -0.2106
 1372TIP3    H225608   6.177   4.729  16.957 -0.3986  2.3826 -0.9255
 1373TIP3   OH225609   0.782   4.462   6.486 -0.5392 -0.3170 -0.1286
 1373TIP3    H125610   0.709   4.492   6.432 -1.3442 -1.1787  0.4689
 1373TIP3    H225611   0.750   4.468   6.576 -0.3972 -2.0752  0.0505
 1374TIP3   OH225612   6.543   4.490   4.834 -0.3021  0.1297  0.4813
 1374TIP3    H125613   6.525   4.524   4.921  0.2060  0.3707  0.4953
 1374TIP3    H225614   6.502   4.403   4.833 -0.6304  0.2777  0.8281
 1375TIP3   OH225615   1.002   6.706  11.937  0.2212 -0.8353 -0.2119
 1375TIP3    H125616   0.970   6.757  11.863  1.4679  0.6993  0.2547
 1375TIP3    H225617   1.014   6.617  11.903 -0.2103 -0.3778 -1.5629
 1376TIP3   OH225618   2.952   4.688   4.290  0.0607  0.4988  0.9159
 1376TIP3    H125619   2.970   4.614   4.232  0.0612  0.2224  1.2723
 1376TIP3    H225620   2.945   4.763   4.230 -0.5853  0.1097  0.4966
 1377TIP3   OH225621   3.985   3.898   3.015  0.9079  0.0401  0.6428
 1377TIP3    H125622   3.939   3.955   2.953  1.7158  0.5897  0.5324
 1377TIP3    H225623   3.940   3.911   3.098  0.4142  0.0258  0.3803
 1378TIP3   OH225624   0.775   2.465   0.893 -0.0456 -0.2188  0.3199
 1378TIP3    H125625   0.802   2.525   0.824  0.0591  0.2288  0.7496
 1378TIP3    H225626   0.700   2.508   0.935  1.7796  0.9714  2.4762
 1379TIP3   OH225627   5.253   3.669   5.397  0.4620 -0.7225  0.2342
 1379TIP3    H125628   5.276   3.701   5.310  0.4174 -0.2549  0.3915
 1379TIP3    H225629   5.319   3.603   5.417  0.5015 -0.7960 -0.1317
 1380TIP3   OH225630   4.800   1.065  14.435 -0.0047 -0.3387 -0.2403
 1380TIP3    H125631   4.876   1.088  14.489 -0.4031 -0.3791  0.3332
 1380TIP3    H225632   4.736   1.030  14.496 -0.7715  0.3928 -0.6223
 1381TIP3   OH225633   1.519   5.587  11.917  0.4676  0.1967  0.2177
 1381TIP3    H125634   1.608   5.577  11.952 -0.1795  0.0246  1.8443
 1381TIP3    H225635   1.518   5.676  11.880  1.5625 -0.1108 -0.6003
 1382TIP3   OH225636   1.121   4.933   0.266 -1.0169 -0.0930 -0.2182
 1382TIP3    H125637   1.137   5.023   0.294 -1.0120 -0.0642 -0.3156
 1382TIP3    H225638   1.078   4.941   0.181  0.0347 -0.2081 -0.7556
 1383TIP3   OH225639   1.271   0.383   2.764 -0.7095  0.4868 -0.7144
 1383TIP3    H125640   1.310   0.296   2.770 -1.1320  0.3775  0.7639
 1383TIP3    H225641   1.192   0.370   2.712 -0.9713 -0.0980 -0.1817
 1384TIP3   OH225642   3.282   0.854  11.020  0.1896 -0.0309  0.3633
 1384TIP3    H125643   3.371   0.820  11.028  0.6103  0.7253 -0.8830
 1384TIP3    H225644   3.258   0.837  10.929  0.7193  3.5991 -0.5503
 1385TIP3   OH225645   5.223   2.622  13.783 -0.1948  0.1413 -0.3364
 1385TIP3    H125646   5.317   2.606  13.791 -0.3807 -0.4235  0.8428
 1385TIP3    H225647   5.203   2.605  13.691  0.6306 -0.9557 -0.3196
 1386TIP3   OH225648   4.875   4.069  13.611 -0.0363  0.3642  0.2159
 1386TIP3    H125649   4.878   3.992  13.668  0.4424 -0.2367 -0.6146
 1386TIP3    H225650   4.820   4.043  13.538  0.7533  0.5574 -0.4470
 1387TIP3   OH225651   4.394   1.766  16.869 -0.5214 -0.4331  0.4672
 1387TIP3    H125652   4.331   1.698  16.841 -2.0802  0.8745  0.7041
 1387TIP3    H225653   4.348   1.813  16.939  0.9249  0.2580  0.9597
 1388TIP3   OH225654   4.442   3.898  15.731 -0.6718 -0.1060 -0.0424
 1388TIP3    H125655   4.458   3.820  15.783 -1.9178 -0.4122 -0.0985
 1388TIP3    H225656   4.408   3.865  15.648  0.4356  0.4222 -0.7162
 1389TIP3   OH225657   2.960   2.610   0.390  0.5101 -0.1743  0.2743
 1389TIP3    H125658   2.913   2.580   0.468 -0.0822 -0.6741 -0.2726
 1389TIP3    H225659   2.952   2.705   0.392 -1.2454 -0.3081 -0.2665
 1390TIP3   OH225660   2.345   2.051   0.318  0.1656 -0.3584 -0.1789
 1390TIP3    H125661   2.371   2.124   0.261 -1.2926  0.7939  0.5758
 1390TIP3    H225662   2.282   2.002   0.266  0.5430 -0.6111 -0.3956
 1391TIP3   OH225663   1.351   0.677  16.413 -0.2177 -0.3718 -0.2929
 1391TIP3    H125664   1.404   0.699  16.337  0.8454  2.0227  1.0860
 1391TIP3    H225665   1.359   0.582  16.421  4.4837 -0.0469  0.2879
 1392TIP3   OH225666   3.858   3.872  15.901 -0.0088  0.7020 -0.0958
 1392TIP3    H125667   3.808   3.949  15.871 -4.5846 -2.7004 -1.8061
 1392TIP3    H225668   3.911   3.847  15.825 -0.7338  0.4519 -0.5214
 1393TIP3   OH225669   0.961   1.551  13.498 -0.3465  0.0022 -0.1961
 1393TIP3    H125670   1.042   1.528  13.544  0.0130 -1.2404 -1.4117
 1393TIP3    H225671   0.924   1.624  13.549  1.2151  0.1794  0.7184
 1394TIP3   OH225672   0.355   6.659   0.722 -0.0157  0.4562 -0.3672
 1394TIP3    H125673   0.315   6.676   0.637 -0.9933  0.3279  0.0547
 1394TIP3    H225674   0.448   6.673   0.708 -0.1936  0.6701 -1.4000
 1395TIP3   OH225675   1.194   3.197  11.198  0.2675 -0.7712 -0.0573
 1395TIP3    H125676   1.137   3.164  11.269 -0.8098 -1.4484 -1.2158
 1395TIP3    H225677   1.184   3.292  11.202 -0.2920 -0.8416  0.2898
 1396TIP3   OH225678   5.218   2.183   0.497  0.4978 -0.4330  0.8137
 1396TIP3    H125679   5.221   2.196   0.402  1.0114  0.2060  0.9152
 1396TIP3    H225680   5.262   2.100   0.512 -0.5514 -1.0764  0.3902
 1397TIP3   OH225681   4.859   5.053  10.285  0.0988  0.3621 -0.3795
 1397TIP3    H125682   4.933   5.022  10.337 -1.2245  0.0751  1.3747
 1397TIP3    H225683   4.860   5.148  10.297 -0.0504  0.3201 -0.0183
 1398TIP3   OH225684   6.318   6.444   5.393 -0.5193  0.1304 -0.8948
 1398TIP3    H125685   6.393   6.490   5.430 -0.3621  0.1420 -1.2232
 1398TIP3    H225686   6.250   6.510   5.385 -1.4919 -0.4696  1.9760
 1399TIP3   OH225687   6.123   1.385   5.029 -0.2934  0.2147  0.2933
 1399TIP3    H125688   6.132   1.359   4.937  2.4652  1.8453  0.0518
 1399TIP3    H225689   6.101   1.478   5.025 -0.2777  0.2580  1.2697
 1400TIP3   OH225690   2.266   1.397   1.350 -0.5618  0.9902 -0.2229
 1400TIP3    H125691   2.304   1.478   1.315 -0.0548  0.3110 -1.2670
 1400TIP3    H225692   2.336   1.359   1.403 -0.6716  1.0385 -0.0427
 1401TIP3   OH225693   2.795   0.810   1.467  0.2602 -0.4438  0.2652
 1401TIP3    H125694   2.851   0.844   1.536 -1.2312  1.8612  0.3870
 1401TIP3    H225695   2.706   0.825   1.498 -0.4503 -2.0003 -0.9139
 1402TIP3   OH225696   1.847   2.182  12.268 -0.3371  0.7496  0.3297
 1402TIP3    H125697   1.806   2.244  12.208  0.3198  1.3946  0.5401
 1402TIP3    H225698   1.877   2.235  12.342 -1.5172 -0.0826  1.4552
 1403TIP3   OH225699   1.632   5.972  14.602  0.5007  0.0823 -0.3321
 1403TIP3    H125700   1.651   6.056  14.561 -1.2216  0.1081 -1.1536
 1403TIP3    H225701   1.667   5.907  14.541 -0.2174  0.1704 -0.8530
 1404TIP3   OH225702   5.472   2.820  11.323  0.3871  0.2997 -0.6065
 1404TIP3    H125703   5.566   2.800  11.332  0.4549  0.7482 -0.2851
 1404TIP3    H225704   5.444   2.841  11.412  0.1082  0.7140 -0.7945
 1405TIP3   OH225705   0.615   3.559   4.903  0.2272 -0.1297 -0.0343
 1405TIP3    H125706   0.607   3.617   4.979 -0.7081 -0.7936  0.3772
 1405TIP3    H225707   0.675   3.490   4.932 -1.5817 -1.4139  0.7615
 1406TIP3   OH225708   3.714   5.196   0.413  0.1025  0.4482 -0.0545
 1406TIP3    H125709   3.769   5.205   0.336  0.2092 -0.2374 -0.0657
 1406TIP3    H225710   3.691   5.103   0.415  0.5341  0.3606  1.0270
 1407TIP3   OH225711   1.369   2.093   3.997 -0.3294 -0.3055  0.3581
 1407TIP3    H125712   1.443   2.044   3.962 -2.5391 -2.0969 -2.0338
 1407TIP3    H225713   1.358   2.059   4.086  0.2784 -1.7359 -0.0921
 1408TIP3   OH225714   1.153   4.327  16.830 -0.5488  0.7509 -0.7774
 1408TIP3    H125715   1.094   4.385  16.782 -1.3092  0.9545  0.3995
 1408TIP3    H225716   1.098   4.255  16.859 -0.0117  0.4459 -0.5116
 1409TIP3   OH225717   5.410   2.772  15.050 -0.5750  0.5706 -1.1270
 1409TIP3    H125718   5.468   2.799  15.122 -0.4479 -1.1330 -0.5717
 1409TIP3    H225719   5.341   2.838  15.050  0.0080  1.2047 -0.1425
 1410TIP3   OH225720   5.798   5.629   2.114 -0.0378 -0.0904 -0.2165
 1410TIP3    H125721   5.760   5.630   2.026 -1.3211  1.0666  0.3269
 1410TIP3    H225722   5.892   5.626   2.100 -0.1679  1.5553 -1.6745
 1411TIP3   OH225723   3.966   5.808   1.325  0.3112 -0.1524  0.2861
 1411TIP3    H125724   4.034   5.877   1.326 -1.1867  1.3475  2.5636
 1411TIP3    H225725   3.961   5.781   1.233  2.5806  1.1215 -0.2553
 1412TIP3   OH225726   6.076   6.286   5.914  0.2462 -0.1509 -0.1954
 1412TIP3    H125727   6.089   6.234   5.994 -0.4972 -1.6874 -1.0555
 1412TIP3    H225728   6.146   6.259   5.856 -0.4216 -0.5336 -0.8233
 1413TIP3   OH225729   4.245   3.705  16.027 -0.5294 -0.2865 -0.4082
 1413TIP3    H125730   4.257   3.786  16.075 -1.6373 -0.7024  0.5661
 1413TIP3    H225731   4.333   3.667  16.022 -0.4808 -0.4508  1.6429
 1414TIP3   OH225732   3.338   0.560   3.172  0.1545 -0.1328 -0.6558
 1414TIP3    H125733   3.383   0.579   3.254  0.1265  0.4901 -0.7846
 1414TIP3    H225734   3.281   0.635   3.158 -1.2067 -1.0705 -0.3041
 1415TIP3   OH225735   5.246   4.837  12.659 -1.3478 -0.1204 -0.2743
 1415TIP3    H125736   5.259   4.920  12.705  0.3713 -0.4433 -0.1673
 1415TIP3    H225737   5.161   4.806  12.691 -2.5626  2.1163 -1.1531
 1416TIP3   OH225738   3.185   0.885   4.450  0.3319 -0.0631 -0.1390
 1416TIP3    H125739   3.184   0.809   4.392  0.9264 -0.5917  0.5217
 1416TIP3    H225740   3.141   0.854   4.529  0.3926  0.3422  0.0536
 1417TIP3   OH225741   1.374   6.377  14.944 -0.2609 -0.4090  0.3096
 1417TIP3    H125742   1.321   6.360  15.022  1.7807 -2.0516  1.3800
 1417TIP3    H225743   1.404   6.291  14.916  0.9356  0.3895 -0.9310
 1418TIP3   OH225744   1.829   0.902  12.246 -0.0436  0.0492 -0.2711
 1418TIP3    H125745   1.863   0.861  12.166 -2.9462 -3.7893  0.3406
 1418TIP3    H225746   1.741   0.931  12.223 -0.4900 -0.0843  1.2180
 1419TIP3   OH225747   1.126   5.185  14.994  0.1668  0.3394 -0.1064
 1419TIP3    H125748   1.187   5.213  14.925  0.0878  1.0230  0.1020
 1419TIP3    H225749   1.068   5.123  14.950 -0.2822  1.2544 -0.8204
 1420TIP3   OH225750   5.603   2.167   2.425 -0.0762  0.1185  0.0309
 1420TIP3    H125751   5.694   2.160   2.455 -0.2191  0.4268  0.5457
 1420TIP3    H225752   5.565   2.081   2.442 -0.2887  0.4285  1.1893
 1421TIP3   OH225753   6.177   1.678   6.183  0.1953  0.5023  0.2164
 1421TIP3    H125754   6.086   1.707   6.190 -0.6015 -1.8413  0.1234
 1421TIP3    H225755   6.180   1.596   6.232  2.1470  0.3131 -0.1756
 1422TIP3   OH225756   4.528   1.972  13.291 -0.4392  0.2973  0.0738
 1422TIP3    H125757   4.489   2.056  13.267  2.3361  0.9775 -2.3276
 1422TIP3    H225758   4.525   1.920  13.211  2.4962 -0.0143  0.1113
 1423TIP3   OH225759   6.715   6.338  11.034 -0.7555 -0.2652  0.6559
 1423TIP3    H125760   6.731   6.432  11.031  0.7964 -0.5047  1.0553
 1423TIP3    H225761   6.752   6.305  10.952 -1.3576 -0.5212  0.4839
 1424TIP3   OH225762   4.574   0.939   3.404 -0.3774 -0.2046 -0.2788
 1424TIP3    H125763   4.591   0.987   3.485 -1.5147 -1.1736  0.5449
 1424TIP3    H225764   4.541   1.005   3.343 -1.6164  0.1307  0.7476
 1425TIP3   OH225765   5.891   4.179   5.741 -0.0550 -0.5591  0.0696
 1425TIP3    H125766   5.833   4.103   5.754  2.9837 -3.3813 -1.8949
 1425TIP3    H225767   5.948   4.178   5.818 -1.4046  1.1022  1.1078
 1426TIP3   OH225768   5.606   6.313  12.096  0.1234 -0.0944 -0.5295
 1426TIP3    H125769   5.557   6.391  12.071  1.5165  0.7588 -0.5871
 1426TIP3    H225770   5.542   6.242  12.089 -1.2831  1.0905 -0.0276
 1427TIP3   OH225771   4.032   1.190  16.733 -0.4607 -0.1799  0.0198
 1427TIP3    H125772   3.976   1.243  16.790  0.8858 -0.2427  1.4076
 1427TIP3    H225773   4.075   1.253  16.676  0.3186  0.1326  0.9488
 1428TIP3   OH225774   4.305   2.971  11.348  0.1097 -0.8632  0.3775
 1428TIP3    H125775   4.379   2.978  11.286 -0.6196 -0.7641 -0.4989
 1428TIP3    H225776   4.271   2.883  11.333 -1.4380 -0.0648 -0.9556
 1429TIP3   OH225777   6.431   4.012  14.369 -0.6574 -0.0042  0.8838
 1429TIP3    H125778   6.456   4.025  14.277 -0.6711 -0.5637  0.7952
 1429TIP3    H225779   6.490   3.944  14.401 -0.6599  0.1836  1.2889
 1430TIP3   OH225780   1.487   1.491  15.722 -0.2157  0.3071  0.2962
 1430TIP3    H125781   1.509   1.438  15.645 -0.6726 -0.8685  0.9671
 1430TIP3    H225782   1.572   1.513  15.760  0.0222  1.0878 -0.6676
 1431TIP3   OH225783   2.979   4.617  14.136 -0.3720  0.2478 -0.0645
 1431TIP3    H125784   2.952   4.533  14.099 -1.1374  0.4995 -0.0941
 1431TIP3    H225785   3.009   4.595  14.224  1.2865 -0.3277 -0.7605
 1432TIP3   OH225786   3.054   1.763   1.584 -0.3840  0.3007 -0.1911
 1432TIP3    H125787   3.025   1.842   1.539  1.3953  0.7316 -0.6231
 1432TIP3    H225788   3.035   1.779   1.676 -1.9656  0.3461 -0.5096
 1433TIP3   OH225789   1.716   0.334   0.166 -0.0133  0.0055 -0.6025
 1433TIP3    H125790   1.777   0.400   0.133  0.7187  0.5904  1.8156
 1433TIP3    H225791   1.631   0.379   0.170 -0.1299 -0.1070 -1.7824
 1434TIP3   OH225792   4.008   6.495  11.931  0.4196  0.9658 -0.1906
 1434TIP3    H125793   4.028   6.432  11.861  2.0983  0.4408  0.7287
 1434TIP3    H225794   4.064   6.468  12.004  0.8639  3.2872  0.3713
 1435TIP3   OH225795   0.040   4.655  14.772 -0.5880  0.4485  0.0910
 1435TIP3    H125796   0.098   4.705  14.829 -1.0977 -0.3482  1.3082
 1435TIP3    H225797   0.039   4.705  14.690 -1.4499  2.7048  1.4245
 1436TIP3   OH225798   4.197   3.816   6.007 -0.3120 -0.0693  0.1393
 1436TIP3    H125799   4.222   3.759   5.935 -0.9815  0.3099 -0.4015
 1436TIP3    H225800   4.154   3.891   5.965  0.7976  0.9725  0.8033
 1437TIP3   OH225801   6.802   1.599  12.382 -0.5563  0.4223  0.1077
 1437TIP3    H125802   6.851   1.656  12.324 -1.0039  1.0085  0.3075
 1437TIP3    H225803   6.805   1.643  12.467  0.8285 -0.8356  0.7491
 1438TIP3   OH225804   5.309   3.262  13.339 -0.1918  0.1939  0.0887
 1438TIP3    H125805   5.348   3.291  13.422  2.7549 -1.4428 -0.6406
 1438TIP3    H225806   5.382   3.260  13.278 -1.5182 -2.5099 -1.5216
 1439TIP3   OH225807   6.058   5.527  14.814 -0.2973  0.2044  0.3449
 1439TIP3    H125808   6.077   5.618  14.838 -0.4822  0.1225  0.8085
 1439TIP3    H225809   6.106   5.475  14.879 -1.7318 -0.0092  1.2605
 1440TIP3   OH225810   4.453   1.628   0.727  0.5842  0.6947  0.0587
 1440TIP3    H125811   4.443   1.610   0.821  1.3883 -0.8059 -0.1195
 1440TIP3    H225812   4.544   1.656   0.719  0.7874 -0.0879 -0.3993
 1441TIP3   OH225813   1.811   1.605   5.231 -0.0198  0.6569 -0.1659
 1441TIP3    H125814   1.785   1.514   5.246  0.7440  0.5121  0.2672
 1441TIP3    H225815   1.865   1.602   5.152 -0.4745  0.8240 -0.4899
 1442TIP3   OH225816   1.971   5.208   1.383 -0.2738 -0.1120  0.0113
 1442TIP3    H125817   2.045   5.244   1.334 -0.2870  0.1496  0.1780
 1442TIP3    H225818   2.010   5.146   1.444 -0.1746  0.1312  0.1976
 1443TIP3   OH225819   3.444   1.950  16.166 -0.1020  0.6067 -0.1850
 1443TIP3    H125820   3.364   1.973  16.119 -0.0952  0.5821 -0.2067
 1443TIP3    H225821   3.510   1.940  16.098 -0.6058 -1.6242 -0.3794
 1444TIP3   OH225822   4.969   5.514   2.624  0.3628  0.5160 -0.5501
 1444TIP3    H125823   4.893   5.456   2.622  0.5881  0.1921  0.1504
 1444TIP3    H225824   5.031   5.475   2.561  0.9639 -0.6346  0.7352
 1445TIP3   OH225825   6.774   4.704   2.471  0.1977 -0.1292 -0.2119
 1445TIP3    H125826   6.713   4.733   2.403  0.8744  1.6906 -0.0734
 1445TIP3    H225827   6.783   4.610   2.456 -1.2333 -0.1042 -1.3629
 1446TIP3   OH225828   6.479   4.802  16.742 -0.5189 -0.0570 -0.5980
 1446TIP3    H125829   6.452   4.741  16.673 -2.1333 -2.1710  1.8534
 1446TIP3    H225830   6.574   4.794  16.745 -0.5732 -1.1334 -1.5020
 1447TIP3   OH225831   0.527   3.878  11.594  0.2109  0.0789  0.4754
 1447TIP3    H125832   0.615   3.842  11.610 -0.3521 -0.6311  2.0755
 1447TIP3    H225833   0.542   3.966  11.561  1.5056  0.8534  3.0196
 1448TIP3   OH225834   3.891   3.998   0.038  0.1520  0.3540  0.4223
 1448TIP3    H125835   3.821   3.983   0.102  0.3680  0.1154  0.6054
 1448TIP3    H225836   3.966   3.950   0.073  0.0874 -0.3263 -0.3396
 1449TIP3   OH225837   2.121   2.277   2.761 -0.6145 -0.0271 -0.1191
 1449TIP3    H125838   2.133   2.317   2.675  1.7871  1.8638  1.0490
 1449TIP3    H225839   2.159   2.190   2.753 -0.8555 -0.0476 -1.0939
 1450TIP3   OH225840   5.106   2.855   2.729 -0.2738  0.2747 -0.7702
 1450TIP3    H125841   5.019   2.818   2.715 -0.5830  1.1343 -1.1499
 1450TIP3    H225842   5.166   2.792   2.689 -0.7126 -0.3774 -0.4068
 1451TIP3   OH225843   1.625   0.771   2.770 -0.0448  0.1545 -0.5930
 1451TIP3    H125844   1.608   0.830   2.697 -1.4855 -0.1986 -0.5467
 1451TIP3    H225845   1.568   0.802   2.840  0.5083 -0.1984  0.0267
 1452TIP3   OH225846   6.699   4.014  17.032 -0.3233 -0.1879 -0.5306
 1452TIP3    H125847   6.632   4.034  16.967 -0.9198  0.0172  0.1342
 1452TIP3    H225848   6.763   3.960  16.985 -1.3055 -0.9726 -1.0008
 1453TIP3   OH225849   4.821   6.545  15.970  0.2441 -0.1477  0.3971
 1453TIP3    H125850   4.726   6.532  15.971  0.0837  0.4795 -2.4110
 1453TIP3    H225851   4.856   6.456  15.980 -0.6559 -0.5523  0.0891
 1454TIP3   OH225852   1.521   0.132   3.008 -0.0205  0.3575 -0.0221
 1454TIP3    H125853   1.489   0.126   3.098 -1.3096 -2.3561 -0.6021
 1454TIP3    H225854   1.443   0.152   2.956 -0.1101 -2.2302 -0.9682
 1455TIP3   OH225855   1.529   4.671   4.089  0.2996 -0.0824 -0.1006
 1455TIP3    H125856   1.607   4.630   4.053  0.5542 -0.4124  0.8077
 1455TIP3    H225857   1.563   4.745   4.140 -0.1552  1.3132 -1.7727
 1456TIP3   OH225858   1.698   4.090  14.609  0.1937  0.6649  0.2768
 1456TIP3    H125859   1.661   4.147  14.677  0.4142  1.2622 -0.0985
 1456TIP3    H225860   1.786   4.125  14.593  1.0537 -0.9755  1.4094
 1457TIP3   OH225861   0.686   2.152   0.302 -0.0646 -0.9779  0.0361
 1457TIP3    H125862   0.740   2.225   0.331 -0.1866 -0.2325 -1.6012
 1457TIP3    H225863   0.601   2.168   0.342  0.1034 -0.6126  0.2491
 1458TIP3   OH225864   2.692   6.326   2.757 -0.0666  0.8986 -0.6105
 1458TIP3    H125865   2.723   6.290   2.674 -0.1012  0.3049 -0.3640
 1458TIP3    H225866   2.607   6.366   2.735 -0.8862 -0.7474 -0.5253
 1459TIP3   OH225867   4.350   4.335   0.163  0.4379 -0.6275  0.3100
 1459TIP3    H125868   4.340   4.418   0.210 -0.0916 -1.4173  1.6392
 1459TIP3    H225869   4.299   4.346   0.083 -1.2281 -0.3636  1.3989
 1460TIP3   OH225870   1.587   2.483  12.725 -0.0398  0.0726 -0.6404
 1460TIP3    H125871   1.540   2.560  12.757 -1.5044 -1.2946  0.6085
 1460TIP3    H225872   1.581   2.489  12.630  0.6383  1.9607 -0.5910
 1461TIP3   OH225873   4.853   6.612  15.637  0.6486  0.2363 -0.4025
 1461TIP3    H125874   4.762   6.608  15.666  1.2207 -1.2458  1.2831
 1461TIP3    H225875   4.867   6.703  15.612 -0.4402  1.1615  2.1949
 1462TIP3   OH225876   2.360   0.107   3.238  0.0757  0.0483  0.5251
 1462TIP3    H125877   2.414   0.095   3.315  0.7175  1.8770  0.3821
 1462TIP3    H225878   2.410   0.069   3.166 -0.3233 -1.2476  0.9250
 1463TIP3   OH225879   6.577   3.078  14.401 -0.1263  0.1532  0.0179
 1463TIP3    H125880   6.669   3.102  14.416  0.4888 -1.0792 -1.6350
 1463TIP3    H225881   6.565   2.995  14.447  0.7038 -1.6812 -2.9912
 1464TIP3   OH225882   6.531   0.674   2.287  0.1886 -0.2601 -0.9534
 1464TIP3    H125883   6.521   0.624   2.368 -0.1702 -2.0705 -2.0964
 1464TIP3    H225884   6.624   0.698   2.285 -0.1024  1.0983  0.7222
 1465TIP3   OH225885   0.737   2.339   5.463 -0.1321  0.1209  0.0914
 1465TIP3    H125886   0.674   2.410   5.479  1.7300  1.4274  1.8790
 1465TIP3    H225887   0.684   2.259   5.464 -2.1451  1.3885 -1.0843
 1466TIP3   OH225888   2.593   3.078  17.290 -0.1857  0.4697  0.0021
 1466TIP3    H125889   2.503   3.050  17.271 -0.2471 -0.0707  1.0175
 1466TIP3    H225890   2.642   2.996  17.298  0.3245  0.7550 -0.1954
 1467TIP3   OH225891   2.697   1.434   5.139 -0.0369  0.3649  0.4224
 1467TIP3    H125892   2.756   1.398   5.206 -0.8268 -1.3541  0.2254
 1467TIP3    H225893   2.754   1.484   5.081  0.8518  0.8008  1.6496
 1468TIP3   OH225894   2.712   5.575  14.572  0.1681 -0.0761  0.1545
 1468TIP3    H125895   2.742   5.489  14.603 -0.0770  0.2237  1.2219
 1468TIP3    H225896   2.792   5.619  14.543  0.4240 -0.2734  0.5566
 1469TIP3   OH225897   3.087   1.029  13.344 -0.1334  0.0525 -0.4172
 1469TIP3    H125898   3.182   1.044  13.346  0.1090 -1.4974  1.7266
 1469TIP3    H225899   3.052   1.103  13.295  2.1691  0.7588 -1.0617
 1470TIP3   OH225900   5.218   6.092   2.022  0.0718  0.3886 -0.2996
 1470TIP3    H125901   5.238   6.161   2.085 -3.4816  0.7029  0.5472
 1470TIP3    H225902   5.202   6.014   2.075 -2.5529  0.5531 -0.8123
 1471TIP3   OH225903   1.629   6.668  12.945  0.4762  0.1201 -0.3842
 1471TIP3    H125904   1.675   6.591  12.912  1.4222  0.0450  1.0412
 1471TIP3    H225905   1.681   6.742  12.914  1.5843  0.0357  1.2067
 1472TIP3   OH225906   2.352   5.041  11.443 -0.1469 -0.2039  0.1763
 1472TIP3    H125907   2.368   4.971  11.507 -0.1583  1.1994  1.7588
 1472TIP3    H225908   2.415   5.024  11.373  1.4619 -0.4503  1.6543
 1473TIP3   OH225909   4.472   2.996  15.949  0.6783 -0.0213  0.1283
 1473TIP3    H125910   4.494   3.084  15.979  0.0254  0.2133 -0.0742
 1473TIP3    H225911   4.552   2.945  15.965  1.2253  0.7156 -0.1923
 1474TIP3   OH225912   4.072   2.849   3.528  0.6911  0.3166  0.0387
 1474TIP3    H125913   4.087   2.807   3.443 -0.4878 -1.1131  0.5097
 1474TIP3    H225914   4.104   2.786   3.592 -0.1930  0.5465  0.7192
 1475TIP3   OH225915   3.497   2.823   3.560 -0.0863 -0.0756  0.0589
 1475TIP3    H125916   3.593   2.826   3.564  0.0926 -1.4571 -2.2660
 1475TIP3    H225917   3.476   2.730   3.558 -1.5580  0.2047  1.6318
 1476TIP3   OH225918   3.388   3.422   5.618  0.8549  0.5193  0.1470
 1476TIP3    H125919   3.360   3.440   5.708  0.6489  0.0446  0.1807
 1476TIP3    H225920   3.405   3.508   5.580  1.3214  0.6999  0.7616
 1477TIP3   OH225921   6.171   5.727  15.771  0.3735 -0.8993  0.4533
 1477TIP3    H125922   6.191   5.645  15.726 -1.1586 -1.3089  0.5079
 1477TIP3    H225923   6.079   5.719  15.798 -0.2865  1.4833 -0.9496
 1478TIP3   OH225924   2.014   5.161  15.555 -0.3756 -0.4416 -0.2076
 1478TIP3    H125925   2.002   5.223  15.627  0.0028  2.0750 -2.2365
 1478TIP3    H225926   1.926   5.147  15.520 -0.3110 -0.0135 -0.5533
 1479TIP3   OH225927   0.273   0.749   3.730  0.2072  0.3712  0.6030
 1479TIP3    H125928   0.368   0.744   3.746  0.5987 -2.7946 -2.0332
 1479TIP3    H225929   0.260   0.832   3.684  2.3039 -0.7145 -2.1023
 1480TIP3   OH225930   1.865   2.271  15.108  0.1604 -0.3424  0.4515
 1480TIP3    H125931   1.860   2.230  15.194 -0.4517 -0.4412  0.3714
 1480TIP3    H225932   1.806   2.347  15.114  1.1496  0.4262  0.5428
 1481TIP3   OH225933   5.857   4.364   0.789 -0.3158  0.3069  0.1063
 1481TIP3    H125934   5.924   4.308   0.750 -0.2431 -1.1808  2.2395
 1481TIP3    H225935   5.786   4.365   0.726  0.8293  0.1255 -1.2175
 1482TIP3   OH225936   2.999   2.289  14.854  0.5465  0.2330 -0.7479
 1482TIP3    H125937   3.074   2.306  14.910  0.7108 -0.1036 -0.8637
 1482TIP3    H225938   2.965   2.204  14.884 -1.0326  1.3419  0.6733
 1483TIP3   OH225939   1.927   1.505  14.405  0.9528  0.2783  0.3087
 1483TIP3    H125940   1.925   1.568  14.334  1.6480  2.0920  1.8392
 1483TIP3    H225941   1.999   1.535  14.461  0.2989 -0.9814  1.8662
 1484TIP3   OH225942   1.362   4.814  16.045 -0.0819  0.6263  0.3301
 1484TIP3    H125943   1.407   4.832  15.963 -1.1551 -1.7209 -0.8286
 1484TIP3    H225944   1.420   4.754  16.092  0.7804  2.3870  1.5549
 1485TIP3   OH225945   4.088   6.384   5.886  0.3604  0.0972 -0.4697
 1485TIP3    H125946   4.061   6.395   5.977  0.3343 -0.0596 -0.4592
 1485TIP3    H225947   4.015   6.338   5.845  1.6178 -2.4533  0.0992
 1486TIP3   OH225948   2.789   2.123   5.776  0.1627 -0.1401  0.4179
 1486TIP3    H125949   2.741   2.146   5.855 -0.0008  0.1175  0.2488
 1486TIP3    H225950   2.729   2.146   5.705  0.1370 -0.7776  0.2306
 1487TIP3   OH225951   1.326   0.815  11.386 -1.0008  0.4032 -0.0893
 1487TIP3    H125952   1.338   0.755  11.459 -0.4478 -2.1707 -2.1981
 1487TIP3    H225953   1.232   0.831  11.383 -1.1832 -0.5729  0.3542
 1488TIP3   OH225954   1.966   5.136   1.961  0.3431  0.3099 -0.7399
 1488TIP3    H125955   1.936   5.046   1.959  1.2772 -0.0064 -0.7545
 1488TIP3    H225956   1.903   5.182   2.017 -0.4377 -0.2342 -1.1781
 1489TIP3   OH225957   0.324   6.134  14.500  0.0703 -0.0742 -0.4996
 1489TIP3    H125958   0.344   6.048  14.537 -1.1888 -0.3858 -0.5002
 1489TIP3    H225959   0.366   6.196  14.558 -0.4540 -0.6296  0.4940
 1490TIP3   OH225960   5.877   4.754   3.956 -0.1341 -0.0683  0.8785
 1490TIP3    H125961   5.914   4.776   3.871  0.4634 -0.7835  0.9515
 1490TIP3    H225962   5.850   4.663   3.949 -1.0594  0.1816  1.1197
 1491TIP3   OH225963   1.768   5.425  10.618 -0.0350 -0.2191  0.4087
 1491TIP3    H125964   1.702   5.395  10.681  0.6029 -0.5847  0.9188
 1491TIP3    H225965   1.825   5.349  10.605  0.9649  0.4333  0.8734
 1492TIP3   OH225966   1.982   0.631  13.160 -0.1016 -0.6567  0.1223
 1492TIP3    H125967   2.028   0.713  13.179 -2.0853  0.1904  1.4660
 1492TIP3    H225968   1.926   0.653  13.086  0.2502 -1.1589 -0.2959
 1493TIP3   OH225969   1.200   2.504   4.380 -0.0315  0.4127 -0.1078
 1493TIP3    H125970   1.272   2.441   4.367  0.6206  1.1141  0.0464
 1493TIP3    H225971   1.243   2.589   4.377 -0.4070  0.7697  2.7877
 1494TIP3   OH225972   2.343   3.627  16.453  0.1095  0.5532  0.3465
 1494TIP3    H125973   2.344   3.614  16.548  2.7996 -0.3420  0.2259
 1494TIP3    H225974   2.360   3.720  16.441  2.3457  0.2001  0.6881
 1495TIP3   OH225975   5.012   5.013  14.813  0.1603  0.0473  0.4253
 1495TIP3    H125976   5.052   5.075  14.752  0.5376 -0.1803  0.4402
 1495TIP3    H225977   5.068   5.016  14.891 -0.1117  0.0676  0.6206
 1496TIP3   OH225978   5.002   6.335   0.201  0.0821  0.2841 -0.2473
 1496TIP3    H125979   5.080   6.375   0.240  0.3141 -1.1567  0.8221
 1496TIP3    H225980   4.928   6.374   0.247  0.1452  1.7218 -1.3253
 1497TIP3   OH225981   2.658   0.424   5.017 -0.3120 -0.5059  0.7733
 1497TIP3    H125982   2.687   0.491   4.955 -0.3299  0.5659  1.9167
 1497TIP3    H225983   2.614   0.358   4.963  0.5479 -0.0685 -0.4677
 1498TIP3   OH225984   0.236   0.977  13.788 -0.2868 -0.4173  0.3584
 1498TIP3    H125985   0.262   0.916  13.857  2.3097 -0.2248 -0.4104
 1498TIP3    H225986   0.297   1.050  13.796 -0.3380 -0.1163 -1.7548
 1499TIP3   OH225987   5.420   1.565  15.057  0.1135 -0.1649 -0.1178
 1499TIP3    H125988   5.414   1.504  15.130 -4.9168  1.4405  0.9649
 1499TIP3    H225989   5.403   1.512  14.980  3.9032 -1.5635 -0.1036
 1500TIP3   OH225990   1.926   0.250   4.693 -0.0043 -0.2794  0.4728
 1500TIP3    H125991   1.948   0.330   4.741 -0.2137  0.5653 -0.8015
 1500TIP3    H225992   1.838   0.266   4.659 -0.0244 -1.0320  0.1676
 1501TIP3   OH225993   0.691   0.578   2.734  0.3052 -0.5139  0.0549
 1501TIP3    H125994   0.673   0.640   2.805 -0.0127  0.2407 -0.6675
 1501TIP3    H225995   0.708   0.634   2.658  4.0522 -1.1662  0.2843
 1502TIP3   OH225996   0.420   0.620  15.336  0.3085  0.2163 -0.1124
 1502TIP3    H125997   0.354   0.551  15.349  1.2793 -0.9462 -1.2225
 1502TIP3    H225998   0.370   0.693  15.299 -0.6834  0.0179  0.7923
 1503TIP3   OH225999   5.206   0.588   0.134  0.2920  0.1954  0.5063
 1503TIP3    H126000   5.168   0.524   0.194 -0.5783 -0.6097 -0.8663
 1503TIP3    H226001   5.155   0.668   0.150  1.0440  0.4151  1.8656
 1504TIP3   OH226002   0.087   2.224   3.792 -0.1639 -0.6412 -0.1793
 1504TIP3    H126003   0.107   2.132   3.773 -1.0822 -0.7800 -0.4767
 1504TIP3    H226004   0.043   2.255   3.713 -0.0548 -0.0091  0.0116
 1505TIP3   OH226005   1.289   2.167  14.591  0.3499  0.2403  0.1281
 1505TIP3    H126006   1.234   2.107  14.642  0.3753  0.0755 -0.0416
 1505TIP3    H226007   1.281   2.251  14.637 -0.4223  0.3319 -0.1703
 1506TIP3   OH226008   0.465   6.574   3.012  0.1651  0.3324 -0.1605
 1506TIP3    H126009   0.483   6.642   2.947  0.8542  0.7317  0.4404
 1506TIP3    H226010   0.547   6.526   3.020  1.7617  3.4621  4.1123
 1507TIP3   OH226011   4.872   4.769  13.224 -0.0550 -0.2041 -0.3710
 1507TIP3    H126012   4.813   4.829  13.177 -1.4354 -1.0411  0.2583
 1507TIP3    H226013   4.816   4.697  13.250  0.5900  0.4087  2.8789
 1508TIP3   OH226014   1.163   2.435   2.192  0.2851  0.4355 -0.1759
 1508TIP3    H126015   1.238   2.377   2.210  0.3696  0.5583 -0.1343
 1508TIP3    H226016   1.167   2.501   2.261 -0.3035  0.0132  0.2680
 1509TIP3   OH226017   4.640   1.656  10.609 -0.0781 -0.1478  0.4099
 1509TIP3    H126018   4.719   1.638  10.660 -0.1167  0.7531  0.8010
 1509TIP3    H226019   4.664   1.731  10.554 -0.5430 -0.1009  0.2711
 1510TIP3   OH226020   0.938   5.457  14.543  0.2697  0.1724  0.1487
 1510TIP3    H126021   0.963   5.504  14.622  0.9195  0.2305 -0.0885
 1510TIP3    H226022   1.018   5.454  14.490 -0.1445  0.0851 -0.4786
 1511TIP3   OH226023   2.922   2.278  12.050  0.0821 -0.0295  0.4129
 1511TIP3    H126024   2.976   2.263  12.127  0.8465  1.0807  0.1025
 1511TIP3    H226025   2.860   2.346  12.076 -2.1996 -2.3263  1.2464
 1512TIP3   OH226026   6.730   0.359   2.523 -0.0311 -0.1248 -0.4849
 1512TIP3    H126027   6.822   0.385   2.523  0.2399 -1.0649 -0.3991
 1512TIP3    H226028   6.724   0.292   2.591 -0.9072  0.3563 -0.0652
 1513TIP3   OH226029   5.995   0.167   3.456  0.4907 -0.1712  0.2733
 1513TIP3    H126030   5.985   0.078   3.420  0.4080 -1.2854  2.9587
 1513TIP3    H226031   6.066   0.159   3.520  0.1926  1.6199  0.8392
 1514TIP3   OH226032   1.916   1.523  13.873  0.0576  0.3519  0.2135
 1514TIP3    H126033   1.937   1.467  13.948 -1.5825  0.0683  0.4856
 1514TIP3    H226034   1.874   1.600  13.912 -0.0048  0.6018 -0.3472
 1515TIP3   OH226035   4.935   2.345   1.344  0.1648  1.3557 -0.1097
 1515TIP3    H126036   4.861   2.396   1.375  0.6655  1.4815  0.8901
 1515TIP3    H226037   4.991   2.408   1.298  0.6258  1.6527  0.8488
 1516TIP3   OH226038   4.952   0.937   1.161  0.0394 -0.3231 -0.1804
 1516TIP3    H126039   4.956   0.842   1.154  0.2012 -0.4235  1.3048
 1516TIP3    H226040   4.894   0.963   1.089  0.0427 -1.5248 -0.6373
 1517TIP3   OH226041   2.244   5.562   5.948  0.3155 -0.2696 -0.5715
 1517TIP3    H126042   2.305   5.596   5.882 -0.4684 -1.8149 -2.1249
 1517TIP3    H226043   2.159   5.566   5.906 -0.0091 -2.5768 -0.1832
 1518TIP3   OH226044   5.488   3.436   2.645 -0.4550  0.4981 -0.1316
 1518TIP3    H126045   5.493   3.523   2.605 -1.9844  0.7582  0.2114
 1518TIP3    H226046   5.578   3.417   2.673  0.2342  1.1948 -1.8132
 1519TIP3   OH226047   3.673   6.441   4.366  0.3630 -0.5973 -0.4894
 1519TIP3    H126048   3.743   6.435   4.301  0.6222 -0.1254 -0.2560
 1519TIP3    H226049   3.662   6.351   4.398 -0.6000 -1.0476 -2.0438
 1520TIP3   OH226050   0.326   2.161  13.968 -0.1724 -0.5794 -0.4539
 1520TIP3    H126051   0.271   2.169  13.890  1.1539 -0.5455 -1.3941
 1520TIP3    H226052   0.274   2.107  14.028 -1.4949 -0.0204 -1.0795
 1521TIP3   OH226053   4.660   6.796   0.152 -0.0478 -0.2723 -0.3498
 1521TIP3    H126054   4.612   6.809   0.070 -1.4085 -1.3467  0.2406
 1521TIP3    H226055   4.751   6.787   0.126 -0.3556  0.2986 -1.6579
 1522TIP3   OH226056   4.053   1.991  12.141 -0.1422 -0.0327 -0.3024
 1522TIP3    H126057   4.060   1.922  12.208  2.1999 -0.4149 -0.8853
 1522TIP3    H226058   4.018   1.945  12.064 -2.1570  0.2572  0.4042
 1523TIP3   OH226059   5.525   6.301  12.352  0.3141 -0.1245  0.0008
 1523TIP3    H126060   5.579   6.226  12.376  0.1134 -0.2820 -0.0421
 1523TIP3    H226061   5.563   6.333  12.271  0.1766 -0.4000 -0.1724
 1524TIP3   OH226062   6.355   0.794   5.648  0.3000  0.4322  0.2659
 1524TIP3    H126063   6.268   0.821   5.617 -0.3251 -0.3349  1.2971
 1524TIP3    H226064   6.416   0.850   5.600 -0.6908  0.0726 -1.4606
 1525TIP3   OH226065   0.420   0.257  15.152  0.5689 -0.6970  0.0495
 1525TIP3    H126066   0.356   0.187  15.135  0.7859 -0.6521 -0.9913
 1525TIP3    H226067   0.472   0.262  15.072  0.8179  0.3890  0.2680
 1526TIP3   OH226068   0.507   4.408  13.624  0.5146  0.4018 -0.0954
 1526TIP3    H126069   0.536   4.458  13.700  0.0568  2.1080 -1.0178
 1526TIP3    H226070   0.569   4.431  13.555 -0.7257  1.0595 -1.0089
 1527TIP3   OH226071   3.093   1.099  16.276  0.2307  0.5468 -0.0288
 1527TIP3    H126072   3.056   1.177  16.319  1.7594  0.6762  1.0803
 1527TIP3    H226073   3.017   1.056  16.237 -0.8559  1.7724  0.6738
 1528TIP3   OH226074   0.849   3.899  12.831  0.2453  0.2138 -0.4263
 1528TIP3    H126075   0.824   3.828  12.890  0.6711 -0.1323 -0.6572
 1528TIP3    H226076   0.934   3.929  12.864  0.5067 -0.0119 -0.8849
 1529TIP3   OH226077   2.837   0.798   5.939 -0.0076  0.1752 -0.3868
 1529TIP3    H126078   2.794   0.746   6.007  0.9191 -1.2372 -0.8571
 1529TIP3    H226079   2.816   0.888   5.962  0.8467 -0.2194  2.1914
 1530TIP3   OH226080   1.152   1.760   0.526 -0.5063 -0.1038 -0.3333
 1530TIP3    H126081   1.067   1.791   0.556  0.3433  0.0920  1.9590
 1530TIP3    H226082   1.154   1.667   0.548 -0.7341 -0.4788 -1.8313
 1531TIP3   OH226083   1.917   2.432   2.114  0.2341 -0.0427 -0.5576
 1531TIP3    H126084   1.832   2.430   2.069  0.7916 -0.1489 -1.6334
 1531TIP3    H226085   1.981   2.429   2.043  1.1481 -1.1628  0.2928
 1532TIP3   OH226086   0.188   0.155  14.057  0.0275  0.7475  1.2450
 1532TIP3    H126087   0.264   0.165  13.999 -1.8070  1.2913 -1.1468
 1532TIP3    H226088   0.222   0.174  14.144  2.3638  2.2979  0.0467
 1533TIP3   OH226089   5.147   2.016   4.510  0.0435  0.0968 -0.4584
 1533TIP3    H126090   5.057   2.049   4.514  0.4478  1.1667 -0.0560
 1533TIP3    H226091   5.180   2.047   4.426  0.6065  1.1905  0.1648
 1534TIP3   OH226092   4.589   0.682   2.787 -0.1637  0.3477  0.1439
 1534TIP3    H126093   4.607   0.744   2.858 -0.3139 -1.3541  1.6927
 1534TIP3    H226094   4.674   0.645   2.765 -0.3579 -0.3438  0.5685
 1535TIP3   OH226095   5.767   1.113   2.492  0.4861 -0.7143  0.1827
 1535TIP3    H126096   5.841   1.052   2.485  0.9847  0.1644 -2.5533
 1535TIP3    H226097   5.801   1.184   2.547  1.8854 -0.0437 -1.5171
 1536TIP3   OH226098   3.554   6.418  14.480  0.4852  0.1183  0.2624
 1536TIP3    H126099   3.486   6.440  14.544 -1.2425  1.3912 -1.9759
 1536TIP3    H226100   3.571   6.499  14.434  1.9596 -0.7242 -0.7215
 1537TIP3   OH226101   0.543   2.484   2.876  0.0552 -0.1688  0.0058
 1537TIP3    H126102   0.496   2.475   2.793 -0.5514 -1.6622  0.5032
 1537TIP3    H226103   0.635   2.486   2.852 -0.0908 -1.2640 -0.6525
 1538TIP3   OH226104   3.057   4.444  16.736 -0.0111  0.2626 -0.3589
 1538TIP3    H126105   3.140   4.483  16.709  0.7939 -1.4157 -0.3614
 1538TIP3    H226106   3.052   4.362  16.686 -0.9521 -0.3637  0.7427
 1539TIP3   OH226107   2.706   2.131   3.626  0.0387  0.0043 -0.7717
 1539TIP3    H126108   2.695   2.117   3.720  1.5086  0.3594 -0.5397
 1539TIP3    H226109   2.796   2.161   3.616  0.4276 -1.5820 -2.4592
 1540TIP3   OH226110   4.126   5.095  15.544  0.4300  0.1052 -0.1982
 1540TIP3    H126111   4.207   5.138  15.571 -0.5088  2.2618 -0.7293
 1540TIP3    H226112   4.076   5.086  15.625  0.9530 -0.7236  0.0396
 1541TIP3   OH226113   5.495   4.428   6.074  0.1001  0.0619  0.1607
 1541TIP3    H126114   5.474   4.347   6.028 -0.4705  0.5144 -0.3782
 1541TIP3    H226115   5.445   4.496   6.029  1.5680  0.9309 -0.2255
 1542TIP3   OH226116   6.705   6.317   4.868 -0.3188 -0.1263 -0.2319
 1542TIP3    H126117   6.621   6.273   4.879  0.2013 -0.9171  0.6507
 1542TIP3    H226118   6.699   6.360   4.783 -0.1939 -3.3723 -1.9347
 1543TIP3   OH226119   1.446   0.988   6.647  0.7734  0.3157  0.0423
 1543TIP3    H126120   1.504   1.028   6.582 -0.1316 -0.0768 -1.0204
 1543TIP3    H226121   1.417   1.062   6.701 -0.4137  1.0185 -1.5376
 1544TIP3   OH226122   5.356   2.296  16.220 -0.3610  0.4145  0.2170
 1544TIP3    H126123   5.362   2.223  16.157  0.8217  1.1630 -0.5416
 1544TIP3    H226124   5.321   2.255  16.299 -3.5279 -0.2508 -1.4162
 1545TIP3   OH226125   3.394   3.983   6.420  0.4317 -0.5714 -1.1388
 1545TIP3    H126126   3.340   3.943   6.488  1.6433  0.4719  0.4699
 1545TIP3    H226127   3.451   3.913   6.390  0.9483 -0.6553  0.0193
 1546TIP3   OH226128   0.097   2.101  13.626  0.1878  0.2564  0.6942
 1546TIP3    H126129   0.032   2.128  13.691  0.2340  1.2115  0.3555
 1546TIP3    H226130   0.135   2.183  13.594 -0.4193 -0.1415 -1.1349
 1547TIP3   OH226131   4.953   1.402   5.031 -0.4404 -0.3308  0.3693
 1547TIP3    H126132   4.901   1.466   4.983 -0.6639  0.3023  1.4366
 1547TIP3    H226133   4.946   1.322   4.979  0.3321  0.6486 -1.2941
 1548TIP3   OH226134   6.651   1.070   4.505  0.2605 -0.0224 -0.2303
 1548TIP3    H126135   6.677   1.068   4.596  0.5404  0.2900 -0.3062
 1548TIP3    H226136   6.704   1.139   4.465 -1.7763  1.6977 -0.0363
 1549TIP3   OH226137   0.770   6.144  11.748  0.1984 -0.2511  0.3059
 1549TIP3    H126138   0.751   6.072  11.807 -1.0032  0.0693  0.3085
 1549TIP3    H226139   0.787   6.219  11.805  0.3450 -0.2578  0.2729
 1550TIP3   OH226140   3.016   1.823   5.928  0.8382  0.6232 -0.1257
 1550TIP3    H126141   3.001   1.772   6.007  2.7765  1.4066  0.7683
 1550TIP3    H226142   3.034   1.912   5.959 -1.8190  1.7497 -1.6269
 1551TIP3   OH226143   1.894   3.342   1.585 -0.2935  0.1876  0.3404
 1551TIP3    H126144   1.875   3.290   1.507  1.5175  0.7501 -0.5027
 1551TIP3    H226145   1.842   3.421   1.575 -1.3967 -0.4951  0.5739
 1552TIP3   OH226146   2.353   5.228   0.706  0.3538 -0.4006  0.0613
 1552TIP3    H126147   2.304   5.182   0.773 -0.7786  0.8848  0.1219
 1552TIP3    H226148   2.444   5.200   0.719  0.0634 -0.5517  1.7905
 1553TIP3   OH226149   3.763   2.075  15.756 -0.6826  0.6883 -0.1655
 1553TIP3    H126150   3.813   2.125  15.691 -3.5683  1.4696 -1.9020
 1553TIP3    H226151   3.756   1.987  15.719 -0.7250  0.6227 -0.0011
 1554TIP3   OH226152   1.120   5.499   5.925 -0.1783  0.6799 -0.3602
 1554TIP3    H126153   1.090   5.551   5.850 -0.4136  0.1534 -0.6354
 1554TIP3    H226154   1.132   5.563   5.995 -0.9219  1.0407 -0.5560
 1555TIP3   OH226155   3.450   1.237   2.354 -0.1840 -0.4409  0.4675
 1555TIP3    H126156   3.481   1.225   2.265 -0.5042  0.3390  0.2467
 1555TIP3    H226157   3.372   1.291   2.345 -0.5206 -0.8049  1.1759
 1556TIP3   OH226158   5.131   5.262   0.506  0.7272  0.4658 -0.2433
 1556TIP3    H126159   5.142   5.222   0.420 -0.3527 -1.0524  0.3049
 1556TIP3    H226160   5.096   5.192   0.561 -0.1960  1.8675  1.0069
 1557TIP3   OH226161   4.730   0.624  15.314  0.7343 -0.5638 -0.1805
 1557TIP3    H126162   4.745   0.598  15.405  1.0768 -1.4556 -0.4931
 1557TIP3    H226163   4.765   0.713  15.309  0.8795 -0.5776  0.5096
 1558TIP3   OH226164   5.512   5.469   1.128 -0.6660  0.1502  0.5016
 1558TIP3    H126165   5.487   5.500   1.041 -0.6167  1.3997  0.9256
 1558TIP3    H226166   5.581   5.404   1.111 -0.8029  0.2299 -0.3941
 1559TIP3   OH226167   4.793   4.064   4.881 -0.5003  0.4558 -0.4273
 1559TIP3    H126168   4.727   3.997   4.863  1.1763 -1.2220 -0.5252
 1559TIP3    H226169   4.814   4.052   4.974  0.6470  0.0483 -0.7329
 1560TIP3   OH226170   1.253   0.378   6.449  0.4478 -0.1973 -0.4474
 1560TIP3    H126171   1.206   0.311   6.401 -0.2354  0.4627 -0.7226
 1560TIP3    H226172   1.200   0.392   6.528  0.0477  0.7020 -0.8617
 1561TIP3   OH226173   4.781   1.333  11.816 -0.5100  0.2439  0.1934
 1561TIP3    H126174   4.727   1.267  11.859 -0.4810  0.2917  0.3016
 1561TIP3    H226175   4.724   1.409  11.808 -0.1310  0.6475  1.2426
 1562TIP3   OH226176   4.432   1.389   5.020 -0.4119 -0.1050  0.5877
 1562TIP3    H126177   4.338   1.397   5.007 -0.4595  1.1345  1.6476
 1562TIP3    H226178   4.466   1.477   5.006  0.6839 -0.6941 -0.5116
 1563TIP3   OH226179   1.925   6.344  13.465  0.2131 -0.2319  0.5656
 1563TIP3    H126180   1.836   6.378  13.454  0.4035  0.2925  0.6208
 1563TIP3    H226181   1.914   6.267  13.521 -0.2315 -0.2894  0.4030
 1564TIP3   OH226182   0.691   5.563  14.389  0.2956  0.3020 -0.0223
 1564TIP3    H126183   0.652   5.524  14.467  1.8152 -0.8423  0.2179
 1564TIP3    H226184   0.746   5.634  14.423  0.7917 -0.0614 -0.0531
 1565TIP3   OH226185   0.895   5.271   2.654  0.4814  0.4139 -0.5198
 1565TIP3    H126186   0.869   5.342   2.712 -0.9758 -0.0542 -0.5799
 1565TIP3    H226187   0.983   5.295   2.623  0.7706  1.2434  0.9345
 1566TIP3   OH226188   4.972   1.185  13.763  0.2619  0.1170 -0.6473
 1566TIP3    H126189   5.020   1.152  13.839  0.8163  1.6445 -0.3090
 1566TIP3    H226190   4.965   1.110  13.704  2.6238 -0.2719 -0.4805
 1567TIP3   OH226191   2.075   4.251  13.912 -0.2536  0.6704 -0.9437
 1567TIP3    H126192   1.996   4.285  13.871  0.3568  0.2235 -2.5426
 1567TIP3    H226193   2.139   4.322  13.903  0.1155  0.2712 -1.4935
 1568TIP3   OH226194   0.399   5.235   3.992  0.2502  0.2272 -0.3996
 1568TIP3    H126195   0.379   5.267   4.080 -0.4782  2.2433 -1.2678
 1568TIP3    H226196   0.341   5.160   3.980  0.4641 -0.1668  0.8837
 1569TIP3   OH226197   3.836   1.978  14.021 -0.5453 -0.1890  0.7873
 1569TIP3    H126198   3.748   1.963  14.056 -0.0200 -1.7667  1.4565
 1569TIP3    H226199   3.877   2.037  14.084 -1.2625  0.9477  0.2244
 1570TIP3   OH226200   5.565   1.908  13.162 -0.4099 -0.7773 -0.0918
 1570TIP3    H126201   5.603   1.985  13.120 -2.2978 -0.0823 -0.5705
 1570TIP3    H226202   5.605   1.906  13.249  0.6813 -0.0571 -0.5597
 1571TIP3   OH226203   4.282   1.492   4.805 -0.1376 -0.3345  0.1351
 1571TIP3    H126204   4.274   1.523   4.715  0.3557  1.7577  0.7931
 1571TIP3    H226205   4.302   1.570   4.856 -0.2057 -1.5291  2.0445
 1572TIP3   OH226206   5.544   6.764  11.426 -0.6068 -0.3686 -0.4202
 1572TIP3    H126207   5.550   6.732  11.336 -0.0731  1.6021 -1.0868
 1572TIP3    H226208   5.623   6.730  11.468  0.5049  0.9304 -1.4145
 1573TIP3   OH226209   5.466   5.612  16.013  0.3140 -0.4325 -0.0730
 1573TIP3    H126210   5.525   5.676  16.055  0.4544  0.2437 -1.2761
 1573TIP3    H226211   5.482   5.530  16.060  1.6453 -0.0599  0.1413
 1574TIP3   OH226212   5.770   2.403  14.296  0.2695 -0.0233 -0.2510
 1574TIP3    H126213   5.825   2.430  14.369 -0.5467 -1.8438  1.0861
 1574TIP3    H226214   5.831   2.377  14.227  1.0966 -0.6504  0.6997
 1575TIP3   OH226215   4.521   1.376  12.522  0.1935 -0.3140  0.2519
 1575TIP3    H126216   4.523   1.319  12.445 -2.9624  2.4851 -2.0611
 1575TIP3    H226217   4.430   1.377  12.549  0.2178  3.1635  0.5173
 1576TIP3   OH226218   1.977   0.903  17.139 -0.3529  0.4997 -0.1981
 1576TIP3    H126219   2.068   0.925  17.158 -0.6768  1.1209  0.6468
 1576TIP3    H226220   1.982   0.838  17.069  0.7610  0.0130  0.3352
 1577TIP3   OH226221   4.338   2.963  16.683 -0.1272 -0.7702  0.1211
 1577TIP3    H126222   4.332   2.899  16.755 -1.5312 -1.2256 -0.3863
 1577TIP3    H226223   4.263   2.944  16.628  0.2492  0.4020 -0.8163
 1578TIP3   OH226224   4.571   5.552  13.161 -1.0345  0.6291 -0.4550
 1578TIP3    H126225   4.489   5.508  13.141  0.0308 -1.4845 -0.2803
 1578TIP3    H226226   4.607   5.575  13.075 -0.6803 -0.5452 -0.6214
 1579TIP3   OH226227   5.225   1.389  16.527  0.5358  0.5798  0.0291
 1579TIP3    H126228   5.242   1.297  16.546 -1.9147  0.1165  0.0984
 1579TIP3    H226229   5.247   1.435  16.608  1.8681  0.0876 -0.0436
 1580TIP3   OH226230   6.336   0.450  10.669  0.0988  0.0577 -0.3481
 1580TIP3    H126231   6.334   0.358  10.694 -0.1746  0.3921  0.8949
 1580TIP3    H226232   6.428   0.467  10.646  0.3568 -0.2737  0.4188
 1581TIP3   OH226233   4.594   5.961   0.220  0.4724  0.2653 -0.1426
 1581TIP3    H126234   4.610   5.874   0.259  1.5923  1.1173  1.3536
 1581TIP3    H226235   4.633   5.956   0.133  0.4586 -0.7622 -0.0982
 1582TIP3   OH226236   0.757   5.749  12.923  0.2593 -0.3311 -0.4210
 1582TIP3    H126237   0.789   5.769  12.835 -0.4118 -0.3680 -0.6752
 1582TIP3    H226238   0.675   5.797  12.931 -0.7796 -2.0380 -0.6134
 1583TIP3   OH226239   1.772   3.911   3.397 -0.2680 -0.3184 -0.1052
 1583TIP3    H126240   1.708   3.974   3.364 -0.8062 -0.7252  0.1450
 1583TIP3    H226241   1.739   3.826   3.367 -0.6813 -0.6803  1.3366
 1584TIP3   OH226242   4.573   0.958  11.495  0.1713 -0.1534  0.1428
 1584TIP3    H126243   4.500   0.975  11.555 -0.6982 -1.3515 -0.5482
 1584TIP3    H226244   4.594   0.866  11.509  1.6982  0.2480  0.4797
 1585TIP3   OH226245   0.075   6.181  13.178  0.3776 -0.3903  0.5754
 1585TIP3    H126246   0.008   6.182  13.247  0.2189 -3.2048  0.4871
 1585TIP3    H226247   0.072   6.093  13.142  1.8631  0.4479 -1.7063
 1586TIP3   OH226248   3.664   1.236  12.214 -0.5496  0.0991 -0.1962
 1586TIP3    H126249   3.669   1.190  12.298 -0.4835  0.2224 -0.1318
 1586TIP3    H226250   3.593   1.193  12.167  0.1895 -0.7564 -0.5534
 1587TIP3   OH226251   5.271   2.315  15.037  0.2908  0.3031 -0.5529
 1587TIP3    H126252   5.347   2.358  14.998  0.5011  1.1290  0.7725
 1587TIP3    H226253   5.293   2.304  15.129 -0.2298 -1.6138 -0.6416
 1588TIP3   OH226254   4.536   1.647  14.046  0.3547  0.4634 -0.1967
 1588TIP3    H126255   4.529   1.555  14.073  0.7264  0.6918  0.6679
 1588TIP3    H226256   4.449   1.683  14.061 -0.0013  0.0705 -1.2315
 1589TIP3   OH226257   6.376   3.047   5.504 -0.5175  0.7714  0.1573
 1589TIP3    H126258   6.283   3.062   5.485 -0.4929  0.7063 -0.0095
 1589TIP3    H226259   6.408   3.133   5.531 -0.9423  0.5104  1.5468
 1590TIP3   OH226260   1.543   1.819   6.491 -0.2531 -0.9169  0.5555
 1590TIP3    H126261   1.524   1.764   6.415 -0.0170 -1.9036  1.2065
 1590TIP3    H226262   1.639   1.828   6.490 -0.3375  0.0434  0.0706
 1591TIP3   OH226263   0.262   3.880  14.906  0.4314  0.8156 -0.2067
 1591TIP3    H126264   0.224   3.802  14.866  0.1939  0.3742  0.8646
 1591TIP3    H226265   0.219   3.954  14.862 -0.7433  0.3269  0.1079
 1592TIP3   OH226266   2.418   4.721   1.278 -0.7633  0.1936 -0.3029
 1592TIP3    H126267   2.405   4.805   1.321 -0.0908 -0.0810  0.4570
 1592TIP3    H226268   2.358   4.662   1.324 -0.4065  0.0075 -0.0769
 1593TIP3   OH226269   3.447   3.386  10.692  0.2014 -0.3605  0.3069
 1593TIP3    H126270   3.429   3.460  10.750  2.0860 -1.3516  2.2157
 1593TIP3    H226271   3.519   3.415  10.637 -0.6723  0.0832 -0.6135
 1594TIP3   OH226272   4.241   4.278   2.372  0.8863 -1.0133 -0.4212
 1594TIP3    H126273   4.152   4.312   2.376  1.2802  0.1836 -1.6199
 1594TIP3    H226274   4.263   4.279   2.279  2.1194 -1.4037 -0.1402
 1595TIP3   OH226275   0.117   4.702  13.921 -0.3915 -0.2763 -0.3109
 1595TIP3    H126276   0.210   4.715  13.905 -0.5716  1.8489  0.2693
 1595TIP3    H226277   0.079   4.688  13.835  0.1373  1.0542 -0.7587
 1596TIP3   OH226278   0.019   5.167   2.617 -0.1847  0.1286  0.0951
 1596TIP3    H126279   0.104   5.206   2.597  0.7450 -0.5755  2.4984
 1596TIP3    H226280  -0.037   5.241   2.641  0.7546  0.2966  1.8586
 1597TIP3   OH226281   2.979   0.926  10.447  0.2084 -0.2086  0.1343
 1597TIP3    H126282   2.992   0.858  10.513 -0.0445  0.8722  1.3235
 1597TIP3    H226283   2.887   0.919  10.423  0.5849 -1.4059 -1.0289
 1598TIP3   OH226284   5.033   2.190   2.404  0.6742  0.2433 -0.0319
 1598TIP3    H126285   4.974   2.122   2.435 -0.8332  1.3936 -0.3284
 1598TIP3    H226286   5.075   2.224   2.483  0.8177 -0.4348  0.1922
 1599TIP3   OH226287   1.465   6.764  11.001  0.0894 -0.3273  0.4401
 1599TIP3    H126288   1.458   6.684  10.949 -0.1115 -1.2060  1.7882
 1599TIP3    H226289   1.531   6.743  11.068 -0.5043  0.3676  1.2508
 1600TIP3   OH226290   6.184   3.974  14.470  0.5092  0.1812  0.0716
 1600TIP3    H126291   6.267   4.002  14.433 -0.8870  1.2473 -2.4045
 1600TIP3    H226292   6.173   3.884  14.440  1.7145 -0.6903  2.1571
 1601TIP3   OH226293   2.228   3.330  16.446  0.0041 -0.9169  0.1890
 1601TIP3    H126294   2.258   3.421  16.442 -4.1255  0.5074 -0.6886
 1601TIP3    H226295   2.272   3.287  16.373  0.7290  0.7991 -0.4059
 1602TIP3   OH226296   5.781   4.311   5.513 -0.4285  0.1707  0.4940
 1602TIP3    H126297   5.817   4.278   5.594  0.0539 -1.4496 -0.3649
 1602TIP3    H226298   5.701   4.358   5.539 -0.3018 -0.3726  1.8707
 1603TIP3   OH226299   3.468   0.445  12.050 -0.1273  0.4022  0.1234
 1603TIP3    H126300   3.436   0.504  11.982 -0.5370 -0.2972 -0.3011
 1603TIP3    H226301   3.394   0.434  12.109  0.1431  0.7966  0.5387
 1604TIP3   OH226302   5.030   1.244   0.471  0.1768  0.6580  0.1256
 1604TIP3    H126303   5.031   1.209   0.382  1.8136 -1.1943  0.8486
 1604TIP3    H226304   4.983   1.327   0.463 -3.4494 -1.4343 -1.7033
 1605TIP3   OH226305   6.181   1.868  16.452 -0.1186 -0.4444 -0.5012
 1605TIP3    H126306   6.217   1.821  16.377  1.7721  1.6891 -0.9802
 1605TIP3    H226307   6.199   1.812  16.527  1.1783 -0.9636 -1.1933
 1606TIP3   OH226308   2.168   3.954   3.783 -0.4668  0.3268  0.0097
 1606TIP3    H126309   2.106   3.947   3.856 -0.5411  0.1692 -0.0694
 1606TIP3    H226310   2.132   3.898   3.715  0.0112 -0.1381  0.1399
 1607TIP3   OH226311   3.841   3.796   2.722 -0.3142 -0.0573  0.2690
 1607TIP3    H126312   3.864   3.887   2.738  0.1587  0.1019 -1.2734
 1607TIP3    H226313   3.826   3.791   2.627 -0.6158 -1.5156  0.3839
 1608TIP3   OH226314   5.969   2.753  10.524  0.2619 -0.1052  0.0186
 1608TIP3    H126315   6.053   2.715  10.499  0.8918  1.5287 -0.4059
 1608TIP3    H226316   5.910   2.678  10.531  1.1950 -1.0508 -1.8991
 1609TIP3   OH226317   6.338   4.306  14.343 -0.3549  0.1104  0.3063
 1609TIP3    H126318   6.279   4.332  14.413 -1.8117 -1.4014 -0.3248
 1609TIP3    H226319   6.344   4.211  14.350  0.1502  0.0234 -1.0650
 1610TIP3   OH226320   1.841   2.853  11.644  0.3324  0.0226 -0.3403
 1610TIP3    H126321   1.812   2.929  11.594  1.9034  0.5957 -0.4212
 1610TIP3    H226322   1.925   2.829  11.605 -1.2139 -3.1907 -1.7983
 1611TIP3   OH226323   4.592   1.586  15.589  0.1199  0.4020 -0.0126
 1611TIP3    H126324   4.650   1.580  15.513  0.9736 -0.4896  0.7068
 1611TIP3    H226325   4.513   1.538  15.562  1.5510 -2.4184  0.7014
 1612TIP3   OH226326   1.767   1.605  13.254  0.2115 -0.3462  0.1005
 1612TIP3    H126327   1.810   1.622  13.338  0.6235  0.4610 -0.2757
 1612TIP3    H226328   1.678   1.579  13.278  0.1008  0.6152  0.7534
 1613TIP3   OH226329   1.370   5.597   3.310  0.0230 -0.4593 -0.0719
 1613TIP3    H126330   1.343   5.683   3.341 -0.2879 -0.7562  0.4971
 1613TIP3    H226331   1.444   5.614   3.252 -2.4537  0.5445 -3.0840
 1614TIP3   OH226332   5.275   5.131   1.825 -0.6816  0.0229 -0.2412
 1614TIP3    H126333   5.366   5.139   1.798 -0.7838  1.2451 -0.2789
 1614TIP3    H226334   5.265   5.041   1.854  0.4924 -0.1577 -0.4134
 1615TIP3   OH226335   2.205   0.710   1.459 -0.5006 -0.6762  0.0148
 1615TIP3    H126336   2.259   0.686   1.383 -0.2498  0.3023 -0.1175
 1615TIP3    H226337   2.122   0.737   1.420 -0.9785 -1.8313  0.1980
 1616TIP3   OH226338   5.939   5.184   0.050 -0.8455 -0.1537 -0.1894
 1616TIP3    H126339   5.862   5.133   0.075 -0.7325  0.1382  0.7769
 1616TIP3    H226340   5.984   5.202   0.132 -1.6072  2.6603 -0.3092
 1617TIP3   OH226341   6.704   4.654   1.540 -0.5144  0.3149  0.4768
 1617TIP3    H126342   6.725   4.583   1.600  0.2650  0.6310  0.5807
 1617TIP3    H226343   6.788   4.686   1.509 -0.8929  0.4272 -0.4731
 1618TIP3   OH226344   0.725   0.994   2.301  0.4403 -0.7158 -0.0011
 1618TIP3    H126345   0.718   1.038   2.386  1.3901 -0.5897  0.0155
 1618TIP3    H226346   0.702   1.061   2.237  1.3799 -0.3331  0.0567
 1619TIP3   OH226347   2.059   2.617   2.987  0.2419  0.3384 -0.1178
 1619TIP3    H126348   2.119   2.556   3.030 -0.4462 -0.8132 -0.7645
 1619TIP3    H226349   2.116   2.669   2.930  0.6725 -0.5819 -0.5462
 1620TIP3   OH226350   0.120   5.671  11.081  0.3607  0.1627  0.0610
 1620TIP3    H126351   0.186   5.614  11.121 -0.8251 -1.3064 -0.0083
 1620TIP3    H226352   0.169   5.729  11.023  1.2937 -3.4829 -3.0390
 1621TIP3   OH226353   5.234   6.591   2.291  0.1272 -0.2505 -0.2906
 1621TIP3    H126354   5.166   6.524   2.279  0.2163 -0.2755 -0.6698
 1621TIP3    H226355   5.186   6.670   2.314 -0.1171  0.0167 -1.6912
 1622TIP3   OH226356   0.701   1.604  14.941 -0.3509 -0.1331 -0.1647
 1622TIP3    H126357   0.686   1.640  14.854  0.3094  0.3882 -0.0687
 1622TIP3    H226358   0.618   1.615  14.986  0.0131  1.8519  0.0631
 1623TIP3   OH226359   0.126   2.050  14.110  0.2167  0.2369 -1.1509
 1623TIP3    H126360   0.079   2.083  14.033  0.5188 -1.5655 -2.1265
 1623TIP3    H226361   0.106   1.956  14.112  0.1205  0.2737  1.0503
 1624TIP3   OH226362   5.144   0.378  13.451  0.3128  0.2291 -0.8527
 1624TIP3    H126363   5.158   0.460  13.404  0.9533  1.0497  0.7343
 1624TIP3    H226364   5.098   0.404  13.531 -0.0174 -1.0388 -0.6188
 1625TIP3   OH226365   6.539   3.623   6.826 -0.0881  0.0682  0.0558
 1625TIP3    H126366   6.528   3.563   6.753  0.9662  1.8831 -1.6253
 1625TIP3    H226367   6.620   3.670   6.807  0.3438  0.3861  2.5270
 1626TIP3   OH226368   4.882   2.913  13.355 -0.0765 -0.6164  0.2598
 1626TIP3    H126369   4.936   2.951  13.287  2.4077 -0.6826  2.1164
 1626TIP3    H226370   4.825   2.985  13.383 -0.4186 -0.3159 -1.1688
 1627TIP3   OH226371   2.431   0.956  14.594 -0.5273  0.2856 -0.0125
 1627TIP3    H126372   2.484   1.002  14.529  1.0425  0.6499  1.5081
 1627TIP3    H226373   2.346   1.001  14.591  0.2795  1.8564 -0.1367
 1628TIP3   OH226374   2.954   2.391   4.244  0.4785  0.2280 -0.3689
 1628TIP3    H126375   2.977   2.429   4.329 -0.2271  1.6600 -0.7868
 1628TIP3    H226376   2.890   2.453   4.208 -0.9831 -1.5730 -0.9457
 1629TIP3   OH226377   4.164   2.279   5.157 -0.2380  0.0349  0.0071
 1629TIP3    H126378   4.216   2.290   5.077  1.2490  1.3555  1.1143
 1629TIP3    H226379   4.182   2.359   5.208 -2.1760 -0.1843  1.0942
 1630TIP3   OH226380   0.665   4.183  10.947 -0.1817 -0.7593  0.6148
 1630TIP3    H126381   0.606   4.230  10.888 -0.6584  1.4019  2.7696
 1630TIP3    H226382   0.745   4.170  10.895 -0.5232  1.2567 -0.4520
 1631TIP3   OH226383   5.063   1.345  11.848 -0.4549  0.1513 -0.4852
 1631TIP3    H126384   4.972   1.335  11.823 -0.2120  0.7392 -1.6527
 1631TIP3    H226385   5.062   1.408  11.920 -1.0795 -0.9033  0.4607
 1632TIP3   OH226386   0.312   0.890  14.507 -0.5906  0.0324 -0.5552
 1632TIP3    H126387   0.390   0.944  14.498 -0.7418  0.2125 -0.7830
 1632TIP3    H226388   0.341   0.802  14.482 -0.3446  0.0038 -0.1769
 1633TIP3   OH226389   2.527   0.351   0.977  0.2963 -0.2995 -0.8156
 1633TIP3    H126390   2.599   0.411   0.961  0.6640 -0.8839 -1.3433
 1633TIP3    H226391   2.554   0.269   0.937  0.3318 -1.1816  0.9945
 1634TIP3   OH226392   6.381   5.450   2.733  0.7794  0.4032  0.0953
 1634TIP3    H126393   6.330   5.469   2.811  0.9680  0.5996  0.1715
 1634TIP3    H226394   6.345   5.508   2.665 -0.5315 -0.9956 -0.4224
 1635TIP3   OH226395   0.620   0.334   2.843 -0.1588 -0.0277 -0.3794
 1635TIP3    H126396   0.608   0.281   2.764 -1.2551 -1.2002  0.5584
 1635TIP3    H226397   0.647   0.420   2.810  2.1882 -1.3006 -1.8929
 1636TIP3   OH226398   2.787   6.070   0.669  0.2223  0.0014 -0.4114
 1636TIP3    H126399   2.769   6.152   0.623  0.4744  0.5196  0.4035
 1636TIP3    H226400   2.701   6.038   0.696  0.0823 -0.2517 -1.1359
 1637TIP3   OH226401   2.061   2.503  14.270  0.5413 -0.1019 -0.2698
 1637TIP3    H126402   1.970   2.500  14.298  0.1958  0.1765 -1.3286
 1637TIP3    H226403   2.064   2.448  14.191  1.0783  0.6471 -0.7869
 1638TIP3   OH226404   0.390   3.156   4.575  0.2735 -0.0445  0.2136
 1638TIP3    H126405   0.461   3.176   4.636 -1.1744  0.7187  1.7061
 1638TIP3    H226406   0.381   3.236   4.522  0.2119  0.0338  0.3416
 1639TIP3   OH226407   1.498   3.319   0.817 -0.1537 -0.6567  0.7661
 1639TIP3    H126408   1.509   3.296   0.724  0.1919 -0.7354  0.8252
 1639TIP3    H226409   1.423   3.268   0.845  0.9809 -2.1879  1.0528
 1640TIP3   OH226410   0.675   5.983   1.212  0.2316  0.0434  0.7745
 1640TIP3    H126411   0.630   6.050   1.264 -0.6481 -0.5623  0.8007
 1640TIP3    H226412   0.764   6.015   1.204 -0.3949  1.6511  0.0534
 1641TIP3   OH226413   0.955   2.493   5.365  0.2133 -0.1685  0.0232
 1641TIP3    H126414   0.915   2.467   5.282 -0.8420 -1.0442  0.7933
 1641TIP3    H226415   0.882   2.522   5.419  0.7536 -0.6358  1.0170
 1642TIP3   OH226416   0.932   3.492  16.107 -0.3684  0.1592  0.0242
 1642TIP3    H126417   1.018   3.465  16.078  0.9110  3.7842  0.2066
 1642TIP3    H226418   0.922   3.452  16.194  1.2741 -0.0355  0.1303
 1643TIP3   OH226419   2.556   1.604  15.587  0.1737 -0.6534 -0.2577
 1643TIP3    H126420   2.632   1.612  15.645 -0.1355  1.1521 -0.0626
 1643TIP3    H226421   2.498   1.542  15.631 -0.6295  1.6334  2.0432
 1644TIP3   OH226422   3.159   5.576  16.064 -0.1256  0.2972  0.0657
 1644TIP3    H126423   3.130   5.519  15.993 -1.8149  0.8685  0.2784
 1644TIP3    H226424   3.233   5.530  16.103 -0.9131 -1.3371 -0.3269
 1645TIP3   OH226425   1.259   5.059   1.217  0.2132 -0.2649  0.1003
 1645TIP3    H126426   1.292   4.970   1.200 -0.5081 -0.8596  1.7341
 1645TIP3    H226427   1.339   5.112   1.225  0.6786 -0.9598  0.1621
 1646TIP3   OH226428   3.796   2.348   4.650 -0.3965 -0.0826  0.1670
 1646TIP3    H126429   3.869   2.367   4.590  0.2468  0.5235  1.1262
 1646TIP3    H226430   3.743   2.284   4.603  0.4848 -0.1532 -0.7603
 1647TIP3   OH226431   1.630   2.780   0.736  0.5149  0.2141  0.2102
 1647TIP3    H126432   1.655   2.741   0.820  0.1590 -1.5350 -0.4954
 1647TIP3    H226433   1.553   2.731   0.708 -0.5798  2.0880 -0.2041
 1648TIP3   OH226434   4.183   0.860   2.524 -0.2122 -0.2141 -0.2790
 1648TIP3    H126435   4.132   0.839   2.446 -0.7285 -0.5923  0.1572
 1648TIP3    H226436   4.267   0.891   2.491 -0.2040 -0.9850 -0.9654
 1649TIP3   OH226437   6.058   1.821   4.244  0.5765 -0.2643 -0.4279
 1649TIP3    H126438   5.993   1.819   4.315 -0.6233 -0.1483 -1.5038
 1649TIP3    H226439   6.100   1.735   4.248  1.4220  0.2110  1.2392
 1650TIP3   OH226440   6.258   6.765  11.623 -0.3268 -0.5840 -0.5946
 1650TIP3    H126441   6.170   6.797  11.604  0.3414  0.5509 -1.8749
 1650TIP3    H226442   6.314   6.843  11.615  0.2885 -0.3575  4.3505
 1651TIP3   OH226443   1.598   6.782  11.284  0.2817  0.0139 -0.4778
 1651TIP3    H126444   1.552   6.708  11.325  0.9249 -0.0926  0.0546
 1651TIP3    H226445   1.683   6.784  11.328  0.5806  0.5481 -1.0887
 1652TIP3   OH226446   2.868   0.894  12.781  0.4018  0.3953  0.2448
 1652TIP3    H126447   2.911   0.979  12.768  1.1162  0.0711  0.5148
 1652TIP3    H226448   2.833   0.898  12.870 -0.0739  0.6272  0.0523
 1653TIP3   OH226449   5.429   4.498  11.867  0.1218 -0.1125 -0.4243
 1653TIP3    H126450   5.362   4.477  11.802  1.5436 -3.3917 -0.9733
 1653TIP3    H226451   5.498   4.433  11.851  2.0647  1.2366  2.1000
 1654TIP3   OH226452   2.057   3.339   3.073  0.0492  0.4202  0.3103
 1654TIP3    H126453   2.151   3.358   3.076 -0.1509  1.4854  0.2509
 1654TIP3    H226454   2.032   3.326   3.164  0.1698  0.5925  0.3684
 1655TIP3   OH226455   5.081   0.389  14.607  0.4727  0.1911  0.5212
 1655TIP3    H126456   4.987   0.384  14.623  0.2812  0.6409 -0.3991
 1655TIP3    H226457   5.117   0.312  14.650 -0.6280 -1.3019 -1.1376
 1656TIP3   OH226458   4.579   1.119  17.127 -0.4303 -0.4104 -0.4308
 1656TIP3    H126459   4.492   1.144  17.160 -0.9472 -0.1710 -1.9435
 1656TIP3    H226460   4.574   1.024  17.116 -0.0159 -0.5915  0.8397
 1657TIP3   OH226461   6.379   3.734  14.162 -0.1449  0.2092  0.1018
 1657TIP3    H126462   6.397   3.763  14.073 -0.6784  1.7456  0.4742
 1657TIP3    H226463   6.453   3.676  14.183 -0.5468 -0.9836 -1.6727
 1658TIP3   OH226464   4.696   0.709   3.248 -0.6221  0.0658 -0.0098
 1658TIP3    H126465   4.682   0.800   3.223  0.2902  0.8052  2.0484
 1658TIP3    H226466   4.633   0.693   3.318  0.7243 -0.1708  1.1826
 1659TIP3   OH226467   1.884   3.818  14.907  0.0029 -0.3847  0.4761
 1659TIP3    H126468   1.931   3.792  14.828  1.1229 -1.0890  1.3589
 1659TIP3    H226469   1.920   3.903  14.931 -0.3278 -0.1768  0.2258
 1660TIP3   OH226470   1.886   4.770   5.100  0.2936  0.5483  0.0722
 1660TIP3    H126471   1.882   4.698   5.038  0.7918  0.1400  0.5130
 1660TIP3    H226472   1.933   4.840   5.054  0.9932  0.1131  0.1183
 1661TIP3   OH226473   4.161   1.958   2.382  0.4631 -0.5304 -0.1589
 1661TIP3    H126474   4.141   1.975   2.474  0.5252  1.7950 -0.5613
 1661TIP3    H226475   4.187   2.042   2.347  2.1863 -1.7599 -1.8967
 1662TIP3   OH226476   2.398   2.933   4.493 -0.2403 -0.2312 -0.1163
 1662TIP3    H126477   2.412   2.840   4.477  1.3804  0.1580 -1.0684
 1662TIP3    H226478   2.357   2.965   4.413  0.6463  0.1749 -0.4121
 1663TIP3   OH226479   3.070   5.144   3.488  0.1286  0.0284 -0.4466
 1663TIP3    H126480   3.089   5.054   3.460  1.3643  0.1875 -0.1641
 1663TIP3    H226481   3.097   5.198   3.413 -1.1956  0.1283 -0.8579
 1664TIP3   OH226482   1.450   5.661   5.881  0.7481 -0.5506 -0.1842
 1664TIP3    H126483   1.543   5.681   5.873  1.0117 -1.4701  0.4715
 1664TIP3    H226484   1.432   5.668   5.975 -0.1618  0.9813 -0.4535
 1665TIP3   OH226485   2.804   0.259   5.201 -0.0235  0.3323 -0.0497
 1665TIP3    H126486   2.782   0.310   5.123  1.0124 -0.2932 -0.7701
 1665TIP3    H226487   2.875   0.308   5.242 -1.6001  1.4868  1.3776
 1666TIP3   OH226488   1.432   3.084   3.693 -0.0793 -0.1442 -0.6049
 1666TIP3    H126489   1.523   3.064   3.714  0.1730  0.4800 -1.1102
 1666TIP3    H226490   1.388   3.088   3.779  0.0943 -1.7105 -0.4271
 1667TIP3   OH226491   6.146   0.661   5.166 -0.4157  0.2699  0.3762
 1667TIP3    H126492   6.123   0.728   5.101 -0.1438 -1.1972 -1.2798
 1667TIP3    H226493   6.063   0.638   5.208 -0.4888  1.7167  1.0328
 1668TIP3   OH226494   2.052   5.391  12.376  0.2393  0.3172 -0.3313
 1668TIP3    H126495   2.114   5.458  12.348  1.7398 -0.3492  1.3006
 1668TIP3    H226496   2.014   5.426  12.457  0.9362 -0.7097  0.4570
 1669TIP3   OH226497   4.410   2.269  15.834  0.4329 -0.3161 -0.0049
 1669TIP3    H126498   4.333   2.239  15.784  0.4709  1.1254 -0.9521
 1669TIP3    H226499   4.381   2.349  15.878  1.1969 -0.1204  0.1506
 1670TIP3   OH226500   0.270   4.586  13.301  0.2386  0.2095  0.2498
 1670TIP3    H126501   0.334   4.619  13.364 -0.2356  1.9277 -0.1202
 1670TIP3    H226502   0.186   4.594  13.345 -0.0281  0.8371 -0.3497
 1671TIP3   OH226503   3.265   2.674  11.759 -0.5161 -0.0166 -0.3437
 1671TIP3    H126504   3.323   2.609  11.718 -0.2741  0.7780 -1.2479
 1671TIP3    H226505   3.180   2.660  11.717 -0.8122 -0.6725  0.4491
 1672TIP3   OH226506   2.765   4.593   3.978 -0.0155  0.5551 -0.0335
 1672TIP3    H126507   2.688   4.586   3.921  1.0435  0.9220 -1.5506
 1672TIP3    H226508   2.729   4.611   4.065 -1.7569 -1.7149 -0.2265
 1673TIP3   OH226509   5.317   5.523   4.080 -0.2757  0.4002  0.4617
 1673TIP3    H126510   5.303   5.601   4.025 -0.7232 -0.3691 -0.5279
 1673TIP3    H226511   5.246   5.464   4.056 -0.7158  0.2047  2.1689
 1674TIP3   OH226512   6.010   2.047   4.501  0.4472 -0.3553 -0.0760
 1674TIP3    H126513   6.017   2.095   4.418 -0.3008 -0.4917 -0.2238
 1674TIP3    H226514   6.016   2.114   4.569 -0.2958 -0.0846 -0.2728
 1675TIP3   OH226515   2.272   0.849   6.092 -0.1465  0.8938 -0.1976
 1675TIP3    H126516   2.182   0.817   6.104  0.0795 -0.3685 -1.7704
 1675TIP3    H226517   2.263   0.944   6.088 -0.9995  1.0317  3.0593
 1676TIP3   OH226518   6.408   5.539  16.706  0.1886 -0.1349  0.0945
 1676TIP3    H126519   6.463   5.549  16.629 -1.5032  1.0110 -0.9956
 1676TIP3    H226520   6.442   5.604  16.768 -0.6211  1.3997 -1.0171
 1677TIP3   OH226521   6.435   2.225  11.375  0.0681 -0.4164  0.4306
 1677TIP3    H126522   6.354   2.232  11.426  0.7047  0.5928  1.3339
 1677TIP3    H226523   6.452   2.315  11.345  2.0883 -0.1549  2.2288
 1678TIP3   OH226524   6.369   2.039  11.892 -0.4300 -0.0811  0.0885
 1678TIP3    H126525   6.331   1.993  11.817 -1.6584  0.0218  0.6470
 1678TIP3    H226526   6.391   1.969  11.954  1.7017 -0.2748 -0.8476
 1679TIP3   OH226527   2.939   2.445   2.459 -0.1984  0.3933 -0.2290
 1679TIP3    H126528   2.937   2.524   2.513  1.9392  0.4299 -0.1888
 1679TIP3    H226529   3.031   2.433   2.436 -0.7804 -0.9246 -1.9625
 1680TIP3   OH226530   6.815   3.149  14.513 -0.2144  0.2306  0.4643
 1680TIP3    H126531   6.883   3.216  14.522 -0.5068  0.3980  1.4788
 1680TIP3    H226532   6.782   3.136  14.602 -0.7656 -0.6311  0.1408
 1681TIP3   OH226533   3.412   6.787   0.927  0.1658  0.1843 -0.2086
 1681TIP3    H126534   3.498   6.806   0.965  0.2347  0.5121 -0.5317
 1681TIP3    H226535   3.428   6.713   0.868  0.2229  0.2291 -0.2505
 1682TIP3   OH226536   5.668   5.394   5.421  0.2784  0.0711  0.4804
 1682TIP3    H126537   5.714   5.334   5.480  1.0847 -0.0371 -0.2468
 1682TIP3    H226538   5.618   5.451   5.480  2.3118  1.0036  1.3786
 1683TIP3   OH226539   2.403   1.243  11.677  1.1486  0.4432 -0.1384
 1683TIP3    H126540   2.336   1.239  11.745  0.5020 -1.0954 -0.8454
 1683TIP3    H226541   2.375   1.315  11.620  1.1267  1.0435  0.6165
 1684TIP3   OH226542   5.527   5.877   1.803 -0.0896  0.5918  0.0446
 1684TIP3    H126543   5.437   5.845   1.800  0.7059 -1.7286 -0.3848
 1684TIP3    H226544   5.534   5.922   1.887 -1.8094  1.2968 -0.1866
 1685TIP3   OH226545   0.759   1.773  14.418  0.0597 -0.1251  0.1446
 1685TIP3    H126546   0.819   1.821  14.475 -0.0051 -0.6990  0.7009
 1685TIP3    H226547   0.683   1.830  14.410  0.2288  0.1276  0.3197
 1686TIP3   OH226548   0.776   2.659   0.455  0.0769 -0.3512  0.1368
 1686TIP3    H126549   0.763   2.653   0.361 -0.5582 -0.2870  0.2129
 1686TIP3    H226550   0.864   2.695   0.466 -0.3082  0.8101 -0.4543
 1687TIP3   OH226551   3.320   6.426  13.402 -0.0346  0.6906  0.0353
 1687TIP3    H126552   3.369   6.485  13.459  1.1661  0.7889 -1.0740
 1687TIP3    H226553   3.251   6.390  13.458  0.9294  1.0231  1.4625
 1688TIP3   OH226554   1.596   1.528  16.974  0.2247  0.1490  0.1076
 1688TIP3    H126555   1.531   1.571  17.030 -1.5763 -3.5652  1.0185
 1688TIP3    H226556   1.553   1.523  16.888  0.6070  0.5708 -0.1087
 1689TIP3   OH226557   4.253   1.017  14.717  0.6495 -0.0969 -0.4207
 1689TIP3    H126558   4.329   1.069  14.743 -0.2143  0.3624  1.2105
 1689TIP3    H226559   4.204   1.074  14.658 -0.6512  1.2364  1.8982
 1690TIP3   OH226560   4.063   2.874  14.911 -0.0092  0.3715 -0.3789
 1690TIP3    H126561   3.989   2.819  14.936  0.2579  0.6927  1.1408
 1690TIP3    H226562   4.037   2.912  14.827 -1.8265  0.9467  0.4320
 1691TIP3   OH226563   6.688   2.531   4.021 -0.1071 -0.6963 -0.3689
 1691TIP3    H126564   6.717   2.546   3.931 -0.2574  0.5683 -0.2143
 1691TIP3    H226565   6.673   2.437   4.026  0.1353 -0.8070 -1.5977
 1692TIP3   OH226566   6.344   4.182  12.161  0.2230 -0.1848 -0.2882
 1692TIP3    H126567   6.306   4.121  12.099 -0.6227  1.0209 -0.9798
 1692TIP3    H226568   6.352   4.132  12.242 -1.6504 -0.8522 -0.4869
 1693TIP3   OH226569   6.318   2.893  12.216 -0.1707 -0.3196 -0.4164
 1693TIP3    H126570   6.358   2.807  12.206 -1.0247 -0.7036 -0.5629
 1693TIP3    H226571   6.391   2.951  12.240  0.4807 -0.9865 -0.7825
 1694TIP3   OH226572   1.304   1.331   2.767 -0.0288 -0.4943 -0.0481
 1694TIP3    H126573   1.242   1.283   2.712  0.9837  0.5568 -2.1681
 1694TIP3    H226574   1.265   1.417   2.779  0.9048  0.1057 -1.2273
 1695TIP3   OH226575   6.797   5.884  17.168  0.5463  0.1896 -0.2861
 1695TIP3    H126576   6.829   5.953  17.109  0.4542  0.2946 -0.2149
 1695TIP3    H226577   6.770   5.813  17.110 -1.7057  1.1828 -0.5012
 1696TIP3   OH226578   3.006   1.465  12.840 -0.0867  0.2444 -0.2619
 1696TIP3    H126579   2.929   1.416  12.812 -0.3166 -0.3105  1.2998
 1696TIP3    H226580   2.979   1.508  12.921 -0.0547  3.3820 -1.8311
 1697TIP3   OH226581   5.053   5.209   4.838 -0.0524 -0.2706  0.0055
 1697TIP3    H126582   5.066   5.272   4.908  0.3447 -0.1033 -0.2140
 1697TIP3    H226583   5.138   5.166   4.829  0.4575  1.0120 -1.6295
 1698TIP3   OH226584   2.336   4.694   1.914 -0.1401  0.4300  0.1678
 1698TIP3    H126585   2.337   4.625   1.981  0.8831  0.1813 -0.0971
 1698TIP3    H226586   2.353   4.648   1.832  0.7145  1.0127  0.0096
 1699TIP3   OH226587   6.622   2.819  13.578 -0.3323  0.5330  0.1382
 1699TIP3    H126588   6.587   2.894  13.627  1.8817  1.9731 -0.4072
 1699TIP3    H226589   6.591   2.832  13.489 -0.2469  0.5776  0.1163
 1700TIP3   OH226590   0.208   6.331   5.990  0.0181 -0.5913  0.8076
 1700TIP3    H126591   0.292   6.349   5.948 -0.5675 -0.6976 -0.4174
 1700TIP3    H226592   0.146   6.391   5.948 -0.4435 -0.1926  2.0185
 1701TIP3   OH226593   6.645   5.610  16.528 -0.1491  0.6882 -0.1961
 1701TIP3    H126594   6.622   5.670  16.458 -2.3740  1.6810  1.3361
 1701TIP3    H226595   6.677   5.532  16.483 -0.0803  1.8775 -2.2573
 1702TIP3   OH226596   6.147   5.166   5.584 -0.0924  0.7336  0.0781
 1702TIP3    H126597   6.068   5.117   5.604  0.9651 -1.0449 -0.0163
 1702TIP3    H226598   6.142   5.244   5.639 -1.2499 -0.0320  1.0673
 1703TIP3   OH226599   6.807   2.370  11.175 -0.2240 -0.3101  0.3800
 1703TIP3    H126600   6.770   2.454  11.146 -0.0232 -1.3566 -3.0718
 1703TIP3    H226601   6.901   2.379  11.161 -0.2347 -1.2067 -0.2587
 1704TIP3   OH226602   6.644   6.303   0.482  0.1357  0.1095 -0.1901
 1704TIP3    H126603   6.677   6.358   0.553 -0.6248  0.9717 -0.4948
 1704TIP3    H226604   6.720   6.288   0.426  0.0382  2.0851 -0.8949
 1705TIP3   OH226605   0.444   0.267  12.132 -0.0828  0.0395 -0.0342
 1705TIP3    H126606   0.456   0.184  12.177 -0.5077  1.1499  2.2217
 1705TIP3    H226607   0.460   0.248  12.040  0.5440 -2.3641  0.5547
 1706TIP3   OH226608   6.353   5.835   2.096  0.0789 -0.0757 -0.6298
 1706TIP3    H126609   6.439   5.795   2.082 -0.2600 -0.5363 -1.4641
 1706TIP3    H226610   6.371   5.928   2.104  0.5730 -0.0784 -1.6340
 1707TIP3   OH226611   4.863   6.091  11.306 -0.4095  0.0223  0.1504
 1707TIP3    H126612   4.886   6.032  11.378 -0.4701  0.5512  0.6094
 1707TIP3    H226613   4.904   6.174  11.330  0.6416 -0.1357 -1.0573
 1708TIP3   OH226614   5.142   3.441  13.208  0.2884 -0.3318  0.0195
 1708TIP3    H126615   5.197   3.370  13.241  1.4220  0.8240  0.6706
 1708TIP3    H226616   5.145   3.430  13.113  1.1772 -0.6495  0.0743
 1709TIP3   OH226617   6.614   6.435  13.097  0.2032 -0.2857  0.5329
 1709TIP3    H126618   6.558   6.492  13.044  0.8861  0.9986  1.1598
 1709TIP3    H226619   6.699   6.439  13.055  0.2532 -0.8376  0.5884
 1710TIP3   OH226620   4.172   1.616   3.669 -0.4073  0.0338 -0.0562
 1710TIP3    H126621   4.195   1.569   3.589 -0.7806 -3.5953  1.8571
 1710TIP3    H226622   4.253   1.659   3.696 -0.1379  0.8166 -2.0089
 1711TIP3   OH226623   5.422   5.292   2.450 -0.9497 -0.4275 -0.0260
 1711TIP3    H126624   5.497   5.304   2.391 -0.0721  0.7284  1.3094
 1711TIP3    H226625   5.445   5.214   2.501 -0.3371  0.2972  0.8290
 1712TIP3   OH226626   0.166   3.119   5.681 -0.1284  0.1256 -0.0679
 1712TIP3    H126627   0.169   3.030   5.717 -3.5227  0.3370  0.9099
 1712TIP3    H226628   0.199   3.175   5.752 -1.3400 -0.0513  0.6679
 1713TIP3   OH226629   2.945   2.204  14.004  0.2236  0.0272  0.1308
 1713TIP3    H126630   2.868   2.156  14.035 -0.0583  1.3152  1.5305
 1713TIP3    H226631   3.019   2.159  14.045  0.0917 -0.2195  0.0992
 1714TIP3   OH226632   1.819   2.199  13.012  0.1441 -0.4615  0.2671
 1714TIP3    H126633   1.860   2.161  12.934  3.1937  0.5692  1.3168
 1714TIP3    H226634   1.842   2.140  13.083 -1.1126 -0.4211  0.7221
 1715TIP3   OH226635   5.618   1.981   5.675 -0.1960 -1.0774 -0.2449
 1715TIP3    H126636   5.635   1.935   5.593  0.6869 -0.3454 -0.4835
 1715TIP3    H226637   5.701   2.024   5.696 -0.1586 -1.9340  1.4723
 1716TIP3   OH226638   1.602   4.237  16.479  0.5626  0.1728 -0.4445
 1716TIP3    H126639   1.578   4.301  16.547  3.0653  0.1698  0.5073
 1716TIP3    H226640   1.589   4.284  16.397 -0.4372  0.9205  0.1232
 1717TIP3   OH226641   6.394   1.071  14.873  0.4599 -0.0189 -0.1263
 1717TIP3    H126642   6.307   1.035  14.855  1.0497 -1.5951  0.1094
 1717TIP3    H226643   6.384   1.165  14.859 -1.1741 -0.2321 -0.5249
 1718TIP3   OH226644   3.760   4.108  13.544  0.1028 -0.3404 -0.2012
 1718TIP3    H126645   3.766   4.107  13.640 -2.7952 -0.4313  0.0429
 1718TIP3    H226646   3.811   4.033  13.516  3.7028  1.5284  1.0240
 1719TIP3   OH226647   3.071   0.983  13.640 -0.2542  0.0940 -0.1994
 1719TIP3    H126648   3.054   0.978  13.546  1.1668 -0.9154 -0.4330
 1719TIP3    H226649   3.066   0.892  13.670  1.5897  0.1188  0.2456
 1720TIP3   OH226650   1.204   6.244  15.927 -0.2324  0.4651 -0.1997
 1720TIP3    H126651   1.139   6.270  15.992 -3.2582 -0.7194 -2.5873
 1720TIP3    H226652   1.165   6.271  15.843  1.5153 -1.9668 -1.8523
 1721TIP3   OH226653   0.199   4.441  13.693  0.4444 -0.4602 -0.2221
 1721TIP3    H126654   0.119   4.470  13.649 -0.2576 -1.4810  0.3356
 1721TIP3    H226655   0.267   4.501  13.663 -0.5146  0.3494 -0.7945
 1722TIP3   OH226656   5.925   2.911  13.088  0.6442  0.0680  0.0220
 1722TIP3    H126657   5.835   2.942  13.083  0.3745 -0.7783 -0.4136
 1722TIP3    H226658   5.947   2.915  13.182  0.0537 -0.0325  0.1636
 1723TIP3   OH226659   5.554   5.752  14.624 -0.2250  0.1057 -0.1439
 1723TIP3    H126660   5.619   5.822  14.628  0.8099 -0.8548  0.0084
 1723TIP3    H226661   5.513   5.753  14.710 -0.8198  1.0805 -0.4247
 1724TIP3   OH226662   5.782   3.224  14.644 -0.1390  0.1051 -0.8601
 1724TIP3    H126663   5.687   3.215  14.656 -0.0183 -0.3734 -0.1955
 1724TIP3    H226664   5.793   3.310  14.604 -0.8948 -0.0605 -1.4477
 1725TIP3   OH226665   5.992   2.865   1.816 -0.0422 -0.9379  0.2806
 1725TIP3    H126666   5.908   2.911   1.824  0.2833 -0.4172  0.7087
 1725TIP3    H226667   5.969   2.773   1.824 -0.4333 -0.7399  1.5276
 1726TIP3   OH226668   1.159   0.390  10.792 -0.8128 -0.1331  0.7203
 1726TIP3    H126669   1.213   0.317  10.761 -0.5191 -0.3440  1.6768
 1726TIP3    H226670   1.074   0.377  10.750 -0.9345 -1.3639  1.2938
 1727TIP3   OH226671   4.330   1.727  15.760  0.2265 -0.4324  0.0062
 1727TIP3    H126672   4.361   1.771  15.681  2.1248 -0.0551  0.9450
 1727TIP3    H226673   4.351   1.787  15.831  1.1138 -2.0138  1.0956
 1728TIP3   OH226674   1.715   0.763   3.881 -0.3675 -0.7009  0.5122
 1728TIP3    H126675   1.725   0.678   3.839 -0.5789 -0.3129 -0.3205
 1728TIP3    H226676   1.773   0.758   3.958 -1.9536 -2.3432  1.6347
 1729TIP3   OH226677   6.451   6.715  15.197  0.1360  0.0595  0.5973
 1729TIP3    H126678   6.357   6.733  15.209 -0.0539 -1.1644  1.0685
 1729TIP3    H226679   6.480   6.781  15.135 -1.0796  0.3804  0.3416
 1730TIP3   OH226680   4.059   6.558   4.005  0.2239  0.5896  0.1657
 1730TIP3    H126681   4.124   6.609   4.054  1.6707  0.0705 -1.1639
 1730TIP3    H226682   4.110   6.515   3.936 -1.6374  0.6348 -1.2668
 1731TIP3   OH226683   4.255   4.081   4.123 -0.4406 -1.2885 -0.4350
 1731TIP3    H126684   4.236   4.105   4.214  0.3736 -1.9285 -0.0939
 1731TIP3    H226685   4.177   4.034   4.094 -0.4608 -1.5938  0.1168
 1732TIP3   OH226686   1.947   1.737  14.242 -0.1007 -0.2738  0.5520
 1732TIP3    H126687   1.960   1.748  14.148 -1.8529 -0.9329  0.2096
 1732TIP3    H226688   1.970   1.821  14.280  2.6934 -0.6496 -0.2281
 1733TIP3   OH226689   5.605   1.327   2.749 -0.6239  0.4513 -0.5201
 1733TIP3    H126690   5.663   1.337   2.824 -1.3251  2.6177 -0.2286
 1733TIP3    H226691   5.643   1.383   2.681 -1.2022  0.2487 -1.0215
 1734TIP3   OH226692   1.905   6.329  15.719 -0.6682 -0.0940  0.1503
 1734TIP3    H126693   1.974   6.264  15.714  0.9025  1.5818 -0.5979
 1734TIP3    H226694   1.903   6.369  15.632 -1.4205  1.0258  0.6725
 1735TIP3   OH226695   0.767   2.394   2.422 -0.0120 -0.0338  0.4412
 1735TIP3    H126696   0.748   2.486   2.441  2.9691  0.7998 -0.4714
 1735TIP3    H226697   0.821   2.396   2.343  0.9871 -2.5206  1.0278
 1736TIP3   OH226698   4.671   6.250  12.492 -0.4682 -0.1149 -0.2468
 1736TIP3    H126699   4.668   6.208  12.578  2.2714 -0.9954 -0.5059
 1736TIP3    H226700   4.604   6.205  12.440 -0.3150 -1.4278  0.6691
 1737TIP3   OH226701   0.915   1.352  12.278 -0.1355  0.0994 -0.0176
 1737TIP3    H126702   0.959   1.328  12.196 -0.1448 -0.2799  0.0843
 1737TIP3    H226703   0.833   1.392  12.250  0.7076  1.7207 -0.2239
 1738TIP3   OH226704   5.607   3.110  13.609 -0.0483 -0.0753 -0.3494
 1738TIP3    H126705   5.634   3.190  13.653  0.1063 -0.0881 -0.4186
 1738TIP3    H226706   5.665   3.042  13.646  0.4735  0.0165 -0.9936
 1739TIP3   OH226707   5.831   0.320  13.200  0.0789 -0.3807  0.1014
 1739TIP3    H126708   5.922   0.303  13.221 -0.3203  0.5272  2.9070
 1739TIP3    H226709   5.812   0.267  13.123  2.3896 -2.2047  0.7643
 1740TIP3   OH226710   4.616   4.306   4.446 -0.0843  0.0387 -0.1184
 1740TIP3    H126711   4.523   4.300   4.425  0.1890  0.6447 -1.5481
 1740TIP3    H226712   4.623   4.274   4.536 -1.4146 -1.6607 -0.6187
 1741TIP3   OH226713   1.413   4.893   2.041 -0.3857 -0.2105 -0.1450
 1741TIP3    H126714   1.375   4.869   2.126  2.8769  0.3258  1.5537
 1741TIP3    H226715   1.379   4.980   2.023  1.2657  0.9441  2.1434
 1742TIP3   OH226716   3.005   1.134  12.736  0.0898 -0.4758  0.6281
 1742TIP3    H126717   3.030   1.178  12.655  0.3568  0.5154  1.2480
 1742TIP3    H226718   2.917   1.165  12.754 -0.4111 -1.5767  0.1124
 1743TIP3   OH226719   2.761   1.616   0.100 -0.1102 -0.4118 -0.7152
 1743TIP3    H126720   2.741   1.709   0.102 -0.7346 -0.5014 -1.9613
 1743TIP3    H226721   2.839   1.606   0.155  0.6103  1.0093 -1.4623
 1744TIP3   OH226722   3.583   0.330  13.774 -0.3583  0.2857  0.2177
 1744TIP3    H126723   3.622   0.313  13.860 -0.7458  0.6187  0.4593
 1744TIP3    H226724   3.659   0.344  13.717 -0.1144  1.1971  0.7464
 1745TIP3   OH226725   6.429   3.504   2.685  0.3760  0.4127  0.2198
 1745TIP3    H126726   6.386   3.450   2.751  0.7018  0.3027  0.3457
 1745TIP3    H226727   6.520   3.474   2.686 -0.0357 -1.0970 -1.7808
 1746TIP3   OH226728   0.815   0.749   3.983  0.2284  0.2583 -0.2499
 1746TIP3    H126729   0.847   0.668   4.024 -2.2626 -0.8717 -0.4612
 1746TIP3    H226730   0.818   0.814   4.054  1.0474 -0.3257  0.2649
 1747TIP3   OH226731   5.336   0.486   5.469  0.1431 -0.0552  0.0430
 1747TIP3    H126732   5.296   0.555   5.416 -0.1910  0.3123  0.7727
 1747TIP3    H226733   5.374   0.426   5.405 -0.0155  0.5329 -0.6076
 1748TIP3   OH226734   6.482   5.000  12.246 -0.0451  0.1662 -0.2255
 1748TIP3    H126735   6.544   5.047  12.191 -1.3271  1.5527 -0.5268
 1748TIP3    H226736   6.473   4.914  12.204  1.9651 -0.2108  0.0760
 1749TIP3   OH226737   4.498   3.489  11.597 -0.4339 -0.5397 -0.1154
 1749TIP3    H126738   4.439   3.432  11.547  0.6525 -1.5436 -0.2866
 1749TIP3    H226739   4.542   3.542  11.530  0.9905 -1.8545 -0.2479
 1750TIP3   OH226740   1.853   4.961   3.692 -0.2042 -0.0036 -0.0432
 1750TIP3    H126741   1.800   4.980   3.770  0.7410  0.9428  0.3836
 1750TIP3    H226742   1.929   5.019   3.700 -0.2546  0.3366 -1.8381
 1751TIP3   OH226743   5.203   4.566  16.374  0.0139 -0.0821  0.1972
 1751TIP3    H126744   5.233   4.524  16.454 -0.8979  1.7795  1.5694
 1751TIP3    H226745   5.133   4.625  16.403  1.6873  2.8600 -1.5043
 1752TIP3   OH226746   5.869   2.234   1.859  0.0635 -0.3357 -0.1307
 1752TIP3    H126747   5.881   2.159   1.801 -0.2571  0.8876 -1.8251
 1752TIP3    H226748   5.887   2.200   1.947  2.0970 -1.8668 -1.0936
 1753TIP3   OH226749   4.942   3.345   6.641  0.6899 -0.0338  0.1694
 1753TIP3    H126750   4.978   3.347   6.552  1.0387  0.0537  0.3098
 1753TIP3    H226751   4.945   3.436   6.670 -0.9291  0.1892 -0.3193
 1754TIP3   OH226752   1.218   0.207   4.444  0.0174 -0.1379  0.1422
 1754TIP3    H126753   1.286   0.265   4.477 -1.2459  0.6436  1.4545
 1754TIP3    H226754   1.242   0.120   4.476  0.2251  0.1865  0.8654
 1755TIP3   OH226755   5.974   0.244  12.826 -0.0564  0.3330 -0.3486
 1755TIP3    H126756   5.975   0.175  12.892  0.0707 -0.1471 -0.8478
 1755TIP3    H226757   5.909   0.215  12.762  0.7584  0.1522 -1.1087
 1756TIP3   OH226758   1.733   2.275  15.932  0.0051 -0.3850 -0.1662
 1756TIP3    H126759   1.818   2.303  15.897  0.6370 -1.1118  0.7417
 1756TIP3    H226760   1.751   2.257  16.024 -1.1465 -0.5564  0.0304
 1757TIP3   OH226761   5.452   1.404  12.096 -0.8766  0.2936  0.5342
 1757TIP3    H126762   5.361   1.377  12.086 -0.2216 -1.4941 -0.8235
 1757TIP3    H226763   5.476   1.440  12.010  0.1447 -0.6864  0.3980
 1758TIP3   OH226764   2.666   2.377  14.253  0.2324  0.4483 -0.0759
 1758TIP3    H126765   2.585   2.326  14.243 -0.2218  1.1226  0.1187
 1758TIP3    H226766   2.729   2.315  14.288 -0.7492  0.4035  1.6529
 1759TIP3   OH226767   2.133   6.671   6.653 -0.5871 -0.4769  0.2104
 1759TIP3    H126768   2.149   6.694   6.561  2.0089 -0.3847  0.6428
 1759TIP3    H226769   2.090   6.586   6.650  1.2745 -1.4066 -1.0649
 1760TIP3   OH226770   0.840   6.197   2.930  0.3814 -0.3204 -0.1084
 1760TIP3    H126771   0.788   6.257   2.983 -0.6639  0.2697 -1.7585
 1760TIP3    H226772   0.840   6.115   2.980 -1.4856 -0.1045  0.3128
 1761TIP3   OH226773   2.254   2.198   0.059  0.4472 -0.3078  0.2641
 1761TIP3    H126774   2.188   2.251   0.104 -0.0606 -0.5552 -0.1865
 1761TIP3    H226775   2.277   2.248  -0.019 -0.4717 -1.0080 -0.4797
 1762TIP3   OH226776   2.576   6.657  11.932  0.0931  0.5866  0.0511
 1762TIP3    H126777   2.551   6.750  11.935  3.4100  1.4977  2.9701
 1762TIP3    H226778   2.635   6.652  11.857  1.6797  1.3934  1.2037
 1763TIP3   OH226779   1.056   2.973  13.434  0.2450 -0.2855  0.3486
 1763TIP3    H126780   1.029   3.059  13.464  1.2490 -0.1151  0.7860
 1763TIP3    H226781   0.992   2.949  13.367 -0.3342  0.5689  0.5960
 1764TIP3   OH226782   0.343   6.507  12.233  0.5010  0.5612 -0.4694
 1764TIP3    H126783   0.291   6.526  12.311  0.3162  1.8300 -0.8997
 1764TIP3    H226784   0.314   6.419  12.206  1.5987 -0.5008  1.7014
 1765TIP3   OH226785   4.344   5.997   4.253  0.1215 -0.5994  0.1313
 1765TIP3    H126786   4.415   6.037   4.203  1.7482 -2.5834  0.8154
 1765TIP3    H226787   4.285   5.961   4.187 -0.0211  0.6457 -0.4308
 1766TIP3   OH226788   3.262   3.149   5.298  0.4980 -0.1155 -0.8125
 1766TIP3    H126789   3.314   3.118   5.372  1.1149  1.7643 -0.4236
 1766TIP3    H226790   3.305   3.230   5.271 -1.3533  0.6819 -1.4553
 1767TIP3   OH226791   6.298   3.625  10.830  0.8209  0.4238 -0.0861
 1767TIP3    H126792   6.223   3.641  10.773  0.4656  1.2615  0.6014
 1767TIP3    H226793   6.373   3.653  10.779  0.8340 -1.8272 -1.3602
 1768TIP3   OH226794   0.724   2.571  16.457 -0.3343  0.6275 -0.5532
 1768TIP3    H126795   0.651   2.596  16.399 -0.7453  0.5097 -0.0906
 1768TIP3    H226796   0.723   2.639  16.525 -2.3811 -1.3933  1.5425
 1769TIP3   OH226797   6.502   0.749  16.518  0.2345  0.1616 -0.7139
 1769TIP3    H126798   6.514   0.777  16.609  1.1460  0.3567 -0.8852
 1769TIP3    H226799   6.425   0.692  16.520  0.1237  0.3325  0.1407
 1770TIP3   OH226800   4.369   0.961   5.762  0.5711 -0.3213 -0.0872
 1770TIP3    H126801   4.396   0.944   5.672  0.4202 -1.1624  0.0282
 1770TIP3    H226802   4.408   1.046   5.783 -0.0569  0.2534 -1.2133
 1771TIP3   OH226803   0.213   4.607  10.724 -0.3020  0.8363 -0.1379
 1771TIP3    H126804   0.228   4.562  10.640  1.3031  2.7645 -0.9142
 1771TIP3    H226805   0.196   4.536  10.786  2.6278 -0.9386 -1.2402
 1772TIP3   OH226806   4.403   2.701   2.527  0.0353  0.1113 -0.4642
 1772TIP3    H126807   4.459   2.720   2.451 -1.2129  1.8866 -0.9946
 1772TIP3    H226808   4.336   2.769   2.524 -1.5379 -1.3547  0.7690
 1773TIP3   OH226809   4.220   2.336  12.098  0.6354 -0.3115  0.1390
 1773TIP3    H126810   4.269   2.340  12.016 -0.3770 -0.1369 -0.4587
 1773TIP3    H226811   4.281   2.296  12.160  1.7040  0.3416 -0.4756
 1774TIP3   OH226812   6.296   4.325  16.122  0.3057  0.3181  0.7628
 1774TIP3    H126813   6.204   4.308  16.144  0.2171 -0.7832 -0.3882
 1774TIP3    H226814   6.345   4.266  16.178  0.2268 -0.2312  0.2618
 1775TIP3   OH226815   0.528   0.896  14.842  0.2923 -0.6417  0.0798
 1775TIP3    H126816   0.577   0.918  14.921  0.4051 -0.1672 -0.1186
 1775TIP3    H226817   0.552   0.964  14.780 -1.3483  0.1347  0.2728
 1776TIP3   OH226818   4.463   6.479   0.290  0.3528  0.1591 -0.2834
 1776TIP3    H126819   4.440   6.562   0.249 -1.8079  0.6066  1.7417
 1776TIP3    H226820   4.505   6.504   0.372  1.0061 -0.7521 -0.3369
 1777TIP3   OH226821   5.804   4.844  12.351 -0.4374 -0.2209 -0.4340
 1777TIP3    H126822   5.871   4.907  12.378  0.5741 -0.3265 -2.5763
 1777TIP3    H226823   5.730   4.897  12.324  0.2345  0.0423 -1.7729
 1778TIP3   OH226824   0.889   2.405   0.115 -0.1944  0.1729 -0.2025
 1778TIP3    H126825   0.876   2.388   0.022  0.2347 -1.2826 -0.0172
 1778TIP3    H226826   0.965   2.353   0.138  0.2417  1.2206  0.7795
 1779TIP3   OH226827   5.929   5.815   1.767 -0.1330 -0.3064  0.9881
 1779TIP3    H126828   5.968   5.845   1.849  0.7225  0.3399  0.3685
 1779TIP3    H226829   6.005   5.798   1.710 -0.6980 -1.3995  0.5651
 1780TIP3   OH226830   0.305   2.709  12.082  0.3576  0.2820  0.5166
 1780TIP3    H126831   0.352   2.716  12.165 -1.4653  0.7026  1.5278
 1780TIP3    H226832   0.262   2.623  12.086 -0.2202  0.5563  0.2632
 1781TIP3   OH226833   5.039   2.882  14.485  0.0144  0.4002  0.7010
 1781TIP3    H126834   5.033   2.977  14.492 -1.5504  0.4843 -1.1741
 1781TIP3    H226835   5.045   2.865  14.391  4.1293 -1.1999  1.1651
 1782TIP3   OH226836   1.769   4.179  15.427 -0.7393 -0.0822  0.0310
 1782TIP3    H126837   1.851   4.144  15.461 -0.5975 -0.4356 -0.6534
 1782TIP3    H226838   1.789   4.269  15.404  0.0408 -0.7596 -2.0617
 1783TIP3   OH226839   0.043   6.293  14.152 -0.2436 -0.9197  0.3332
 1783TIP3    H126840  -0.015   6.345  14.096 -0.7525 -2.5502 -0.6656
 1783TIP3    H226841   0.131   6.310  14.118 -0.4870 -1.3457 -0.5076
 1784TIP3   OH226842   0.962   1.627   3.352  0.1086 -0.3311  0.1477
 1784TIP3    H126843   0.936   1.553   3.407  0.2243 -0.9420 -0.6053
 1784TIP3    H226844   0.935   1.704   3.401 -0.8394 -0.8960  0.5244
 1785TIP3   OH226845   6.192   2.464   0.637  0.2899  0.1599 -0.9597
 1785TIP3    H126846   6.272   2.484   0.588 -0.8147  0.7958 -2.5830
 1785TIP3    H226847   6.127   2.446   0.569 -0.4062 -2.5204  0.3709
 1786TIP3   OH226848   2.177   1.509   2.759 -0.3134 -0.4373  0.1006
 1786TIP3    H126849   2.237   1.434   2.764  0.1136 -0.0089  1.8338
 1786TIP3    H226850   2.142   1.517   2.847  0.2960  1.9251  0.1627
 1787TIP3   OH226851   2.549   1.268   1.669  0.0040  0.4256 -0.2330
 1787TIP3    H126852   2.519   1.345   1.718  0.0413  0.5542 -0.4122
 1787TIP3    H226853   2.644   1.279   1.661  0.3853 -0.9756  2.0588
 1788TIP3   OH226854   4.696   3.011  15.275 -0.0206  0.6837  0.2140
 1788TIP3    H126855   4.771   3.071  15.277 -0.0306  0.6949  0.2684
 1788TIP3    H226856   4.620   3.069  15.275 -0.0177  0.6848 -0.6198
 1789TIP3   OH226857   4.753   6.182   3.464 -0.3194 -0.6677  0.0019
 1789TIP3    H126858   4.722   6.237   3.392  2.3014  2.9331  1.5045
 1789TIP3    H226859   4.815   6.121   3.422 -0.1766  0.2070 -1.0939
 1790TIP3   OH226860   3.810   4.626   4.418 -0.0039 -0.5230 -0.3736
 1790TIP3    H126861   3.745   4.624   4.488  0.6333  1.2136  0.2940
 1790TIP3    H226862   3.862   4.704   4.436  0.8377 -0.6441 -2.1872
 1791TIP3   OH226863   1.954   0.079  14.302  0.2284 -0.2212  0.2169
 1791TIP3    H126864   2.007   0.078  14.223  0.9845 -0.4371  0.7250
 1791TIP3    H226865   1.968  -0.006  14.342  1.5134  0.6342  1.6715
 1792TIP3   OH226866   3.529   5.067  12.300 -0.0576 -0.4431 -0.3788
 1792TIP3    H126867   3.579   4.995  12.339 -1.5080 -0.8573  0.7223
 1792TIP3    H226868   3.479   5.026  12.229 -2.3541 -0.9268  1.4604
 1793TIP3   OH226869   3.204   2.175   2.195 -0.4476 -0.6055  0.2298
 1793TIP3    H126870   3.140   2.107   2.175  0.0413 -0.7676 -0.7595
 1793TIP3    H226871   3.275   2.162   2.133  0.3320 -0.1133  0.9978
 1794TIP3   OH226872   5.254   1.061  15.307  0.5905  0.5757 -0.2974
 1794TIP3    H126873   5.287   1.104  15.228  3.3529  2.1166  1.5634
 1794TIP3    H226874   5.296   0.975  15.307 -0.8051 -0.1070 -1.3925
 1795TIP3   OH226875   3.930   5.460   3.037  0.0823  0.6154  0.2794
 1795TIP3    H126876   3.920   5.382   3.093 -0.0673 -0.0905 -0.7298
 1795TIP3    H226877   3.870   5.446   2.965  0.3429  1.4958 -0.1182
 1796TIP3   OH226878   4.549   6.524   1.237  0.1318  0.4096 -0.4034
 1796TIP3    H126879   4.608   6.589   1.276  0.3044 -0.0581  0.1241
 1796TIP3    H226880   4.471   6.527   1.293  0.2463 -0.0303 -0.2207
 1797TIP3   OH226881   3.125   5.409   3.426  0.6058  0.2995 -0.3866
 1797TIP3    H126882   3.210   5.366   3.426  0.3644 -0.1861  0.5769
 1797TIP3    H226883   3.128   5.469   3.501  0.0720  0.2257 -0.3022
 1798TIP3   OH226884   6.225   1.410   6.279  0.2683 -0.7878  0.3919
 1798TIP3    H126885   6.139   1.372   6.262 -0.5295  1.1464 -0.0042
 1798TIP3    H226886   6.287   1.344   6.249 -1.0682 -2.4008  1.1417
 1799TIP3   OH226887   0.684   6.424   4.762  0.3734 -0.2525 -0.1464
 1799TIP3    H126888   0.694   6.330   4.779  0.3063  0.0391  1.5540
 1799TIP3    H226889   0.608   6.430   4.704  0.5000 -1.2582 -0.4290
 1800TIP3   OH226890   2.397   4.174  13.916  0.6397 -0.0454 -0.5977
 1800TIP3    H126891   2.318   4.224  13.894  1.0202  0.0985 -1.6897
 1800TIP3    H226892   2.366   4.103  13.972 -0.0255  0.9307  0.2783
 1801TIP3   OH226893   4.010   3.233   5.845  0.0523 -0.6548 -0.3451
 1801TIP3    H126894   3.945   3.301   5.830 -0.6760 -1.1093  0.6495
 1801TIP3    H226895   4.094   3.279   5.847 -0.4781  0.2970  0.8660
 1802TIP3   OH226896   6.111   1.992   5.684 -0.0219 -0.3648  0.0982
 1802TIP3    H126897   6.074   2.079   5.701 -3.9646 -1.8048 -0.4186
 1802TIP3    H226898   6.152   2.000   5.598  2.3849  1.7484  1.3916
 1803TIP3   OH226899   4.323   4.287  10.425  0.1215 -0.4009  0.0376
 1803TIP3    H126900   4.322   4.359  10.362  0.5342 -1.3086 -1.0373
 1803TIP3    H226901   4.394   4.308  10.485  0.0816  0.2096 -0.1294
 1804TIP3   OH226902   2.291   2.241  16.642 -0.6637 -0.3377  0.7489
 1804TIP3    H126903   2.333   2.210  16.562  2.5616  1.4228  1.6589
 1804TIP3    H226904   2.321   2.181  16.710 -0.4931  0.2794  1.2286
 1805TIP3   OH226905   3.530   6.762  17.117  0.1713 -0.7529 -0.3933
 1805TIP3    H126906   3.571   6.845  17.092  0.2297 -1.3372 -2.2832
 1805TIP3    H226907   3.600   6.698  17.109  0.3475 -0.8856  1.8717
 1806TIP3   OH226908   0.749   5.289  15.537 -0.4957  0.5753 -0.2478
 1806TIP3    H126909   0.670   5.336  15.565 -1.2851 -1.4057  1.0335
 1806TIP3    H226910   0.781   5.247  15.617  1.5309  0.8848 -0.8851
 1807TIP3   OH226911   6.790   3.628   0.265 -0.1388  0.1575 -0.1008
 1807TIP3    H126912   6.779   3.599   0.175 -1.9313  0.6080 -0.0564
 1807TIP3    H226913   6.728   3.573   0.315  1.5122 -0.7436  0.9953
 1808TIP3   OH226914   0.979   1.831  16.362  0.0723 -0.0905  0.3543
 1808TIP3    H126915   1.012   1.777  16.290 -1.2587 -1.7204  0.9360
 1808TIP3    H226916   1.039   1.815  16.434  0.1048 -0.2136  0.2985
 1809TIP3   OH226917   0.210   4.434   0.231 -0.2789 -0.0911  0.2841
 1809TIP3    H126918   0.231   4.356   0.282  1.1944 -0.7540 -1.2805
 1809TIP3    H226919   0.115   4.441   0.238 -0.4113 -1.8712  0.6875
 1810TIP3   OH226920   1.161   5.832  10.453 -0.4572 -0.5301 -0.0804
 1810TIP3    H126921   1.204   5.769  10.397  1.4713  1.1953 -0.5956
 1810TIP3    H226922   1.195   5.814  10.541  0.2577 -0.0730 -0.2617
 1811TIP3   OH226923   1.301   3.937   4.731 -0.5614 -0.2461 -0.3978
 1811TIP3    H126924   1.358   3.861   4.715 -1.1031 -0.7202 -0.1114
 1811TIP3    H226925   1.283   3.934   4.825 -0.5512  0.2630 -0.3819
 1812TIP3   OH226926   3.162   3.634   5.311  0.0478  0.5070  0.7832
 1812TIP3    H126927   3.107   3.561   5.284 -0.1208  1.0718 -0.4415
 1812TIP3    H226928   3.183   3.615   5.403 -0.6194 -0.6764  0.7105
 1813TIP3   OH226929   5.781   5.433   3.287  0.4701 -0.3094  0.3158
 1813TIP3    H126930   5.705   5.384   3.317  1.4856 -2.4761 -0.5907
 1813TIP3    H226931   5.744   5.503   3.233 -1.0060  0.1777  1.8908
 1814TIP3   OH226932   2.246   0.863   5.662  0.4159  0.5263  0.0687
 1814TIP3    H126933   2.331   0.821   5.651 -0.0983 -0.3504 -0.6511
 1814TIP3    H226934   2.209   0.864   5.573 -0.1265  1.3320  0.2975
 1815TIP3   OH226935   1.455   2.731  12.789  0.1284  0.3139  0.2171
 1815TIP3    H126936   1.378   2.787  12.794 -1.1602 -1.2223 -2.0817
 1815TIP3    H226937   1.528   2.789  12.813 -1.4771  2.2882  0.4368
 1816TIP3   OH226938   3.152   4.683   4.588  0.5890  0.7394  0.3047
 1816TIP3    H126939   3.193   4.695   4.502 -0.2814  0.6100 -0.1302
 1816TIP3    H226940   3.112   4.767   4.608 -0.0144  0.4906  0.1566
 1817TIP3   OH226941   4.113   1.273   2.704 -0.2396  0.4710  0.5736
 1817TIP3    H126942   4.055   1.198   2.715  0.8851 -0.3546  0.9660
 1817TIP3    H226943   4.189   1.238   2.659 -0.1368  1.5926 -0.1375
 1818TIP3   OH226944   0.165   3.468   3.386 -0.1596 -0.4711 -1.0510
 1818TIP3    H126945   0.129   3.476   3.474 -0.0815  0.6494 -1.1133
 1818TIP3    H226946   0.254   3.436   3.399 -0.0691 -0.0811 -0.7103
 1819TIP3   OH226947   2.024   3.860   6.653 -0.5649  0.0636  0.3161
 1819TIP3    H126948   2.082   3.846   6.728  0.9966  0.2555 -0.8302
 1819TIP3    H226949   2.015   3.955   6.648  0.4145  0.1240 -0.5232
 1820TIP3   OH226950   6.237   1.006   2.624  0.1013  0.2867 -0.4454
 1820TIP3    H126951   6.199   1.093   2.639 -0.0553  0.0575  0.4689
 1820TIP3    H226952   6.323   1.009   2.665 -0.4898 -0.4657  0.8624
 1821TIP3   OH226953   4.706   2.928   1.324  0.4558  0.1137 -0.5621
 1821TIP3    H126954   4.633   2.986   1.302  0.0935 -0.7632 -1.7490
 1821TIP3    H226955   4.717   2.873   1.246  1.1991 -0.9818  0.3042
 1822TIP3   OH226956   5.601   5.487  12.295  0.2085 -0.0787 -0.1816
 1822TIP3    H126957   5.624   5.508  12.204  0.3196 -0.7032 -0.2981
 1822TIP3    H226958   5.601   5.391  12.298  0.7125 -0.0522  0.6099
 1823TIP3   OH226959   3.987   3.080   4.156  0.5927  0.4783  0.0332
 1823TIP3    H126960   4.055   3.140   4.125  0.0727  0.1301 -1.8253
 1823TIP3    H226961   3.973   3.019   4.084  0.0264 -0.9633  1.3268
 1824TIP3   OH226962   5.950   6.626   0.103 -0.1093 -0.4957  0.3041
 1824TIP3    H126963   6.030   6.671   0.074  0.1808 -0.9712  0.3592
 1824TIP3    H226964   5.980   6.565   0.170 -0.7075  0.2285  1.2387
 1825TIP3   OH226965   4.884   6.026   5.682 -0.5450  0.4278  0.1765
 1825TIP3    H126966   4.888   6.119   5.703 -0.4160  0.7165 -1.0912
 1825TIP3    H226967   4.805   6.017   5.629 -1.3331 -0.4349  1.4759
 1826TIP3   OH226968   0.184   4.989  11.995 -0.4845  0.0059  0.2120
 1826TIP3    H126969   0.156   5.054  11.931 -1.7314  0.2029  0.9414
 1826TIP3    H226970   0.277   5.007  12.009 -0.5984  1.0021 -0.2989
 1827TIP3   OH226971   1.783   4.624   3.885  0.2811  0.3322  0.7548
 1827TIP3    H126972   1.798   4.566   3.810  0.5036 -2.1179  2.6270
 1827TIP3    H226973   1.715   4.685   3.855 -0.8176 -1.6331 -0.9100
 1828TIP3   OH226974   3.003   4.413  17.014  0.1928  0.3914  0.0481
 1828TIP3    H126975   3.005   4.444  16.924 -0.3611 -1.4632 -0.6218
 1828TIP3    H226976   3.069   4.344  17.017  0.5789  0.7978  1.2117
 1829TIP3   OH226977   6.799   0.490  15.721  0.0378 -0.2293 -0.0536
 1829TIP3    H126978   6.782   0.554  15.790  3.1411  1.2052 -0.4822
 1829TIP3    H226979   6.769   0.533  15.641 -0.1060 -0.3168 -0.0460
 1830TIP3   OH226980   4.162   1.570  12.004  0.1940  0.2954 -0.7041
 1830TIP3    H126981   4.178   1.476  12.009 -0.7623 -0.0290 -3.2291
 1830TIP3    H226982   4.150   1.597  12.095 -1.5996 -2.3982 -0.0831
 1831TIP3   OH226983   3.136   0.942   3.681 -0.0265  0.4995  0.4462
 1831TIP3    H126984   3.189   0.874   3.723  2.3737  0.7388 -2.0676
 1831TIP3    H226985   3.175   1.024   3.711  0.0168  0.7048 -0.1712
 1832TIP3   OH226986   3.563   6.165  11.995  0.5146 -0.0884  0.0117
 1832TIP3    H126987   3.617   6.232  11.953 -0.6936  1.6513  1.1657
 1832TIP3    H226988   3.496   6.215  12.043 -0.8777 -2.1426  0.2582
 1833TIP3   OH226989   0.355   4.690  12.792 -0.4944  0.0711 -0.3384
 1833TIP3    H126990   0.307   4.613  12.822 -2.3101  1.2318 -0.1955
 1833TIP3    H226991   0.317   4.710  12.707 -1.1554  1.7535  0.3312
 1834TIP3   OH226992   0.487   4.600   5.462 -0.1026  0.3062 -0.5871
 1834TIP3    H126993   0.504   4.506   5.469  3.0242  0.7739 -1.1784
 1834TIP3    H226994   0.464   4.627   5.551  2.7011 -0.3923  0.3896
 1835TIP3   OH226995   3.529   3.787   3.622 -0.2000  0.2550 -0.5142
 1835TIP3    H126996   3.517   3.882   3.620  1.1415  0.4940  1.2207
 1835TIP3    H226997   3.613   3.774   3.665 -0.4539 -1.7404 -0.5459
 1836TIP3   OH226998   2.921   6.014  14.950  0.3289 -0.0694  0.0046
 1836TIP3    H126999   2.928   6.073  14.874 -1.8192 -1.0102 -0.9376
 1836TIP3    H227000   3.005   5.969  14.952  0.7234  0.5649 -1.3162
 1837TIP3   OH227001   6.112   1.703   5.064 -0.0277  0.5840 -0.3687
 1837TIP3    H127002   6.138   1.679   5.153  2.1306  0.9494 -0.8736
 1837TIP3    H227003   6.023   1.736   5.073  0.1255  0.5097  1.6380
 1838TIP3   OH227004   5.535   1.437  11.054  0.4999 -0.2581 -0.1215
 1838TIP3    H127005   5.601   1.383  11.097  1.5482  0.7746 -0.4050
 1838TIP3    H227006   5.553   1.426  10.960 -0.3385 -0.7173 -0.2363
 1839TIP3   OH227007   1.135   5.550   0.012 -0.1035 -0.1665  0.3492
 1839TIP3    H127008   1.102   5.468   0.047  2.2273 -1.1867  0.2399
 1839TIP3    H227009   1.081   5.617   0.054 -2.9434 -1.7794 -0.6039
 1840TIP3   OH227010   1.497   2.895   5.757  0.4780  0.5858  0.4214
 1840TIP3    H127011   1.457   2.821   5.713  1.2345  0.5718 -0.2604
 1840TIP3    H227012   1.460   2.895   5.845 -1.5875  1.0396 -0.4326
 1841TIP3   OH227013   6.214   3.761   5.959  0.2215  0.1078  0.9602
 1841TIP3    H127014   6.247   3.805   5.880 -0.7951 -1.7153 -0.5466
 1841TIP3    H227015   6.178   3.831   6.012 -0.4876  1.2330 -0.9370
 1842TIP3   OH227016   6.245   5.960   4.844 -0.0444  0.9809  0.0533
 1842TIP3    H127017   6.308   5.923   4.907 -0.9587  1.0401  1.0081
 1842TIP3    H227018   6.235   5.891   4.779  0.1693  0.5226  0.4953
 1843TIP3   OH227019   0.785   0.582  14.147 -1.0484 -0.5726 -0.6567
 1843TIP3    H127020   0.748   0.627  14.223 -1.3633 -0.6592 -0.7606
 1843TIP3    H227021   0.822   0.652  14.093 -1.2344 -0.4721 -0.6518
 1844TIP3   OH227022   4.938   2.516  15.214 -0.3082 -0.0975  0.7756
 1844TIP3    H127023   4.973   2.438  15.171 -1.0598 -0.4183  0.7502
 1844TIP3    H227024   4.878   2.483  15.280 -1.2105  0.4866  0.2516
 1845TIP3   OH227025   1.103   1.107  12.312 -0.8042  0.0570  0.4196
 1845TIP3    H127026   1.126   1.013  12.309 -0.3732  0.1721 -0.1049
 1845TIP3    H227027   1.009   1.108  12.329 -0.7815 -0.4716  0.6110
 1846TIP3   OH227028   2.602   1.370  11.881  0.6117  0.6556  0.1717
 1846TIP3    H127029   2.530   1.346  11.822  0.5218  1.0167  0.1303
 1846TIP3    H227030   2.561   1.378  11.967  0.7648  0.0143  0.3050
 1847TIP3   OH227031   0.194   3.782  12.220  0.6765 -0.5357 -0.3430
 1847TIP3    H127032   0.145   3.797  12.139  2.0228 -2.8603 -1.6482
 1847TIP3    H227033   0.258   3.854  12.223  0.0887  0.0178 -0.8970
 1848TIP3   OH227034   5.320   6.131  15.424  0.0305  0.0238  0.1833
 1848TIP3    H127035   5.322   6.036  15.414  0.9107  0.1986 -1.4664
 1848TIP3    H227036   5.351   6.146  15.513  1.6120 -1.1472 -0.1500
 1849TIP3   OH227037   5.622   0.555  17.023  0.0033  0.0534 -0.0756
 1849TIP3    H127038   5.577   0.470  17.023 -1.7716  0.9752  0.0465
 1849TIP3    H227039   5.636   0.574  16.930  1.2500 -0.7945 -0.0753
 1850TIP3   OH227040   0.458   2.502  12.446  0.0353 -0.0435  0.6773
 1850TIP3    H127041   0.513   2.469  12.374  0.5962  1.0932  0.5678
 1850TIP3    H227042   0.466   2.436  12.514  1.6548  0.1432  0.6995
 1851TIP3   OH227043   2.070   4.852  14.202  0.4829  0.4345 -0.3795
 1851TIP3    H127044   2.116   4.924  14.160 -0.7427  2.2399  1.2786
 1851TIP3    H227045   2.053   4.790  14.131  2.2105  1.4160 -1.6911
 1852TIP3   OH227046   3.514   6.543   1.168 -0.2750 -0.0816  0.7306
 1852TIP3    H127047   3.504   6.453   1.200 -0.6146 -0.5539 -0.6393
 1852TIP3    H227048   3.454   6.595   1.221 -1.3976 -0.9703  0.3517
 1853TIP3   OH227049   2.164   3.076   6.056 -0.2373  0.1784 -1.0105
 1853TIP3    H127050   2.114   3.145   6.100 -0.9603 -0.7798 -0.3061
 1853TIP3    H227051   2.250   3.115   6.042  0.0834  0.4715  1.4618
 1854TIP3   OH227052   1.619   5.343  12.065 -0.1516 -0.3727  0.2342
 1854TIP3    H127053   1.662   5.375  12.145  1.2497 -1.6232  0.0059
 1854TIP3    H227054   1.679   5.370  11.994 -1.2975  0.5754 -0.3951
 1855TIP3   OH227055   1.526   2.350  14.533  0.1034  0.0058  0.0008
 1855TIP3    H127056   1.436   2.321  14.548  0.1101  0.2174  0.4641
 1855TIP3    H227057   1.553   2.387  14.617  0.3316  0.7077 -0.3798
 1856TIP3   OH227058   4.705   2.556  13.910  0.3374  0.1441 -0.3944
 1856TIP3    H127059   4.723   2.639  13.955 -1.3856  0.3651 -0.0646
 1856TIP3    H227060   4.781   2.542  13.855 -0.0664  2.8592 -1.7476
 1857TIP3   OH227061   5.663   4.363  12.111 -0.6693 -0.4080 -0.1857
 1857TIP3    H127062   5.641   4.349  12.203 -0.3837  1.2559  0.1521
 1857TIP3    H227063   5.578   4.365  12.067 -0.9755  1.5573  0.4583
 1858TIP3   OH227064   5.182   0.871  13.446 -0.0441 -0.2158  0.2919
 1858TIP3    H127065   5.251   0.830  13.498  0.4918 -1.4948 -1.3734
 1858TIP3    H227066   5.102   0.855  13.495  0.0367 -4.0331 -0.7062
 1859TIP3   OH227067   5.981   6.581  11.211  0.1688  0.1799  0.3193
 1859TIP3    H127068   5.937   6.550  11.290  0.1063  0.9688  0.5959
 1859TIP3    H227069   5.933   6.539  11.139  0.2353 -0.5527  0.6914
 1860TIP3   OH227070   5.465   2.971   2.060  0.0873 -0.2235  0.0287
 1860TIP3    H127071   5.521   3.048   2.048 -0.4510  0.2375  0.3896
 1860TIP3    H227072   5.524   2.896   2.054  0.4420  0.1618 -1.5108
 1861TIP3   OH227073   0.535   3.031   0.480  0.4213 -0.5917  0.4513
 1861TIP3    H127074   0.564   3.032   0.389 -0.4546 -1.1449  0.1568
 1861TIP3    H227075   0.585   2.960   0.521  0.8230 -0.3360  0.4048
 1862TIP3   OH227076   2.996   1.581   5.333  0.7048  0.3484  0.4275
 1862TIP3    H127077   2.941   1.502   5.335  0.8565  0.2206 -0.1406
 1862TIP3    H227078   3.077   1.554   5.376  1.3652 -0.2981 -1.1659
 1863TIP3   OH227079   0.815   1.297  16.676  0.1243  0.1430 -0.4514
 1863TIP3    H127080   0.728   1.336  16.668  0.9966  3.0809  2.9491
 1863TIP3    H227081   0.870   1.349  16.618  0.2609  0.5334  0.0247
 1864TIP3   OH227082   6.502   2.698  12.207 -0.2817  0.4064  0.3935
 1864TIP3    H127083   6.595   2.714  12.223 -0.0520  0.1725 -0.7091
 1864TIP3    H227084   6.499   2.647  12.126 -1.3207 -0.3566  0.8944
 1865TIP3   OH227085   0.422   1.118  13.530 -0.0551 -0.5900  0.5320
 1865TIP3    H127086   0.423   1.134  13.624  0.5564 -0.1829  0.4602
 1865TIP3    H227087   0.437   1.024  13.522  1.3245 -0.4146  0.8063
 1866TIP3   OH227088   3.016   1.631  12.228  0.2340 -0.1086  0.3447
 1866TIP3    H127089   3.025   1.536  12.230  2.7042  0.0892  0.0062
 1866TIP3    H227090   3.096   1.664  12.270 -0.4021  1.8134  0.0896
 1867TIP3   OH227091   4.878   5.662  16.477 -0.0670  0.0002 -0.0276
 1867TIP3    H127092   4.920   5.733  16.526 -0.4602  0.1456  0.1065
 1867TIP3    H227093   4.785   5.674  16.494 -0.0322 -1.4824  1.2312
 1868TIP3   OH227094   0.032   2.200   4.513  0.1879  0.0376  0.3291
 1868TIP3    H127095   0.119   2.225   4.543 -0.3994  0.1510  2.0158
 1868TIP3    H227096   0.040   2.108   4.488  1.3605  0.7063 -1.9000
 1869TIP3   OH227097   3.235   5.157  14.354 -0.0120 -0.1687  0.7568
 1869TIP3    H127098   3.300   5.135  14.287  0.8627 -1.6732  2.0503
 1869TIP3    H227099   3.254   5.248  14.376  0.7814 -0.1741  0.1510
 1870TIP3   OH227100   0.588   1.023   5.421 -0.4484  0.0244  0.9495
 1870TIP3    H127101   0.565   1.093   5.482 -0.0922  0.3947  0.6656
 1870TIP3    H227102   0.556   0.943   5.462 -0.0248  0.2481  1.7245
 1871TIP3   OH227103   1.489   5.627   2.463  0.5078  0.5293 -0.8421
 1871TIP3    H127104   1.566   5.675   2.433  1.3020  0.8531  1.5811
 1871TIP3    H227105   1.418   5.692   2.461  0.3847  0.3572 -2.6119
 1872TIP3   OH227106   2.462   3.189  13.093  0.0645  0.1155  0.3622
 1872TIP3    H127107   2.488   3.103  13.061 -1.8283 -1.0990  1.9878
 1872TIP3    H227108   2.530   3.214  13.155 -0.0089 -0.7527  0.7938
 1873TIP3   OH227109   5.678   5.822   0.747  0.0617 -0.1209 -0.0471
 1873TIP3    H127110   5.632   5.875   0.811  1.6088  0.7431  0.3697
 1873TIP3    H227111   5.743   5.881   0.709  0.2936 -1.0897 -1.1941
 1874TIP3   OH227112   5.852   0.355  12.490  0.1060  0.2282  0.5275
 1874TIP3    H127113   5.848   0.432  12.547  1.6506 -1.1128  2.4800
 1874TIP3    H227114   5.946   0.341  12.474 -0.1758 -1.0829 -0.0561
 1875TIP3   OH227115   5.159   2.157   3.179  0.7870 -0.4261  0.1357
 1875TIP3    H127116   5.076   2.110   3.170  1.5356 -1.5586 -1.1187
 1875TIP3    H227117   5.201   2.149   3.093  0.7448  2.9901 -0.2740
 1876TIP3   OH227118   4.828   2.127   6.140  0.1433 -0.5446 -0.0809
 1876TIP3    H127119   4.832   2.042   6.185  0.5310 -0.6374 -0.2891
 1876TIP3    H227120   4.788   2.107   6.056 -0.2075 -0.4392  0.0619
 1877TIP3   OH227121   3.044   5.023  16.678  0.3048 -0.3506 -0.2510
 1877TIP3    H127122   2.962   5.004  16.631 -1.6595 -0.0784  2.9111
 1877TIP3    H227123   3.074   5.106  16.641 -0.9904 -0.3219 -1.2771
 1878TIP3   OH227124   3.587   2.568   0.748  0.8414 -0.4528 -0.1113
 1878TIP3    H127125   3.567   2.490   0.800  1.4199 -0.2956  0.3602
 1878TIP3    H227126   3.512   2.578   0.690 -0.5576  0.2313  1.7436
 1879TIP3   OH227127   4.567   3.479   3.973 -0.6209  0.0015 -0.2420
 1879TIP3    H127128   4.568   3.517   4.061 -1.8842 -1.1616  0.2889
 1879TIP3    H227129   4.630   3.532   3.924 -1.2580  1.8450  0.8701
 1880TIP3   OH227130   5.497   0.574   3.404 -0.1718 -0.3951 -0.5704
 1880TIP3    H127131   5.446   0.532   3.335  2.0428 -2.0407 -1.2509
 1880TIP3    H227132   5.584   0.586   3.366 -0.1216  2.7392  0.4227
 1881TIP3   OH227133   4.344   2.974   4.712  0.2841 -0.0997 -0.5715
 1881TIP3    H127134   4.399   3.033   4.661  1.5417 -1.3566 -0.6867
 1881TIP3    H227135   4.404   2.906   4.744 -1.4292 -2.2890 -1.8747
 1882TIP3   OH227136   4.785   3.640   6.803  0.0062  0.2700 -0.2232
 1882TIP3    H127137   4.870   3.613   6.768 -0.8983 -0.3887 -1.9789
 1882TIP3    H227138   4.774   3.730   6.771 -1.2621 -0.6699 -2.5640
 1883TIP3   OH227139   5.371   1.335  14.051 -0.2307  0.7049  0.6129
 1883TIP3    H127140   5.374   1.241  14.032  0.9200  0.7775  0.3843
 1883TIP3    H227141   5.328   1.373  13.974 -1.2362  0.2978  0.9785
 1884TIP3   OH227142   0.978   2.790   2.112  0.3436 -0.2231  0.2435
 1884TIP3    H127143   1.034   2.734   2.058  0.1600  1.7324 -2.0341
 1884TIP3    H227144   0.895   2.793   2.066  0.5761  2.4841 -0.0781
 1885TIP3   OH227145   5.619   1.162  14.262 -0.1670  0.7146 -0.3099
 1885TIP3    H127146   5.662   1.225  14.204 -2.0130  1.1073 -1.2951
 1885TIP3    H227147   5.549   1.211  14.304 -3.0267 -1.1309 -2.7311
 1886TIP3   OH227148   4.695   5.782   0.430  0.3738 -0.0581  0.4934
 1886TIP3    H127149   4.775   5.738   0.402 -0.2118 -0.6112 -0.3407
 1886TIP3    H227150   4.721   5.834   0.507  0.8826 -2.5673  2.0711
 1887TIP3   OH227151   2.817   5.987  10.975  0.6127  0.3891 -0.1252
 1887TIP3    H127152   2.886   6.053  10.978  0.4336  0.5765 -0.0880
 1887TIP3    H227153   2.749   6.026  10.920  0.2900  0.4492  0.3101
 1888TIP3   OH227154   3.472   0.540   1.650 -0.1174 -0.1096  0.2667
 1888TIP3    H127155   3.509   0.453   1.664  1.8589  0.5057 -0.8945
 1888TIP3    H227156   3.378   0.527   1.652  0.1623 -2.1932  0.6063
 1889TIP3   OH227157   2.339   6.810  15.833  0.0531 -0.1303 -0.1448
 1889TIP3    H127158   2.274   6.743  15.810 -2.5990  1.7206  1.5828
 1889TIP3    H227159   2.337   6.871  15.758  1.1088 -0.9761 -0.8766
 1890TIP3   OH227160   2.902   5.507   3.805 -0.4211 -0.3140 -0.0488
 1890TIP3    H127161   2.887   5.538   3.895 -0.1178 -0.7841  0.1624
 1890TIP3    H227162   2.925   5.415   3.815  1.0306 -0.0079 -0.4989
 1891TIP3   OH227163   6.583   3.413   2.962 -0.3490  0.0103 -0.7032
 1891TIP3    H127164   6.632   3.343   3.005 -0.2016 -0.6312 -1.8915
 1891TIP3    H227165   6.595   3.397   2.868  0.0667  1.9157 -0.9920
 1892TIP3   OH227166   1.615   4.185   4.161 -0.4194 -0.1687  0.1647
 1892TIP3    H127167   1.672   4.119   4.197 -1.5605 -1.3330 -0.1134
 1892TIP3    H227168   1.659   4.214   4.081  0.3538 -0.1730  0.5845
 1893TIP3   OH227169   2.083   4.774   3.161 -0.5128 -0.5021  0.0073
 1893TIP3    H127170   2.151   4.784   3.228 -0.6314 -0.5626  0.1361
 1893TIP3    H227171   2.112   4.698   3.110 -0.2728 -0.2801 -0.1893
 1894TIP3   OH227172   4.361   3.761   4.287 -0.9051  0.0972  0.0283
 1894TIP3    H127173   4.425   3.697   4.258 -1.3106 -0.9163  1.3140
 1894TIP3    H227174   4.278   3.731   4.250 -1.1618 -0.3430  0.9542
 1895TIP3   OH227175   0.960   1.101  14.047  0.0234 -0.3176 -0.0205
 1895TIP3    H127176   1.019   1.158  14.096 -0.3971 -0.3609  0.5341
 1895TIP3    H227177   0.925   1.157  13.978 -1.1574  0.3845  1.1297
 1896TIP3   OH227178   0.072   1.568   2.675 -0.0877 -0.3838 -0.3504
 1896TIP3    H127179  -0.011   1.529   2.650  0.0997 -1.6176  0.8663
 1896TIP3    H227180   0.126   1.494   2.703  1.9176  0.2442 -2.4534
 1897TIP3   OH227181   2.196   5.066   2.180 -0.7749  0.5212 -0.1517
 1897TIP3    H127182   2.204   4.982   2.134  0.6880  1.0549 -0.9383
 1897TIP3    H227183   2.127   5.112   2.133 -0.4997  0.3622 -0.7298
 1898TIP3   OH227184   1.647   4.473  11.761  0.1624 -0.0858  0.7861
 1898TIP3    H127185   1.719   4.477  11.698 -0.6542  1.9090 -0.0311
 1898TIP3    H227186   1.621   4.564  11.774 -3.2178 -0.8660 -0.0742
 1899TIP3   OH227187   6.261   3.205   6.857  0.0619 -0.0208 -0.2684
 1899TIP3    H127188   6.207   3.278   6.827  0.5028  1.0847  1.5933
 1899TIP3    H227189   6.207   3.158   6.920 -0.2323 -1.3439 -1.4774
 1900TIP3   OH227190   4.167   6.587  16.490  0.3468  0.1839  0.1153
 1900TIP3    H127191   4.089   6.637  16.512 -0.1588 -0.9066  0.8466
 1900TIP3    H227192   4.196   6.622  16.405 -0.7329  0.8233  0.0146
 1901TIP3   OH227193   4.390   1.853  15.479 -0.4469  0.1615  0.3059
 1901TIP3    H127194   4.367   1.886  15.392  0.0639  0.4921  0.2978
 1901TIP3    H227195   4.473   1.807  15.467  1.3739  3.0777  1.2327
 1902TIP3   OH227196   1.235   0.436  10.071  0.0835 -0.4228  0.1725
 1902TIP3    H127197   1.161   0.376  10.078 -2.1889  1.9030 -2.5291
 1902TIP3    H227198   1.222   0.497  10.143 -1.9350  1.2210 -1.4944
 1903TIP3   OH227199   1.578   0.558   5.466  0.1550 -0.0452 -0.4187
 1903TIP3    H127200   1.503   0.581   5.521 -0.7613 -0.1437 -1.6053
 1903TIP3    H227201   1.635   0.635   5.470  0.2330 -0.1665  0.8884
 1904TIP3   OH227202   2.824   2.158   2.506  0.5646  0.0647  0.5400
 1904TIP3    H127203   2.810   2.074   2.462 -2.4274  1.3446 -1.1132
 1904TIP3    H227204   2.884   2.206   2.449 -0.3454  0.2716 -0.2710
 1905TIP3   OH227205   0.899   4.298   6.292 -0.6701  1.0019 -0.4247
 1905TIP3    H127206   0.847   4.336   6.363 -0.0350  0.2506  0.4595
 1905TIP3    H227207   0.988   4.292   6.328 -1.0656 -2.8920  0.1556
 1906TIP3   OH227208   4.394   6.664  12.693  0.1288  0.2324  0.3857
 1906TIP3    H127209   4.421   6.657  12.785 -2.4212  0.8293  1.2141
 1906TIP3    H227210   4.385   6.574  12.664 -0.1839  0.0411  1.0615
 1907TIP3   OH227211   4.851   3.474  14.771 -0.5059 -0.4217  0.4000
 1907TIP3    H127212   4.893   3.518  14.698 -0.6034  0.2374  0.7396
 1907TIP3    H227213   4.871   3.381  14.758  0.5451 -0.1705  0.2325
 1908TIP3   OH227214   1.082   0.617  13.454  0.1237 -0.4549  0.9422
 1908TIP3    H127215   1.059   0.683  13.389 -1.4464 -1.8357  0.0536
 1908TIP3    H227216   1.177   0.610  13.449  0.1006  0.1327 -0.5453
 1909TIP3   OH227217   3.217   0.611   3.590  0.2386  0.6565  0.0523
 1909TIP3    H127218   3.232   0.704   3.608  0.4278  0.7008 -0.3274
 1909TIP3    H227219   3.122   0.604   3.580  0.3331  1.0647 -1.2931
 1910TIP3   OH227220   1.867   0.732  15.414 -0.0411  0.6492 -0.3298
 1910TIP3    H127221   1.860   0.641  15.440 -0.8583  0.4303 -1.2902
 1910TIP3    H227222   1.958   0.742  15.385  0.3301  0.4068  0.7225
 1911TIP3   OH227223   5.927   6.459  11.447  0.0729 -0.1861 -0.0635
 1911TIP3    H127224   6.019   6.433  11.456  0.0722 -0.4042 -0.6212
 1911TIP3    H227225   5.878   6.380  11.467  0.0307 -0.2553 -0.4298
 1912TIP3   OH227226   1.956   5.578  13.919 -1.0164  0.6108  0.0500
 1912TIP3    H127227   1.873   5.585  13.965 -1.0502  0.8800 -0.0502
 1912TIP3    H227228   2.016   5.538  13.982 -1.7641 -1.5875 -0.5640
 1913TIP3   OH227229   0.137   2.187  12.146  0.1743 -0.3428  0.2973
 1913TIP3    H127230   0.129   2.227  12.233 -0.2720 -0.1060  0.1451
 1913TIP3    H227231   0.214   2.228  12.108 -0.1888  0.2643  0.2050
 1914TIP3   OH227232   1.824   1.599   1.800  0.3431 -0.3517 -0.2920
 1914TIP3    H127233   1.867   1.681   1.774  2.1341 -1.7897 -1.9784
 1914TIP3    H227234   1.767   1.578   1.726 -2.0779  0.6418  1.2107
 1915TIP3   OH227235   6.393   3.825  13.069 -0.0022  0.0246  0.3057
 1915TIP3    H127236   6.463   3.867  13.019  0.6819 -2.8144 -1.2379
 1915TIP3    H227237   6.430   3.742  13.099 -1.0447  0.7862  3.9616
 1916TIP3   OH227238   5.459   3.478  15.140  0.0990 -0.4028  0.4362
 1916TIP3    H127239   5.534   3.537  15.140 -1.7093  1.9703  0.2564
 1916TIP3    H227240   5.456   3.444  15.050  0.3811  0.2731  0.1649
 1917TIP3   OH227241   0.749   3.736   2.653 -0.1801  0.6683 -0.2865
 1917TIP3    H127242   0.731   3.801   2.721  0.0057 -0.2732  0.6663
 1917TIP3    H227243   0.775   3.788   2.577  2.4949  1.6286  1.2339
 1918TIP3   OH227244   2.506   0.470  11.411  0.0617 -0.5286 -0.5928
 1918TIP3    H127245   2.448   0.540  11.441  0.4769 -1.1812  1.8660
 1918TIP3    H227246   2.580   0.472  11.471  0.6332 -2.3252 -1.1874
 1919TIP3   OH227247   1.983   2.526   4.139  0.3508 -0.5075  0.3183
 1919TIP3    H127248   2.024   2.608   4.113 -0.3099 -0.1831  0.2771
 1919TIP3    H227249   1.933   2.548   4.218 -0.7026 -0.6159 -0.3142
 1920TIP3   OH227250   0.470   1.972   1.397  0.3084 -0.2900  0.2271
 1920TIP3    H127251   0.462   2.067   1.394  0.9013 -0.1700  1.7599
 1920TIP3    H227252   0.503   1.947   1.311 -1.3825  0.7289 -0.7410
 1921TIP3   OH227253   2.426   3.855   1.564  0.4214  0.5436  0.4023
 1921TIP3    H127254   2.409   3.777   1.512  0.1510  1.0584 -0.3030
 1921TIP3    H227255   2.371   3.846   1.642  0.0925  0.2203  0.1309
 1922TIP3   OH227256   4.518   6.656  14.227  0.1420  0.1900 -0.7059
 1922TIP3    H127257   4.522   6.734  14.172  3.0814  0.2586 -0.4425
 1922TIP3    H227258   4.576   6.674  14.300 -1.8721 -0.8730  1.2196
 1923TIP3   OH227259   5.042   0.870  16.941  0.3900 -0.2587  0.5173
 1923TIP3    H127260   4.972   0.846  16.880  2.1816 -0.5269 -1.4824
 1923TIP3    H227261   5.045   0.797  17.003 -0.0081 -1.0257 -0.3467
 1924TIP3   OH227262   2.664   1.079  15.519 -0.0645  0.0123  0.3685
 1924TIP3    H127263   2.702   0.995  15.543  0.3561  0.1477  0.1878
 1924TIP3    H227264   2.709   1.103  15.438  0.5475  0.8999  0.9661
 1925TIP3   OH227265   5.289   0.046  12.975 -0.1177  0.0673  0.1369
 1925TIP3    H127266   5.210   0.073  13.022 -0.5520 -1.6189  0.3921
 1925TIP3    H227267   5.349   0.019  13.045  0.5085  0.8358 -0.0895
 1926TIP3   OH227268   1.846   1.136   1.170  0.1592  0.4342 -0.6502
 1926TIP3    H127269   1.823   1.228   1.188  0.9575  0.6820 -0.8803
 1926TIP3    H227270   1.938   1.129   1.197  1.4995  0.8785 -4.7877
 1927TIP3   OH227271   4.293   0.533   3.542  0.4252  0.3164 -0.5066
 1927TIP3    H127272   4.211   0.576   3.520 -0.7185 -1.6651 -0.1570
 1927TIP3    H227273   4.282   0.443   3.514  2.5917  0.0859 -0.7031
 1928TIP3   OH227274   3.913   1.777   1.383  0.0456 -0.0439  0.2821
 1928TIP3    H127275   3.864   1.695   1.396 -0.1863  0.0455 -0.0166
 1928TIP3    H227276   3.854   1.845   1.415  0.6243 -0.0716  1.4417
 1929TIP3   OH227277   3.373   0.724  15.730  0.3016  0.0865 -0.7452
 1929TIP3    H127278   3.455   0.727  15.681  1.4945  0.4815  1.2234
 1929TIP3    H227279   3.388   0.780  15.805 -2.0650  0.7936 -0.7523
 1930TIP3   OH227280   3.422   5.311  16.395  0.0767 -0.7129 -0.0980
 1930TIP3    H127281   3.484   5.282  16.462  0.5681  0.1203 -0.1824
 1930TIP3    H227282   3.417   5.406  16.406  0.9997 -0.4222 -1.9279
 1931TIP3   OH227283   1.846   0.148  14.002 -0.1585  0.3808 -0.0471
 1931TIP3    H127284   1.793   0.182  14.074 -0.6760  1.6072 -1.0006
 1931TIP3    H227285   1.785   0.096  13.950 -0.4461  1.7852 -1.1391
 1932TIP3   OH227286   0.396   5.040  14.677 -0.5370  0.2145 -0.2296
 1932TIP3    H127287   0.424   5.008  14.763 -0.5062  0.1194 -0.2748
 1932TIP3    H227288   0.457   5.110  14.655  0.4132 -0.7976 -0.8696
 1933TIP3   OH227289   1.093   3.870   5.277 -0.1945 -0.2766 -0.2929
 1933TIP3    H127290   1.164   3.908   5.328 -0.7085 -0.3717  0.5011
 1933TIP3    H227291   1.121   3.780   5.260  1.3704  0.6274 -2.8308
 1934TIP3   OH227292   4.889   6.035  16.799 -0.0313  0.4933 -0.9924
 1934TIP3    H127293   4.942   6.109  16.827 -0.4924  0.2953  0.4846
 1934TIP3    H227294   4.901   5.970  16.869  0.2442 -0.7756 -2.1755
 1935TIP3   OH227295   6.056   6.162  13.906  0.1131 -0.1136  0.0978
 1935TIP3    H127296   6.139   6.115  13.895  0.9626  1.8288 -1.9627
 1935TIP3    H227297   6.050   6.177  14.001  2.0198 -0.4215  0.2835
 1936TIP3   OH227298   2.318   3.759  12.324 -0.4023 -0.5288  0.3319
 1936TIP3    H127299   2.323   3.726  12.234  1.6552 -0.0544  0.2555
 1936TIP3    H227300   2.224   3.760  12.343 -0.9646  0.4886 -2.2401
 1937TIP3   OH227301   1.637   4.155   0.209  0.0589 -0.1356  0.4924
 1937TIP3    H127302   1.614   4.065   0.185 -0.0241  0.4918 -1.8938
 1937TIP3    H227303   1.553   4.198   0.226  0.2110 -1.2122  4.5303
 1938TIP3   OH227304   2.174   4.147   2.290  0.1331 -0.1274  0.5649
 1938TIP3    H127305   2.263   4.174   2.266  0.2511 -2.6406 -2.1259
 1938TIP3    H227306   2.117   4.200   2.234  0.0808 -0.7222  0.0514
 1939TIP3   OH227307   3.523   5.700  11.106  0.0450  0.0063 -0.1175
 1939TIP3    H127308   3.469   5.679  11.031  0.8790  0.6560 -0.9106
 1939TIP3    H227309   3.599   5.641  11.099 -1.2051 -1.9253  1.7747
 1940TIP3   OH227310   5.747   3.420  16.755  0.0028 -0.0192  0.0816
 1940TIP3    H127311   5.658   3.403  16.723  0.5774 -2.1838 -0.4020
 1940TIP3    H227312   5.765   3.348  16.815  0.4082  1.9184  2.3739
 1941TIP3   OH227313   2.441   5.796  16.096  0.0906 -0.3528 -0.1991
 1941TIP3    H127314   2.535   5.805  16.112  0.1871  1.1344 -1.4801
 1941TIP3    H227315   2.429   5.704  16.071  0.8874 -1.0475  1.9025
 1942TIP3   OH227316   3.693   5.309  13.410 -0.5901  0.3502 -0.5671
 1942TIP3    H127317   3.760   5.326  13.345  0.2178 -2.3902 -0.5044
 1942TIP3    H227318   3.739   5.308  13.494 -1.6298  3.9130  0.1020
 1943TIP3   OH227319   2.970   5.092  11.361  0.2966  0.1014  0.0220
 1943TIP3    H127320   2.897   5.155  11.354 -0.7306 -1.0825 -0.0640
 1943TIP3    H227321   3.048   5.144  11.342 -0.7611  0.8531 -2.4880
 1944TIP3   OH227322   5.871   4.624   5.884  0.0175  0.2252 -0.4743
 1944TIP3    H127323   5.811   4.553   5.909  0.3969 -0.5928 -1.8460
 1944TIP3    H227324   5.931   4.631   5.959 -0.6070 -0.2582  0.0843
 1945TIP3   OH227325   6.493   0.897  11.406 -0.5949 -0.0920  0.0424
 1945TIP3    H127326   6.548   0.833  11.361  1.2795  0.7388  1.1117
 1945TIP3    H227327   6.453   0.948  11.335  0.8858  0.0216 -0.7289
 1946TIP3   OH227328   1.880   5.432  13.292  0.2673 -0.2086 -0.6543
 1946TIP3    H127329   1.951   5.469  13.240  0.3254 -1.1009 -1.2068
 1946TIP3    H227330   1.924   5.394  13.369  0.5692 -2.1768 -1.7717
 1947TIP3   OH227331   4.347   4.103  13.846  0.6175  0.3264 -0.6175
 1947TIP3    H127332   4.331   4.053  13.927  0.7379 -0.0131 -0.8021
 1947TIP3    H227333   4.394   4.181  13.875  0.5655  0.2595 -0.3472
 1948TIP3   OH227334   0.382   5.305  16.533  0.4006  0.0270  0.1983
 1948TIP3    H127335   0.449   5.259  16.482 -1.3146 -1.6790 -0.5547
 1948TIP3    H227336   0.378   5.256  16.615 -0.9445 -0.7818 -0.3377
 1949TIP3   OH227337   3.247   2.934   2.731  0.3699 -0.8036  0.0403
 1949TIP3    H127338   3.170   2.990   2.723  2.0846  1.7010  0.3665
 1949TIP3    H227339   3.261   2.925   2.825  0.6526 -0.9823 -0.0185
 1950TIP3   OH227340   3.463   0.137  15.106 -0.1843  0.6048 -0.2756
 1950TIP3    H127341   3.542   0.190  15.119 -0.7062  1.7802 -1.7280
 1950TIP3    H227342   3.462   0.077  15.181  0.5839  2.4629  1.2828
 1951TIP3   OH227343   0.780   3.863  13.858 -0.1122 -0.1668 -0.0611
 1951TIP3    H127344   0.866   3.825  13.878  0.7589  2.0957  0.6726
 1951TIP3    H227345   0.740   3.878  13.944 -1.6949 -2.1653 -0.4248
 1952TIP3   OH227346   1.769   6.536  16.309 -0.7162 -0.0563 -0.5275
 1952TIP3    H127347   1.829   6.499  16.244  2.0188  0.3255  1.6742
 1952TIP3    H227348   1.746   6.622  16.274 -0.4592 -0.4571 -1.6919
 1953TIP3   OH227349   0.057   3.849  16.915 -0.3850  0.3309  0.3654
 1953TIP3    H127350   0.035   3.787  16.846 -0.9683  1.2958 -0.3237
 1953TIP3    H227351   0.152   3.852  16.916 -0.3713 -0.0282 -0.0984
 1954TIP3   OH227352   1.944   1.651  12.888  0.0851 -0.2302 -0.4882
 1954TIP3    H127353   1.857   1.615  12.873  0.0920 -0.9419  1.1189
 1954TIP3    H227354   1.977   1.671  12.801 -1.8402  0.4277 -1.0911
 1955TIP3   OH227355   0.542   3.915  11.116  0.0057  0.3191 -0.3545
 1955TIP3    H127356   0.557   3.989  11.174  1.0557 -0.5644  0.5309
 1955TIP3    H227357   0.556   3.949  11.028  0.1781  1.2371  0.0275
 1956TIP3   OH227358   4.881   1.494   3.350  0.8128  0.0647  0.0079
 1956TIP3    H127359   4.806   1.538   3.310  0.3794 -1.4634 -0.9127
 1956TIP3    H227360   4.945   1.487   3.279  1.7514  1.1473  0.7240
 1957TIP3   OH227361   1.473   1.038  16.191 -1.2068 -0.5318 -0.0590
 1957TIP3    H127362   1.536   0.968  16.178  0.3380  0.4647  1.8235
 1957TIP3    H227363   1.483   1.094  16.114  0.3624 -0.2863  0.3066
 1958TIP3   OH227364   5.994   5.960   4.040  0.6695 -1.0254 -0.5853
 1958TIP3    H127365   5.979   5.909   3.960 -1.1214  1.3021 -1.7881
 1958TIP3    H227366   5.910   5.958   4.085  0.8668  0.0223 -0.1629
 1959TIP3   OH227367   0.992   0.717  12.858 -0.5937  0.3395  0.1667
 1959TIP3    H127368   0.944   0.701  12.939 -0.4798 -0.7359  0.0306
 1959TIP3    H227369   0.924   0.740  12.794 -0.7141  0.8824  0.4895
 1960TIP3   OH227370   2.580   2.691  15.928  0.0181  0.1607  0.4819
 1960TIP3    H127371   2.566   2.766  15.871 -0.9200 -0.3835 -0.0097
 1960TIP3    H227372   2.664   2.655  15.900 -0.7185 -0.4710 -0.9881
 1961TIP3   OH227373   0.907   0.362  13.495  0.2733  0.3375 -0.3691
 1961TIP3    H127374   0.877   0.443  13.538  0.3558  0.8880 -1.3458
 1961TIP3    H227375   0.973   0.327  13.554  0.0252  0.8305  0.2098
 1962TIP3   OH227376   2.377   1.639  17.100 -0.1227  0.5018  0.0962
 1962TIP3    H127377   2.372   1.734  17.094  0.7043  0.6268  1.4019
 1962TIP3    H227378   2.287   1.611  17.119 -0.1962  1.0891  0.6107
 1963TIP3   OH227379   0.329   0.785  11.857 -0.6269 -0.7837  0.0832
 1963TIP3    H127380   0.326   0.850  11.926  1.6782 -2.1634  1.5452
 1963TIP3    H227381   0.416   0.795  11.818 -0.7614 -2.0583 -0.5746
 1964TIP3   OH227382   2.255   2.533   1.011 -0.0866  0.3460 -0.3676
 1964TIP3    H127383   2.242   2.536   0.916  1.2902 -1.0559 -0.6153
 1964TIP3    H227384   2.193   2.468   1.042  2.0808 -1.9910 -0.8076
 1965TIP3   OH227385   2.188   3.402   1.768  0.4984  0.0958 -0.2407
 1965TIP3    H127386   2.215   3.368   1.854  3.1875  1.1309 -0.6194
 1965TIP3    H227387   2.269   3.403   1.717 -0.4676  2.4369 -1.7892
 1966TIP3   OH227388   4.880   0.408   1.216  0.3221  0.1995 -0.3146
 1966TIP3    H127389   4.862   0.342   1.282  0.3769  0.0479 -0.4523
 1966TIP3    H227390   4.892   0.359   1.135 -0.0391  0.4053 -0.4976
 1967TIP3   OH227391   5.811   4.509   4.859  0.3386  0.4076 -0.2845
 1967TIP3    H127392   5.825   4.498   4.765  0.3960  0.8551 -0.3261
 1967TIP3    H227393   5.892   4.479   4.899 -0.3343 -1.4725 -0.2835
 1968TIP3   OH227394   3.970   5.057   0.579  0.2999  0.1757 -0.0167
 1968TIP3    H127395   3.960   4.965   0.555  0.3341 -0.0440  0.7780
 1968TIP3    H227396   3.975   5.104   0.496 -0.9322 -0.4167 -0.4352
 1969TIP3   OH227397   3.526   5.374   1.314 -0.0723 -0.2247  0.2038
 1969TIP3    H127398   3.496   5.436   1.380 -0.6735 -0.4667  0.1685
 1969TIP3    H227399   3.501   5.413   1.230  1.9788  0.7657  0.0321
 1970TIP3   OH227400   2.225   5.901   1.332 -0.2101 -0.0267  0.4043
 1970TIP3    H127401   2.141   5.918   1.290 -0.0315 -0.0783  0.0127
 1970TIP3    H227402   2.205   5.891   1.425 -0.3453  2.0240  0.6035
 1971TIP3   OH227403   6.774   2.201  14.933  0.8165 -0.2909  0.3900
 1971TIP3    H127404   6.679   2.201  14.944  0.6829 -0.8082 -0.7235
 1971TIP3    H227405   6.805   2.132  14.992  0.4317 -0.6445  0.1781
 1972TIP3   OH227406   0.165   6.047   2.564 -0.0463  0.2708 -0.0906
 1972TIP3    H127407   0.123   5.975   2.519 -1.2725  1.3003 -0.6314
 1972TIP3    H227408   0.236   6.074   2.506  0.1504 -0.2226 -0.0817
 1973TIP3   OH227409   6.295   5.081   3.552 -0.2017  0.0269  0.6362
 1973TIP3    H127410   6.387   5.098   3.573  0.0920 -1.4883  0.6583
 1973TIP3    H227411   6.264   5.025   3.623 -0.7268 -0.6307 -0.0935
 1974TIP3   OH227412   2.022   5.053   3.406 -0.3779  0.2044  0.6328
 1974TIP3    H127413   1.968   5.123   3.445 -1.0794 -0.1244  0.2519
 1974TIP3    H227414   1.978   5.032   3.324  0.9175  0.6655 -0.2035
 1975TIP3   OH227415   0.429   4.170   4.579  0.2079  0.3144  0.5597
 1975TIP3    H127416   0.377   4.243   4.544  1.8395  0.3585 -1.8535
 1975TIP3    H227417   0.514   4.178   4.536  1.6331 -0.8712  3.0285
 1976TIP3   OH227418   2.038   2.623  16.098 -0.0146  0.6814  0.2743
 1976TIP3    H127419   2.102   2.600  16.165  0.7888  0.8774 -0.4276
 1976TIP3    H227420   1.992   2.699  16.133 -0.8763 -0.3577  1.4320
 1977TIP3   OH227421   3.062   0.885  14.352 -0.0668 -0.0634  0.0540
 1977TIP3    H127422   3.082   0.898  14.259  1.8633  0.9375  0.6073
 1977TIP3    H227423   3.066   0.972  14.391 -0.5914 -0.5121  1.1467
 1978TIP3   OH227424   3.348   2.274  12.713 -0.0967  0.2581  0.1981
 1978TIP3    H127425   3.313   2.310  12.794 -0.8159  0.2991 -0.1320
 1978TIP3    H227426   3.443   2.288  12.720  0.3943 -3.4099  2.9025
 1979TIP3   OH227427   6.188   0.236   2.728  0.8091 -0.3901 -0.8732
 1979TIP3    H127428   6.095   0.247   2.710  0.8312 -1.5539 -1.7190
 1979TIP3    H227429   6.195   0.149   2.767  1.0575  1.1374  2.7094
 1980TIP3   OH227430   0.981   2.809   6.744  0.0781 -0.2226 -0.1701
 1980TIP3    H127431   0.913   2.742   6.732 -1.4153  1.2769 -0.3100
 1980TIP3    H227432   0.940   2.890   6.714  1.3423  1.0211  1.3775
 1981TIP3   OH227433   2.702   2.342   6.343  0.0584  0.6563  0.0065
 1981TIP3    H127434   2.756   2.263   6.345  1.6360  1.7302  0.8329
 1981TIP3    H227435   2.638   2.329   6.412  1.1803  0.6712  1.0764
 1982TIP3   OH227436   3.515   6.549   5.239  0.2746  0.3015 -0.3532
 1982TIP3    H127437   3.568   6.577   5.164 -1.6662  0.6746 -1.6521
 1982TIP3    H227438   3.470   6.629   5.267  1.2992  0.2488  1.5044
 1983TIP3   OH227439   6.157   2.538  12.895  0.8360  0.3660  0.4524
 1983TIP3    H127440   6.227   2.474  12.907  0.8660  0.6041  1.6860
 1983TIP3    H227441   6.148   2.548  12.801  1.1044 -1.1476  0.2625
 1984TIP3   OH227442   3.835   1.604   0.439 -0.1621  0.2298 -0.1433
 1984TIP3    H127443   3.807   1.667   0.372  1.7316  1.0408 -0.2074
 1984TIP3    H227444   3.918   1.570   0.406  0.5722  0.3187  1.5808
 1985TIP3   OH227445   4.789   0.205   5.147  0.1073  0.3152 -0.1452
 1985TIP3    H127446   4.746   0.278   5.103  0.4950  2.4427  2.7880
 1985TIP3    H227447   4.719   0.159   5.193  0.2605  0.7902  0.5830
 1986TIP3   OH227448   6.007   4.966  13.455 -0.3466 -0.2088  0.5587
 1986TIP3    H127449   5.940   4.909  13.418 -2.7293  2.2801  0.8107
 1986TIP3    H227450   6.002   4.950  13.550 -0.9965  0.3665  0.6276
 1987TIP3   OH227451   0.456   0.608  14.913 -0.2961 -0.5780 -0.3913
 1987TIP3    H127452   0.466   0.679  14.850  0.2741 -0.7809 -0.5301
 1987TIP3    H227453   0.443   0.651  14.997  0.2656 -0.3161 -0.4422
 1988TIP3   OH227454   0.898   0.633   5.869 -0.7893  0.1530  0.3152
 1988TIP3    H127455   0.945   0.621   5.787 -0.9064  1.0123  0.1186
 1988TIP3    H227456   0.963   0.615   5.937 -1.3473 -3.1339  0.0739
 1989TIP3   OH227457   5.652   6.497   0.950 -0.1147 -0.0129  0.3011
 1989TIP3    H127458   5.567   6.463   0.920 -0.7519  1.4543  0.3980
 1989TIP3    H227459   5.717   6.442   0.905 -1.1074 -1.3824  0.5011
 1990TIP3   OH227460   5.589   0.080   5.025 -0.1275  0.4423 -0.6432
 1990TIP3    H127461   5.682   0.061   5.036 -0.9826 -2.8409  1.6423
 1990TIP3    H227462   5.554   0.082   5.114 -2.4671  0.5720 -1.5274
 1991TIP3   OH227463   6.502   4.103  12.909 -0.4516  0.1167  0.5992
 1991TIP3    H127464   6.442   4.105  12.834  1.4435 -2.0999 -1.0660
 1991TIP3    H227465   6.461   4.160  12.974 -1.3910  3.3684 -2.6625
 1992TIP3   OH227466   1.981   6.240   6.174 -0.7589  0.1024  0.2861
 1992TIP3    H127467   1.897   6.278   6.147 -0.6215 -0.2357 -0.6338
 1992TIP3    H227468   2.003   6.178   6.104  0.5320  0.5982  0.2427
 1993TIP3   OH227469   1.929   5.236   3.784 -0.1183  0.1722  0.0338
 1993TIP3    H127470   1.939   5.247   3.689  0.7311  3.2448  0.3969
 1993TIP3    H227471   2.017   5.216   3.815 -0.2984 -0.3223  0.2208
 1994TIP3   OH227472   2.187   5.228  10.751 -0.8825  0.7424  0.7353
 1994TIP3    H127473   2.172   5.136  10.772 -0.5619  0.4846 -0.1437
 1994TIP3    H227474   2.226   5.265  10.830 -0.9739  0.1146  1.0760
 1995TIP3   OH227475   5.005   5.541  11.918 -0.1435 -0.7688  0.2581
 1995TIP3    H127476   5.064   5.499  11.855  0.0827 -0.6045  0.3628
 1995TIP3    H227477   4.998   5.478  11.990 -0.2588 -0.8794  0.1500
 1996TIP3   OH227478   0.132   1.732   5.286 -0.1940 -0.0154 -0.3599
 1996TIP3    H127479   0.134   1.816   5.240  1.4249  0.7000  0.9701
 1996TIP3    H227480   0.191   1.676   5.235 -1.5228 -0.4855 -1.4335
 1997TIP3   OH227481   4.205   1.388  11.475  0.1310 -0.1416  0.2078
 1997TIP3    H127482   4.294   1.414  11.451 -0.1748  0.7674  0.0266
 1997TIP3    H227483   4.177   1.330  11.404  0.6145 -0.5121  0.3195
 1998TIP3   OH227484   2.703   5.815   3.048 -0.2174  0.2047 -0.2471
 1998TIP3    H127485   2.784   5.765   3.038 -0.6769 -0.4964 -0.4320
 1998TIP3    H227486   2.711   5.855   3.135  0.2820  0.0692 -0.2262
 1999TIP3   OH227487   2.845   2.462  14.047  0.8347 -0.1601  0.6470
 1999TIP3    H127488   2.899   2.386  14.025  2.0215  0.6671  0.6807
 1999TIP3    H227489   2.777   2.427  14.105  1.3421 -1.2005  0.6276
 2000TIP3   OH227490   2.288   1.869   5.142  0.3893  0.2235 -0.2317
 2000TIP3    H127491   2.212   1.812   5.142 -0.8570  1.7434 -3.4621
 2000TIP3    H227492   2.355   1.821   5.092 -0.6677  1.4652 -2.9713
 2001TIP3   OH227493   1.920   5.129   0.630  0.1338 -0.1123 -0.2800
 2001TIP3    H127494   1.882   5.072   0.698  1.1184  0.3523  0.6614
 2001TIP3    H227495   2.007   5.093   0.615 -0.2967 -0.5824 -1.7530
 2002TIP3   OH227496   4.132   2.085  14.642 -0.5737  0.6134 -0.1950
 2002TIP3    H127497   4.114   1.993  14.623  0.2859  0.2201  0.8725
 2002TIP3    H227498   4.137   2.090  14.737  1.7247  1.3245 -0.3219
 2003TIP3   OH227499   2.589   0.437  16.450  0.0147  0.2482 -0.0638
 2003TIP3    H127500   2.659   0.408  16.507 -0.4316 -0.1628  0.2807
 2003TIP3    H227501   2.509   0.407  16.493 -0.2485 -1.7874 -1.8781
 2004TIP3   OH227502   5.558   6.512   1.527  0.0317 -0.4201  0.9773
 2004TIP3    H127503   5.494   6.441   1.527  1.5828 -1.8298  1.6614
 2004TIP3    H227504   5.566   6.538   1.435 -1.3041 -0.4120  0.8544
 2005TIP3   OH227505   0.393   3.756   2.702  0.1612  0.9331 -0.3480
 2005TIP3    H127506   0.362   3.795   2.784  0.1819 -0.0331  0.1172
 2005TIP3    H227507   0.317   3.761   2.644 -0.2367  0.4729  0.1270
 2006TIP3   OH227508   0.269   4.863   4.857 -0.4168 -0.1106 -0.3476
 2006TIP3    H127509   0.270   4.886   4.950  2.0882 -0.1723 -0.3153
 2006TIP3    H227510   0.294   4.770   4.855 -0.2854 -0.0610 -1.0694
 2007TIP3   OH227511   4.734   6.438  16.548  1.2765  0.4561  0.0399
 2007TIP3    H127512   4.639   6.428  16.557  1.2846 -0.5250 -0.7900
 2007TIP3    H227513   4.767   6.426  16.637  0.6806  0.0463  0.2114
 2008TIP3   OH227514   0.720   6.728  16.149 -0.5030 -0.6698 -0.2438
 2008TIP3    H127515   0.722   6.654  16.088 -1.3044  0.7110 -2.0071
 2008TIP3    H227516   0.670   6.696  16.224  1.7737 -2.8958  0.3863
 2009TIP3   OH227517   6.278   5.599  15.004  0.2237  0.7391  0.0303
 2009TIP3    H127518   6.341   5.639  15.063  0.1498 -0.3247  0.8532
 2009TIP3    H227519   6.325   5.524  14.967 -0.7674 -0.5031  1.2121
 2010TIP3   OH227520   0.054   1.149  10.990  0.1416 -0.0032  0.0793
 2010TIP3    H127521   0.121   1.103  10.939  0.3210  1.2834 -0.8674
 2010TIP3    H227522   0.087   1.238  10.998 -0.7736  0.2752  0.8637
 2011TIP3   OH227523   1.012   4.601   5.162  0.4540  0.4580  0.1594
 2011TIP3    H127524   0.955   4.565   5.094  1.4237  0.0137 -0.4325
 2011TIP3    H227525   0.958   4.600   5.241 -0.7542  1.1926 -0.6465
 2012TIP3   OH227526   0.675   1.071  11.822  0.1448 -0.2525 -0.2211
 2012TIP3    H127527   0.735   0.999  11.803 -0.5722 -0.7446 -0.6470
 2012TIP3    H227528   0.699   1.139  11.759  0.5229 -0.2815 -0.1140
 2013TIP3   OH227529   1.008   0.358   0.105 -0.3670  0.3308 -0.0445
 2013TIP3    H127530   1.028   0.357   0.199 -1.0529 -0.8786  0.1055
 2013TIP3    H227531   1.092   0.342   0.062 -0.5996 -2.6779  0.5069
 2014TIP3   OH227532   5.019   2.201   2.723  0.4408  0.2460  0.7596
 2014TIP3    H127533   5.051   2.134   2.784 -0.3680 -0.2642  0.6312
 2014TIP3    H227534   4.938   2.165   2.688  0.7628  0.6543 -0.4283
 2015TIP3   OH227535   6.473   1.573  12.889  0.4188  0.6863  0.2696
 2015TIP3    H127536   6.472   1.623  12.971 -1.4293 -1.6311  1.7271
 2015TIP3    H227537   6.417   1.498  12.906  1.0806 -0.5599 -2.7119
 2016TIP3   OH227538   6.557   6.528   1.343  0.1242  0.8007  0.2319
 2016TIP3    H127539   6.595   6.495   1.424  1.8050  1.5262 -0.2334
 2016TIP3    H227540   6.475   6.571   1.370  0.1089  0.0663  1.3791
 2017TIP3   OH227541   1.070   0.561  11.683  0.1437  0.0365  0.6509
 2017TIP3    H127542   1.025   0.607  11.612 -2.4158 -0.1951  2.0532
 2017TIP3    H227543   1.104   0.482  11.643  0.9329  1.1118 -0.8530
 2018TIP3   OH227544   4.236   5.654   5.289 -0.2359  0.6144 -0.4579
 2018TIP3    H127545   4.215   5.733   5.239 -1.6617 -0.1509 -1.1186
 2018TIP3    H227546   4.162   5.595   5.272  0.8538 -0.9068 -0.0687
 2019TIP3   OH227547   2.784   5.897  11.822 -0.6546  0.3454  0.1235
 2019TIP3    H127548   2.734   5.970  11.859 -1.1657  0.4524 -0.7629
 2019TIP3    H227549   2.870   5.933  11.804 -1.6223  1.4158 -2.5765
 2020TIP3   OH227550   1.399   4.456   5.411 -0.1889 -0.1539  0.4583
 2020TIP3    H127551   1.304   4.468   5.402 -0.2373  0.2938  1.5324
 2020TIP3    H227552   1.427   4.422   5.326 -1.0573  1.3176 -0.4422
 2021TIP3   OH227553   1.040   4.952   1.325 -0.0087  0.0310  0.7416
 2021TIP3    H127554   1.107   5.006   1.282  0.0490 -0.5235  0.1330
 2021TIP3    H227555   0.998   5.012   1.386  2.6220 -0.1684  2.8626
 2022TIP3   OH227556   0.351   1.791   3.812  0.8589  0.0880 -0.3219
 2022TIP3    H127557   0.335   1.799   3.906 -0.1446 -0.5582 -0.4271
 2022TIP3    H227558   0.353   1.696   3.797 -2.3778  0.1529 -1.4901
 2023TIP3   OH227559   0.612   2.277  16.882 -0.3508 -0.6599  0.3511
 2023TIP3    H127560   0.578   2.194  16.914 -1.0781 -0.5753 -0.1911
 2023TIP3    H227561   0.575   2.286  16.794 -1.9103  1.2062  1.1630
 2024TIP3   OH227562   6.562   3.435  11.474  0.1263  0.0431  0.2741
 2024TIP3    H127563   6.561   3.521  11.516 -1.3679 -0.2391  0.8465
 2024TIP3    H227564   6.577   3.373  11.545  1.7257 -0.1397 -0.2161
 2025TIP3   OH227565   5.435   2.412   3.157  0.3651  0.0078  0.5564
 2025TIP3    H127566   5.522   2.453   3.158  1.0710 -1.4626  0.9815
 2025TIP3    H227567   5.379   2.476   3.201  1.3274  0.7767  0.7085
 2026TIP3   OH227568   1.449   1.207   6.818  0.1482 -0.4766 -0.1037
 2026TIP3    H127569   1.384   1.240   6.880  0.1161 -1.0080  0.1563
 2026TIP3    H227570   1.513   1.277   6.809 -1.0997  0.5353 -1.3066
 2027TIP3   OH227571   0.336   5.639   3.904 -0.5556  0.3145 -0.0341
 2027TIP3    H127572   0.327   5.580   3.830  1.2108  0.5200 -0.4387
 2027TIP3    H227573   0.249   5.676   3.916 -1.2698 -1.0399 -0.8842
 2028TIP3   OH227574   5.699   1.933  15.595 -0.0253 -0.1758 -0.0565
 2028TIP3    H127575   5.715   1.877  15.671  1.8264 -1.0128 -1.0489
 2028TIP3    H227576   5.700   2.022  15.630 -0.7893 -0.6248  1.1497
 2029TIP3   OH227577   0.886   1.794  13.603  0.2003  0.6947 -0.1140
 2029TIP3    H127578   0.815   1.838  13.649  0.6144  0.2084  1.0151
 2029TIP3    H227579   0.958   1.857  13.606  0.3350  0.5255  0.2071
 2030TIP3   OH227580   6.683   5.585  15.404  0.0675  0.2624  0.1973
 2030TIP3    H127581   6.612   5.539  15.449 -1.2425  1.5873 -0.4741
 2030TIP3    H227582   6.748   5.517  15.386 -0.5194 -0.7576  1.8201
 2031TIP3   OH227583   5.040   6.270  15.001  0.4021 -0.5224  0.0618
 2031TIP3    H127584   5.079   6.194  14.957 -0.5744 -1.8687  1.4381
 2031TIP3    H227585   4.992   6.232  15.075  1.1858  1.5784  1.7007
 2032TIP3   OH227586   1.873   1.106  12.514 -0.2656 -0.2582 -0.6865
 2032TIP3    H127587   1.923   1.112  12.432  0.8844  0.6489  0.0634
 2032TIP3    H227588   1.894   1.019  12.549  1.1125  0.2633 -0.1862
 2033TIP3   OH227589   0.799   0.512  12.199 -0.3215  0.1891  0.5281
 2033TIP3    H127590   0.783   0.423  12.229  2.0088 -1.2819 -2.3484
 2033TIP3    H227591   0.726   0.532  12.142  0.7978 -1.1800 -1.4415
 2034TIP3   OH227592   0.512   1.441   2.131 -0.1630 -0.1108  0.3329
 2034TIP3    H127593   0.419   1.449   2.107  0.2685  1.6288 -0.8494
 2034TIP3    H227594   0.525   1.509   2.197  0.5307  0.4462 -0.3655
 2035TIP3   OH227595   5.970   0.057  16.978  0.5242 -0.3257  0.0060
 2035TIP3    H127596   5.924   0.016  16.905 -0.1687 -1.8273  1.2562
 2035TIP3    H227597   6.059   0.023  16.974  0.9345  0.8512 -1.0932
 2036TIP3   OH227598   2.386   6.299  16.856 -0.5851 -0.5745 -0.0842
 2036TIP3    H127599   2.418   6.217  16.817 -0.6490 -0.7080  0.1440
 2036TIP3    H227600   2.291   6.290  16.854 -0.5603 -1.3029  1.6412
 2037TIP3   OH227601   6.367   0.924  16.330  0.0493 -0.4949  0.0001
 2037TIP3    H127602   6.340   0.981  16.402  0.7198  0.9523 -0.8812
 2037TIP3    H227603   6.398   0.844  16.373 -0.9128 -0.2034  1.2460
 2038TIP3   OH227604   6.647   2.118  14.358  0.6828  0.1803  0.0223
 2038TIP3    H127605   6.738   2.110  14.386  0.4865 -0.6053  0.4310
 2038TIP3    H227606   6.640   2.209  14.329  1.6297  0.2172 -0.1328
 2039TIP3   OH227607   2.810   0.257  15.669  0.0879  0.3202 -0.2560
 2039TIP3    H127608   2.877   0.322  15.689 -1.1309  2.7113 -3.5477
 2039TIP3    H227609   2.738   0.277  15.728  0.5801  0.5228  0.2780
 2040TIP3   OH227610   2.689   5.986   2.098  0.1363  0.8854  0.1902
 2040TIP3    H127611   2.704   6.042   2.022  0.0501 -0.3903 -0.7874
 2040TIP3    H227612   2.642   5.910   2.063  1.7485 -0.6157  1.1613
 2041TIP3   OH227613   1.335   4.070  11.547 -0.4775  0.4935 -0.6432
 2041TIP3    H127614   1.335   3.975  11.538 -2.4605  0.1334  2.3244
 2041TIP3    H227615   1.424   4.092  11.575 -0.1736 -0.5725 -0.7602
 2042TIP3   OH227616   0.739   2.638   5.235 -0.1094  0.0405  0.2721
 2042TIP3    H127617   0.697   2.722   5.217  0.8209  0.3706 -0.3628
 2042TIP3    H227618   0.782   2.651   5.319  0.9666  0.5561 -0.3548
 2043TIP3   OH227619   4.737   1.700   1.178 -0.0884 -0.3764 -0.9013
 2043TIP3    H127620   4.808   1.680   1.117  1.9627  0.3870  1.1388
 2043TIP3    H227621   4.730   1.623   1.233  0.7150  0.4045  0.3228
 2044TIP3   OH227622   1.599   3.009  13.387 -0.0682 -0.0805 -0.1633
 2044TIP3    H127623   1.554   2.925  13.390  0.0392 -0.2073 -1.5775
 2044TIP3    H227624   1.691   2.987  13.373 -0.0730  0.2706 -0.7864
 2045TIP3   OH227625   5.246   6.767  11.166 -0.0892 -0.0641 -0.0614
 2045TIP3    H127626   5.307   6.839  11.179 -0.7475  0.7335 -1.3345
 2045TIP3    H227627   5.277   6.723  11.086  0.8666 -1.7831  1.2129
 2046TIP3   OH227628   6.615   3.148  16.025  0.2573  0.1482 -0.1612
 2046TIP3    H127629   6.593   3.057  16.008  1.2472  0.1635 -1.7337
 2046TIP3    H227630   6.532   3.195  16.021  0.1413 -0.2005 -2.9368
 2047TIP3   OH227631   1.112   1.053   0.698 -0.5974 -0.3415 -0.2134
 2047TIP3    H127632   1.186   1.007   0.738  0.8826  0.6896 -1.6525
 2047TIP3    H227633   1.080   1.111   0.767 -0.3743 -1.1516  0.5850
 2048TIP3   OH227634   1.562   5.797  15.441 -0.1508  0.5134  0.3635
 2048TIP3    H127635   1.647   5.781  15.401 -1.3928 -1.1136 -1.7162
 2048TIP3    H227636   1.572   5.882  15.485  1.5437  1.9724 -2.7023
 2049TIP3   OH227637   3.178   6.044   5.114 -0.7370  0.0459 -0.2229
 2049TIP3    H127638   3.190   6.062   5.207 -3.7334  1.6667 -0.1083
 2049TIP3    H227639   3.203   6.125   5.070 -0.3502 -0.3603 -0.7620
 2050TIP3   OH227640   3.791   5.226  14.808  0.2812 -0.3052 -0.0935
 2050TIP3    H127641   3.765   5.139  14.839 -1.3633 -1.4313 -4.3451
 2050TIP3    H227642   3.710   5.277  14.811  1.5577  1.7252  3.9805
 2051TIP3   OH227643   0.793   2.352   0.475 -0.7822 -0.1290 -0.0789
 2051TIP3    H127644   0.711   2.397   0.454 -0.8103 -0.6523 -1.1250
 2051TIP3    H227645   0.861   2.415   0.452 -0.8994  0.9171  2.2683
 2052TIP3   OH227646   3.033   4.206  16.536 -0.4589  0.1040 -0.1550
 2052TIP3    H127647   2.946   4.165  16.541 -0.4173  0.3187  3.3056
 2052TIP3    H227648   3.093   4.133  16.520 -0.8435 -0.6369  1.7303
 2053TIP3   OH227649   5.295   4.233   4.590 -0.5538  0.1173  0.7598
 2053TIP3    H127650   5.366   4.169   4.583 -2.4063 -2.1416  1.7114
 2053TIP3    H227651   5.291   4.254   4.683 -1.8300 -0.6204  0.8835
 2054TIP3   OH227652   4.997   0.699   5.341 -0.0004  0.3407  0.2406
 2054TIP3    H127653   5.089   0.711   5.319  0.0006  0.9786  0.5910
 2054TIP3    H227654   4.983   0.753   5.419 -0.3527 -0.7512  0.9476
 2055TIP3   OH227655   3.329   2.444   0.893  0.1599  0.3456  0.0967
 2055TIP3    H127656   3.339   2.397   0.811 -1.1039 -0.5277  0.4415
 2055TIP3    H227657   3.250   2.496   0.882  1.2938  2.0972 -0.1166
 2056TIP3   OH227658   1.379   2.700  15.497  0.3996 -0.1712  0.2713
 2056TIP3    H127659   1.437   2.636  15.539 -2.3112 -1.1023  2.7947
 2056TIP3    H227660   1.365   2.767  15.564 -4.8198 -2.1872  1.4188
 2057TIP3   OH227661   4.477   0.195   0.715  0.0650 -0.2396 -0.3800
 2057TIP3    H127662   4.492   0.118   0.659  1.4303 -0.3859  0.1537
 2057TIP3    H227663   4.532   0.263   0.675  0.2259 -0.0487  0.1653
 2058TIP3   OH227664   0.214   3.132  15.146  0.0825  0.1057  0.0142
 2058TIP3    H127665   0.215   3.037  15.156  1.2596  0.1613  0.5010
 2058TIP3    H227666   0.131   3.151  15.100 -1.4450 -0.9085  2.2797
 2059TIP3   OH227667   4.256   1.794   4.208 -0.5121  0.1894 -0.2982
 2059TIP3    H127668   4.348   1.806   4.232 -0.6061  0.8819 -0.2659
 2059TIP3    H227669   4.258   1.726   4.141  0.1174  0.7906 -0.9074
 2060TIP3   OH227670   4.949   5.144  11.287  0.0379 -0.3385  0.1405
 2060TIP3    H127671   4.940   5.217  11.225  0.3694  0.3988  0.9443
 2060TIP3    H227672   4.977   5.186  11.368  1.5662 -1.5338  0.2468
 2061TIP3   OH227673   0.994   3.226   5.929 -0.1382 -0.1154 -0.1612
 2061TIP3    H127674   0.919   3.169   5.948 -0.4599  0.7238  1.1994
 2061TIP3    H227675   1.056   3.208   6.000  0.0421  0.7165 -0.1032
 2062TIP3   OH227676   6.165   3.568   1.313 -0.0819  0.6103 -0.0554
 2062TIP3    H127677   6.115   3.490   1.289 -0.9297  1.3304 -0.6555
 2062TIP3    H227678   6.126   3.597   1.396 -0.9877  1.4394 -0.7583
 2063TIP3   OH227679   4.256   5.720  11.549 -0.0917 -0.7041  0.0142
 2063TIP3    H127680   4.222   5.739  11.462  0.9771  1.6709  0.0588
 2063TIP3    H227681   4.321   5.651  11.535 -2.0605 -2.4764 -0.6076
 2064TIP3   OH227682   1.780   3.422   2.914  0.0008 -0.0029  0.0790
 2064TIP3    H127683   1.841   3.476   2.963 -0.8191  0.0945  1.0176
 2064TIP3    H227684   1.709   3.481   2.890 -1.5949 -0.9269  2.3289
 2065TIP3   OH227685   0.546   6.445  14.412  0.6859  0.0277  0.9267
 2065TIP3    H127686   0.525   6.539  14.409 -2.1462 -0.5867 -0.8779
 2065TIP3    H227687   0.546   6.418  14.320 -0.8338 -2.1613  1.5396
 2066TIP3   OH227688   5.267   0.365  17.195 -0.6042  0.5920 -0.1861
 2066TIP3    H127689   5.286   0.449  17.238  1.2049  0.7380 -1.2153
 2066TIP3    H227690   5.294   0.299  17.259 -2.0168  0.7885  0.6170
 2067TIP3   OH227691   3.348   5.600  13.922 -0.2968 -0.3506  0.2187
 2067TIP3    H127692   3.331   5.513  13.886  0.9892 -0.0456 -1.1770
 2067TIP3    H227693   3.274   5.653  13.893  0.5790 -0.1830 -1.7666
 2068TIP3   OH227694   3.430   2.493  11.551 -0.0293  0.2726 -1.1296
 2068TIP3    H127695   3.462   2.406  11.575 -2.2758 -0.6194 -1.2647
 2068TIP3    H227696   3.370   2.478  11.479 -1.9361  1.7050  0.0856
 2069TIP3   OH227697   0.931   2.027   2.084 -0.5366 -0.1357 -0.5105
 2069TIP3    H127698   0.951   1.934   2.093 -0.7812 -0.1593 -0.1755
 2069TIP3    H227699   0.894   2.036   1.996 -2.4550 -0.7200  0.2032
 2070TIP3   OH227700   4.447   6.124  16.009 -0.0696 -0.0005 -0.1881
 2070TIP3    H127701   4.356   6.153  16.012 -0.1217 -0.0102 -1.5565
 2070TIP3    H227702   4.478   6.151  15.923  1.4908  0.7707  0.5906
 2071TIP3   OH227703   4.261   1.747  13.656  0.1478 -0.1937 -0.2505
 2071TIP3    H127704   4.272   1.827  13.707  0.9778 -0.1469 -0.4895
 2071TIP3    H227705   4.212   1.688  13.714 -0.4731  0.4881 -0.0813
 2072TIP3   OH227706   6.239   5.179  15.024 -0.5983 -0.1065 -0.0944
 2072TIP3    H127707   6.300   5.248  14.998 -1.0437  0.5326  0.5341
 2072TIP3    H227708   6.264   5.157  15.113 -0.2598 -0.9861 -0.3979
 2073TIP3   OH227709   0.121   3.449   4.387 -0.0266 -0.2234 -0.6176
 2073TIP3    H127710   0.204   3.401   4.387 -0.0933 -0.3446  0.1277
 2073TIP3    H227711   0.123   3.500   4.468 -0.7975 -0.4308 -0.4636
 2074TIP3   OH227712   0.197   4.202   2.881 -0.3269 -0.4511 -0.0262
 2074TIP3    H127713   0.250   4.235   2.953 -1.8762  0.6056  0.6745
 2074TIP3    H227714   0.193   4.275   2.819 -1.9036 -0.0757  0.4836
 2075TIP3   OH227715   1.840   2.355   0.256 -0.2840  0.1779  0.0234
 2075TIP3    H127716   1.855   2.337   0.163  0.8285  0.5431  0.1246
 2075TIP3    H227717   1.751   2.324   0.273 -0.6769  0.5717 -1.2851
 2076TIP3   OH227718   4.359   3.997  14.871 -0.3426 -0.5143 -0.1240
 2076TIP3    H127719   4.382   3.969  14.783 -0.4051 -1.0912  0.0444
 2076TIP3    H227720   4.328   3.918  14.915 -1.3068 -0.0353  0.0917
 2077TIP3   OH227721   3.775   3.255   4.116 -0.1913  0.0036 -0.2365
 2077TIP3    H127722   3.840   3.195   4.154 -0.8785  0.2520  1.3923
 2077TIP3    H227723   3.823   3.336   4.103  0.0612 -0.0846  0.1206
 2078TIP3   OH227724   6.490   3.352   5.279 -0.3809  0.1809 -0.1173
 2078TIP3    H127725   6.530   3.417   5.221 -0.5249 -0.3914 -0.8655
 2078TIP3    H227726   6.404   3.388   5.299 -0.7756 -0.1543 -1.1776
 2079TIP3   OH227727   0.217   5.269   0.270 -0.3626  0.0389 -0.2552
 2079TIP3    H127728   0.271   5.347   0.279  0.3531 -0.6105  1.2930
 2079TIP3    H227729   0.130   5.296   0.299 -1.0751  1.2614 -3.3735
 2080TIP3   OH227730   5.400   1.017   2.059 -0.2204  0.3627 -0.1287
 2080TIP3    H127731   5.371   1.034   2.149  0.9750  0.7040  0.2008
 2080TIP3    H227732   5.351   1.081   2.006  1.6473  2.5556  0.7004
 2081TIP3   OH227733   5.495   1.754  11.203 -0.1446 -0.5174  0.0547
 2081TIP3    H127734   5.468   1.665  11.225  0.4113 -0.8271 -0.5141
 2081TIP3    H227735   5.588   1.748  11.184 -0.0281  0.2506  0.3592
 2082TIP3   OH227736   2.166   6.644   4.201  0.2133 -0.5425 -0.3757
 2082TIP3    H127737   2.104   6.589   4.248 -0.5903  1.5526  1.1246
 2082TIP3    H227738   2.248   6.637   4.251  0.4703 -1.3827 -0.9228
 2083TIP3   OH227739   0.159   4.458  14.246  0.0666 -0.6716  0.1286
 2083TIP3    H127740   0.200   4.407  14.176 -2.1151 -1.8598 -0.3492
 2083TIP3    H227741   0.182   4.411  14.326  0.8880 -0.4666  0.0135
 2084TIP3   OH227742   1.093   5.786  14.482  0.3682  0.1190 -0.5454
 2084TIP3    H127743   1.012   5.767  14.529  1.2541 -2.0052  0.1707
 2084TIP3    H227744   1.087   5.734  14.402  1.2522 -0.4429 -0.2469
 2085TIP3   OH227745   6.485   3.764  11.728 -0.1630  0.0532 -0.0056
 2085TIP3    H127746   6.491   3.847  11.681 -0.2734  1.5501  2.5307
 2085TIP3    H227747   6.407   3.722  11.691  0.1097  0.8893 -1.5835
 2086TIP3   OH227748   3.920   1.396   2.541 -0.1497  0.6281  0.7320
 2086TIP3    H127749   3.985   1.377   2.609  1.5029  1.0537 -0.6970
 2086TIP3    H227750   3.928   1.491   2.527 -1.0679  0.6759  0.5546
 2087TIP3   OH227751   5.303   1.667  14.495 -0.7285  0.8896  0.3555
 2087TIP3    H127752   5.288   1.597  14.431 -0.6939 -0.1059  1.4224
 2087TIP3    H227753   5.368   1.723  14.453  0.5422 -0.6560  0.1580
 2088TIP3   OH227754   3.962   3.989  13.917 -0.1209  0.1407 -0.1331
 2088TIP3    H127755   4.044   4.005  13.870  0.2853 -0.3631  0.3960
 2088TIP3    H227756   3.914   4.071  13.911  1.1429  0.9861  0.9812
 2089TIP3   OH227757   3.190   1.250  13.912  0.2167  0.4372 -0.0959
 2089TIP3    H127758   3.258   1.193  13.948 -0.2335  0.0235  0.0968
 2089TIP3    H227759   3.160   1.303  13.986  0.9364  1.2402 -0.3621
 2090TIP3   OH227760   1.170   1.908  13.657 -0.1341 -0.0945  0.5208
 2090TIP3    H127761   1.165   1.822  13.699  0.0911 -0.0055  0.7320
 2090TIP3    H227762   1.264   1.923  13.646 -0.1903 -0.0637  0.0985
 2091TIP3   OH227763   2.255   5.675   2.324  0.2151  0.5752 -0.2655
 2091TIP3    H127764   2.210   5.638   2.248  1.9080  2.0375 -2.0262
 2091TIP3    H227765   2.198   5.654   2.398 -0.5096 -2.5912 -1.6392
 2092TIP3   OH227766   5.688   4.491   6.264 -0.0536  0.0283  0.4259
 2092TIP3    H127767   5.695   4.586   6.274  1.3063  0.1885 -1.7569
 2092TIP3    H227768   5.601   4.478   6.225 -0.8510  0.2481  2.1127
 2093TIP3   OH227769   4.792   6.658  14.132  0.0305  0.3510  0.5726
 2093TIP3    H127770   4.865   6.597  14.124  0.6089  1.0008  0.8538
 2093TIP3    H227771   4.775   6.662  14.226 -1.8576 -1.5272  0.3678
 2094TIP3   OH227772   6.530   6.616  13.380  0.2840 -0.4937  0.1698
 2094TIP3    H127773   6.452   6.577  13.340 -0.0939  0.6311 -0.2257
 2094TIP3    H227774   6.558   6.682  13.317 -0.6639  1.7235  1.9736
 2095TIP3   OH227775   3.655   3.701  12.843  1.0491 -0.1509 -0.0633
 2095TIP3    H127776   3.569   3.676  12.876  1.1682  0.6395  0.8506
 2095TIP3    H227777   3.637   3.741  12.758  0.5668 -0.4658 -0.1139
 2096TIP3   OH227778   1.687   4.970   2.030  0.0260 -0.0432 -0.2616
 2096TIP3    H127779   1.600   4.933   2.045  0.2120 -0.0399  0.8375
 2096TIP3    H227780   1.723   4.984   2.117  0.2632  2.0619 -0.6686
 2097TIP3   OH227781   2.436   0.704  13.768  0.1270 -0.3468 -0.0020
 2097TIP3    H127782   2.468   0.649  13.696  1.2135 -0.2420  0.3969
 2097TIP3    H227783   2.490   0.783  13.763  0.1433 -0.2994  0.8612
 2098TIP3   OH227784   6.520   4.786  14.661 -0.6981 -0.2668 -0.7047
 2098TIP3    H127785   6.480   4.730  14.594  1.0834 -1.5530 -0.7148
 2098TIP3    H227786   6.614   4.777  14.647 -0.3519  1.8653  0.0220
 2099TIP3   OH227787   2.587   5.609  15.179 -0.7030  0.2965 -0.1963
 2099TIP3    H127788   2.648   5.633  15.109 -2.5340  0.0895 -1.9192
 2099TIP3    H227789   2.577   5.514  15.172 -0.7198  0.2431  0.4956
 2100TIP3   OH227790   3.887   2.202  14.230  0.1292  0.5397  0.1079
 2100TIP3    H127791   3.856   2.291  14.217 -0.3563  0.0291 -2.4880
 2100TIP3    H227792   3.951   2.208  14.302  0.1850  2.9654 -0.1330
 2101TIP3   OH227793   3.930   3.674   5.820 -0.0445 -0.1911 -0.5055
 2101TIP3    H127794   3.981   3.685   5.740 -0.9854  0.3735 -1.0453
 2101TIP3    H227795   3.852   3.728   5.806  0.5429  1.2178  1.4756
 2102TIP3   OH227796   5.550   6.158   0.799 -0.3850  0.2633  0.6136
 2102TIP3    H127797   5.490   6.129   0.731 -0.6603  1.8216  0.1678
 2102TIP3    H227798   5.547   6.088   0.865 -1.3413 -0.4957 -0.2189
 2103TIP3   OH227799   3.746   6.800   4.111  0.3347  0.6796 -0.1318
 2103TIP3    H127800   3.816   6.855   4.144  1.3534 -1.1999  0.9760
 2103TIP3    H227801   3.765   6.789   4.018 -0.0224  2.3627 -0.4195
 2104TIP3   OH227802   4.441   1.176  14.056 -0.2554  0.6377  0.5609
 2104TIP3    H127803   4.466   1.111  14.122 -2.0198 -0.9180 -0.2703
 2104TIP3    H227804   4.507   1.167  13.987 -0.1231  0.1788  0.7414
 2105TIP3   OH227805   1.986   3.603   2.762  0.3972  0.0903  0.5752
 2105TIP3    H127806   1.987   3.671   2.696  0.7359 -0.1869  0.2920
 2105TIP3    H227807   1.956   3.646   2.842  1.9922  0.9105  0.7614
 2106TIP3   OH227808   2.165   2.598   2.663 -0.6841  0.4245 -0.3248
 2106TIP3    H127809   2.200   2.687   2.656 -0.7170  0.4068 -0.7070
 2106TIP3    H227810   2.243   2.542   2.666 -0.5366  0.6690  3.1849
 2107TIP3   OH227811   5.373   1.593   0.670 -0.4011  0.0408  0.0736
 2107TIP3    H127812   5.387   1.545   0.588 -0.0661  0.9555 -0.4041
 2107TIP3    H227813   5.278   1.603   0.675 -0.5459 -1.4417  0.6226
 2108TIP3   OH227814   1.312   2.014   4.891  0.2487 -0.5834 -0.0522
 2108TIP3    H127815   1.222   1.982   4.888 -0.3908  1.1197  0.5500
 2108TIP3    H227816   1.358   1.952   4.949 -0.8554 -0.6992  0.7124
 2109TIP3   OH227817   2.386   5.421   5.123  0.4897  0.3844  0.2074
 2109TIP3    H127818   2.293   5.405   5.112  0.8793 -0.9851 -1.2098
 2109TIP3    H227819   2.412   5.468   5.045  0.9345  1.0130  0.7287
 2110TIP3   OH227820   1.536   1.508   6.142  0.2363 -0.0660 -0.1174
 2110TIP3    H127821   1.461   1.562   6.165  1.4152  2.5157 -2.0834
 2110TIP3    H227822   1.548   1.450   6.217 -1.0794  2.4334  2.1047
 2111TIP3   OH227823   3.120   2.394  13.069  0.2082  0.4329 -0.2564
 2111TIP3    H127824   3.066   2.381  13.147  1.8533 -2.1624  0.4985
 2111TIP3    H227825   3.210   2.396  13.102  0.9754 -1.4336 -2.1391
 2112TIP3   OH227826   6.034   6.261   5.317 -0.0435 -0.0077  1.1485
 2112TIP3    H127827   6.014   6.297   5.403  2.8096  1.9230  1.1080
 2112TIP3    H227828   6.126   6.233   5.324  0.1179 -0.1562 -1.1337
 2113TIP3   OH227829   5.694   3.540   0.703 -0.2943 -0.1009 -0.0820
 2113TIP3    H127830   5.615   3.590   0.684  0.3044  1.3253  1.1101
 2113TIP3    H227831   5.765   3.602   0.690  0.6087 -1.2361 -0.6533
 2114TIP3   OH227832   6.341   4.269   1.651 -0.2881  0.0096  0.0209
 2114TIP3    H127833   6.292   4.349   1.632  0.8436  0.5966 -0.4820
 2114TIP3    H227834   6.347   4.224   1.567 -2.1039 -1.3098  0.5525
 2115TIP3   OH227835   0.166   2.466  12.732 -0.0547  0.0402 -0.5801
 2115TIP3    H127836   0.183   2.512  12.650  0.0744 -1.1678 -1.2348
 2115TIP3    H227837   0.071   2.457  12.735 -0.0848  0.4073 -0.4190
 2116TIP3   OH227838   2.471   4.947   5.129 -0.7057 -0.1556  0.1344
 2116TIP3    H127839   2.560   4.937   5.096 -0.6593  1.6604 -0.3601
 2116TIP3    H227840   2.416   4.913   5.058 -0.4105 -1.5064  0.5409
 2117TIP3   OH227841   4.322   0.795   3.108  0.0982  0.2924  0.0103
 2117TIP3    H127842   4.395   0.734   3.120  0.9799  0.8714 -2.1150
 2117TIP3    H227843   4.350   0.851   3.036 -1.1252  2.5869  1.2661
 2118TIP3   OH227844   4.286   3.926  16.174 -0.1213  0.5483 -0.4254
 2118TIP3    H127845   4.230   3.989  16.128 -0.4529 -0.7767 -1.8764
 2118TIP3    H227846   4.277   3.949  16.267 -2.8511  0.5583 -0.6543
 2119TIP3   OH227847   6.042   0.213   0.631 -0.0556  0.1935  0.1532
 2119TIP3    H127848   6.127   0.175   0.655  0.4161  0.8225 -0.5132
 2119TIP3    H227849   5.985   0.138   0.616  0.4788 -0.2335  0.2695
 2120TIP3   OH227850   4.659   0.014  13.738  0.5676  0.2273 -0.8416
 2120TIP3    H127851   4.612   0.038  13.659 -1.1136  0.6899  0.2770
 2120TIP3    H227852   4.749  -0.001  13.709 -0.0539  0.2643 -2.8429
 2121TIP3   OH227853   0.874   5.628  11.845  0.1256 -0.3424 -0.3410
 2121TIP3    H127854   0.928   5.555  11.872 -1.2035 -0.9821  0.6551
 2121TIP3    H227855   0.926   5.706  11.867  2.0530 -0.9565 -2.5163
 2122TIP3   OH227856   4.364   5.651  14.493 -0.0514 -0.4044 -0.2683
 2122TIP3    H127857   4.451   5.673  14.524  0.5615 -1.8164 -0.9107
 2122TIP3    H227858   4.306   5.671  14.566  0.8854 -0.0007  0.3674
 2123TIP3   OH227859   3.248   2.784   5.326 -0.1214 -0.0195  0.2618
 2123TIP3    H127860   3.251   2.816   5.417  1.4159 -0.0817  0.2470
 2123TIP3    H227861   3.244   2.689   5.335 -0.7770  0.0066  0.2664
 2124TIP3   OH227862   5.972   6.734  11.820 -0.0526 -0.3390  0.1479
 2124TIP3    H127863   5.990   6.734  11.726  0.1230  0.8404  0.1717
 2124TIP3    H227864   5.928   6.651  11.837  2.1345 -1.6981 -0.5605
 2125TIP3   OH227865   2.274   0.778  14.749  0.2000  0.0921  0.2748
 2125TIP3    H127866   2.179   0.779  14.762  0.4685  2.0744  2.5339
 2125TIP3    H227867   2.295   0.865  14.715  1.4358  0.4270  1.8310
 2126TIP3   OH227868   3.155   2.152  11.036 -0.4227  1.0362  0.1450
 2126TIP3    H127869   3.121   2.088  10.974 -4.0094  2.0080  1.0280
 2126TIP3    H227870   3.250   2.148  11.024 -0.7256 -2.3748 -1.8236
 2127TIP3   OH227871   1.423   0.371  13.825  0.0295  0.4131 -0.8171
 2127TIP3    H127872   1.388   0.394  13.911  0.2012 -0.1193 -0.6059
 2127TIP3    H227873   1.380   0.432  13.765 -0.9907  0.0103 -0.5125
 2128TIP3   OH227874   4.098   0.370  16.476 -0.3314  0.5805 -0.4739
 2128TIP3    H127875   4.108   0.275  16.471 -0.0218  0.6366 -0.9664
 2128TIP3    H227876   4.004   0.384  16.491 -0.4963  0.2163 -1.1122
 2129TIP3   OH227877   6.261   5.207   5.116 -0.5642  0.1086  0.6205
 2129TIP3    H127878   6.317   5.131   5.132  2.1818  1.6883 -1.0722
 2129TIP3    H227879   6.218   5.189   5.033  3.0219  1.9658 -1.7501
 2130TIP3   OH227880   0.897   5.019  15.668 -0.1218  0.0986 -0.2989
 2130TIP3    H127881   0.930   5.055  15.586  0.7372 -0.8996 -0.4038
 2130TIP3    H227882   0.803   5.006  15.652 -0.4674  2.3205 -0.2232
 2131TIP3   OH227883   5.343   6.818   2.516 -0.1998 -0.5628 -0.3786
 2131TIP3    H127884   5.319   6.726   2.521 -1.2572 -0.1630  4.2548
 2131TIP3    H227885   5.395   6.833   2.596 -0.1311  2.8481 -1.0091
 2132TIP3   OH227886   3.849   3.602  13.503 -0.4704 -0.8144  0.5102
 2132TIP3    H127887   3.874   3.562  13.586  2.4019 -1.3553 -0.5647
 2132TIP3    H227888   3.876   3.538  13.436 -0.2991  0.7737 -0.9837
 2133TIP3   OH227889   5.553   1.142   3.580  0.7498 -0.3391 -0.1094
 2133TIP3    H127890   5.642   1.146   3.614  0.0275 -0.3600  1.8251
 2133TIP3    H227891   5.523   1.053   3.600  0.0356 -0.0945 -0.0792
 2134TIP3   OH227892   4.433   4.177   0.453  0.5049  0.3555  0.3047
 2134TIP3    H127893   4.382   4.144   0.528 -1.3252 -0.5957 -1.2923
 2134TIP3    H227894   4.483   4.250   0.488  1.6126 -1.6118  3.0482
 2135TIP3   OH227895   6.807   5.774   1.494 -0.5163 -0.4685 -0.3486
 2135TIP3    H127896   6.873   5.792   1.428 -0.8348 -2.2848 -1.2007
 2135TIP3    H227897   6.819   5.681   1.517 -1.2626 -0.2197  1.1803
 2136TIP3   OH227898   2.914   0.075   4.983 -0.3348  0.1042  0.1374
 2136TIP3    H127899   2.992   0.043   5.028  0.6116  1.4359 -0.5419
 2136TIP3    H227900   2.849   0.088   5.052 -0.1903 -1.6398  0.6272
 2137TIP3   OH227901   0.671   6.783   1.040  0.1511  0.1227 -0.5789
 2137TIP3    H127902   0.750   6.803   0.991  0.5825  2.6912  1.0267
 2137TIP3    H227903   0.700   6.777   1.131 -1.0815 -1.6554 -0.2771
 2138TIP3   OH227904   5.730   0.557   4.712 -0.2219 -0.3908  0.1658
 2138TIP3    H127905   5.814   0.581   4.673 -0.2275  0.2058  0.5103
 2138TIP3    H227906   5.753   0.510   4.792 -0.2138 -1.3401 -0.3752
 2139TIP3   OH227907   4.372   5.738   5.590  0.0682 -0.1801 -0.6279
 2139TIP3    H127908   4.280   5.756   5.569  0.4919 -0.2728 -2.6167
 2139TIP3    H227909   4.388   5.650   5.556  1.8698  1.2381 -3.6478
 2140TIP3   OH227910   6.185   3.779   0.434  0.0100  0.2810  0.1334
 2140TIP3    H127911   6.183   3.801   0.527  1.0420 -2.2721  0.8041
 2140TIP3    H227912   6.255   3.714   0.426 -1.4294 -1.0690 -2.0724
 2141TIP3   OH227913   4.081   0.952  13.617  0.1569  0.1964 -0.0651
 2141TIP3    H127914   4.098   0.914  13.703  0.3235  0.1237 -0.1294
 2141TIP3    H227915   4.153   0.920  13.562  0.4021  0.7526 -0.0718
 2142TIP3   OH227916   4.628   3.548  13.762 -0.2699 -0.2339  0.4975
 2142TIP3    H127917   4.573   3.585  13.830  0.7035  0.1133  1.1004
 2142TIP3    H227918   4.696   3.614  13.747  1.4470 -1.7153  1.5338
 2143TIP3   OH227919   4.716   4.479  14.259  0.4907 -0.4235  0.0930
 2143TIP3    H127920   4.752   4.431  14.333 -1.5670  0.2205  1.5351
 2143TIP3    H227921   4.699   4.412  14.193  1.7410 -1.0798  0.4109
 2144TIP3   OH227922   2.440   1.330  13.589 -0.2290  0.3146  0.1140
 2144TIP3    H127923   2.405   1.245  13.564 -1.1851  1.1548 -1.5327
 2144TIP3    H227924   2.387   1.356  13.665  1.9774 -1.7840  2.4448
 2145TIP3   OH227925   0.595   1.272   4.264 -0.2359  0.6439  0.6726
 2145TIP3    H127926   0.626   1.184   4.247  2.2982  1.5351  0.4629
 2145TIP3    H227927   0.566   1.270   4.355  0.3067 -0.2792  0.8301
 2146TIP3   OH227928   1.924   2.044   5.375  0.0338  0.0408  0.1797
 2146TIP3    H127929   1.932   2.132   5.337  0.1626 -0.4552 -0.9453
 2146TIP3    H227930   1.837   2.015   5.351  0.5412 -0.7425 -0.7519
 2147TIP3   OH227931   6.770   4.425   0.273 -0.5136 -0.0670 -0.1121
 2147TIP3    H127932   6.817   4.355   0.319  0.5644  1.4322  1.1102
 2147TIP3    H227933   6.683   4.389   0.258 -0.6300 -0.9294  2.3558
 2148TIP3   OH227934   5.606   5.129   3.824 -0.2431 -0.0118  0.5049
 2148TIP3    H127935   5.671   5.198   3.839  0.9193 -1.4822  2.4223
 2148TIP3    H227936   5.630   5.091   3.740  1.5064 -0.6226  1.2561
 2149TIP3   OH227937   4.224   5.080   4.718  0.4020 -0.0589  0.2323
 2149TIP3    H127938   4.295   5.049   4.775 -0.2704 -0.5269  0.8149
 2149TIP3    H227939   4.265   5.148   4.665  1.3579 -0.4937  0.3924
 2150TIP3   OH227940   0.142   5.772  12.791 -0.0255  0.2544  0.1501
 2150TIP3    H127941   0.080   5.718  12.839  0.9817  0.2791  1.5302
 2150TIP3    H227942   0.212   5.712  12.765  0.1732  0.5316  0.0312
 2151TIP3   OH227943   6.635   6.095  11.330 -0.0594 -0.2190  0.0755
 2151TIP3    H127944   6.658   6.055  11.246 -0.6651 -0.0987 -0.1508
 2151TIP3    H227945   6.691   6.173  11.336 -0.2961 -0.0094 -0.4018
 2152TIP3   OH227946   2.929   6.431   5.487  0.3602  0.1024  0.0056
 2152TIP3    H127947   2.880   6.384   5.555 -0.3020 -1.4415 -1.4675
 2152TIP3    H227948   2.880   6.511   5.472  1.1464  0.9897  2.1288
 2153TIP3   OH227949   3.680   3.735   4.973 -0.5877  0.0141 -0.0563
 2153TIP3    H127950   3.641   3.665   4.920 -1.9145  1.6390 -1.2969
 2153TIP3    H227951   3.774   3.729   4.955 -0.8600 -0.4193 -1.4401
 2154TIP3   OH227952   4.537   1.217   2.830 -0.5635 -0.2258 -0.3222
 2154TIP3    H127953   4.629   1.243   2.821 -0.8244  0.1110 -2.0910
 2154TIP3    H227954   4.489   1.300   2.836 -0.8639 -0.3846 -0.5116
 2155TIP3   OH227955   3.401   2.924   3.819  0.3425 -0.4740  0.2201
 2155TIP3    H127956   3.445   2.841   3.800  0.9657 -0.1505  0.2056
 2155TIP3    H227957   3.458   2.967   3.884 -0.8782 -0.8159  1.5364
 2156TIP3   OH227958   3.365   6.254   3.071  0.4427 -0.5255 -0.0746
 2156TIP3    H127959   3.439   6.195   3.056 -0.0689 -1.7405  1.9772
 2156TIP3    H227960   3.297   6.198   3.107 -0.8416  0.9393 -0.1680
 2157TIP3   OH227961   2.763   1.963   6.636 -0.3474  0.9555  0.6055
 2157TIP3    H127962   2.704   1.966   6.711 -0.5313  1.5272  0.4383
 2157TIP3    H227963   2.811   2.046   6.641 -0.5668  1.1231 -0.0782
 2158TIP3   OH227964   4.070   0.534   1.763  0.3464 -0.2530 -0.2037
 2158TIP3    H127965   4.040   0.623   1.780  1.6189  0.1181  0.1792
 2158TIP3    H227966   3.990   0.482   1.760 -0.2724  0.5434  1.7561
 2159TIP3   OH227967   2.663   2.569  11.267  0.0700  0.3478 -0.0435
 2159TIP3    H127968   2.631   2.506  11.202  0.7473 -0.0111 -0.0275
 2159TIP3    H227969   2.654   2.654  11.224 -0.6965  0.2296 -0.1240
 2160TIP3   OH227970   1.066   0.267  10.441 -0.2782  0.6535 -0.5942
 2160TIP3    H127971   1.010   0.315  10.502 -1.2094 -0.8905 -0.2258
 2160TIP3    H227972   1.072   0.179  10.478  1.8086  0.5972 -1.0116
 2161TIP3   OH227973   3.232   2.390   5.592 -0.1614  0.0872 -0.1304
 2161TIP3    H127974   3.328   2.399   5.594 -0.1559  0.4656 -1.5857
 2161TIP3    H227975   3.215   2.307   5.636  0.9473 -0.7121 -1.1859
 2162TIP3   OH227976   1.144   6.771   5.979 -0.4552  0.0781  0.3347
 2162TIP3    H127977   1.211   6.799   6.040 -0.8874 -0.4396  1.0578
 2162TIP3    H227978   1.113   6.687   6.014 -2.9911  1.3331  1.2198
 2163TIP3   OH227979   5.032   5.118   6.229 -0.6085 -0.1028 -0.1306
 2163TIP3    H127980   5.050   5.197   6.280 -1.7768  0.2327 -0.2375
 2163TIP3    H227981   5.118   5.078   6.216 -0.2063  0.2435  1.3959
 2164TIP3   OH227982   4.632   1.343  13.382  0.0356 -0.1152  0.4434
 2164TIP3    H127983   4.592   1.430  13.389 -0.3993 -0.2676 -0.0887
 2164TIP3    H227984   4.606   1.298  13.462 -0.2470  0.0345  0.4349
 2165TIP3   OH227985   1.040   1.679   3.096  0.2787 -0.5155  0.5539
 2165TIP3    H127986   1.131   1.660   3.120 -0.5202 -0.9277  3.4375
 2165TIP3    H227987   0.990   1.655   3.173 -2.1850  0.7516 -0.6131
 2166TIP3   OH227988   2.369   0.661   0.689 -0.2879  0.5978 -0.2190
 2166TIP3    H127989   2.285   0.630   0.655 -1.2382  2.4549  0.3732
 2166TIP3    H227990   2.376   0.621   0.776 -1.4725  1.9700  0.5149
 2167TIP3   OH227991   3.449   3.392  11.392  0.3203 -0.1610 -0.3650
 2167TIP3    H127992   3.512   3.387  11.464 -0.1571  1.0717  0.1460
 2167TIP3    H227993   3.380   3.330  11.417  1.1664 -1.2912 -0.7825
 2168TIP3   OH227994   6.582   6.124  14.415  0.1552  0.6628  0.1769
 2168TIP3    H127995   6.659   6.074  14.442  1.4585  1.7546 -1.4457
 2168TIP3    H227996   6.508   6.065  14.430  1.3778 -0.6829  0.9895
 2169TIP3   OH227997   6.424   6.256  15.183  0.7440 -0.4021 -0.2186
 2169TIP3    H127998   6.514   6.278  15.158  1.1132 -1.5872  0.0391
 2169TIP3    H227999   6.388   6.212  15.106  0.3607  0.1113 -0.3375
 2170TIP3   OH228000   3.795   2.222  12.868  0.4396 -0.1988 -0.1571
 2170TIP3    H128001   3.736   2.297  12.881  2.0201  1.0330 -0.0236
 2170TIP3    H228002   3.818   2.226  12.775  0.7513 -0.3470 -0.0848
 2171TIP3   OH228003   4.508   0.299   1.462 -0.2398  0.2434 -0.2528
 2171TIP3    H128004   4.468   0.249   1.533 -1.4983  1.5446 -0.0169
 2171TIP3    H228005   4.559   0.235   1.413 -1.5043 -1.1891  0.2607
 2172TIP3   OH228006   6.067   0.965   3.694  0.2746 -0.4231  0.2132
 2172TIP3    H128007   6.017   1.027   3.747 -0.4287 -0.9283  0.1464
 2172TIP3    H228008   6.048   0.990   3.604 -2.7127 -2.8140  0.1140
 2173TIP3   OH228009   0.886   4.834   0.384  0.3919 -0.2140  0.4276
 2173TIP3    H128010   0.818   4.856   0.321  1.9041  0.5495 -0.9865
 2173TIP3    H228011   0.963   4.883   0.354  1.6720 -1.3728  1.7431
 2174TIP3   OH228012   2.018   3.309  16.622 -0.3294 -0.3260 -1.2819
 2174TIP3    H128013   1.954   3.239  16.612  0.4615 -1.1111 -0.9277
 2174TIP3    H228014   2.086   3.290  16.557  1.3292 -1.5271  0.7438
 2175TIP3   OH228015   4.304   6.430   0.724 -0.2334  0.2720 -0.3412
 2175TIP3    H128016   4.309   6.335   0.708 -0.2155  0.1398  0.4330
 2175TIP3    H228017   4.292   6.437   0.818 -0.7162  1.0343 -0.4618
 2176TIP3   OH228018   0.135   5.247  10.960  0.2120  0.2020  0.3178
 2176TIP3    H128019   0.120   5.313  11.027 -1.0753  0.9732 -0.7160
 2176TIP3    H228020   0.119   5.292  10.877  1.3000 -0.8749 -0.4962
 2177TIP3   OH228021   3.899   4.341   2.823  0.1750  0.3149 -0.0688
 2177TIP3    H128022   3.942   4.359   2.907 -1.0220 -0.4264  0.7168
 2177TIP3    H228023   3.878   4.428   2.788  0.5170  0.6246  0.4849
 2178TIP3   OH228024   0.494   1.361   5.784  0.1988  0.4655  0.2005
 2178TIP3    H128025   0.542   1.444   5.785  0.1017  0.5231 -0.1090
 2178TIP3    H228026   0.558   1.297   5.817  0.3105  0.6396  0.3280
 2179TIP3   OH228027   5.656   1.824   0.630  0.0194 -0.0204 -0.3895
 2179TIP3    H128028   5.752   1.829   0.638  0.1539 -0.2560 -1.6777
 2179TIP3    H228029   5.629   1.912   0.603 -0.0493 -0.1524 -0.7499
 2180TIP3   OH228030   6.342   5.307  17.103 -0.7049  0.4592  0.5012
 2180TIP3    H128031   6.264   5.333  17.152 -0.2426  0.6350  1.1471
 2180TIP3    H228032   6.338   5.211  17.101 -0.8343  0.4619  0.6938
 2181TIP3   OH228033   6.682   3.367  15.064  0.0754  0.5544  0.0508
 2181TIP3    H128034   6.749   3.377  15.132 -0.7588  0.7752  0.8508
 2181TIP3    H228035   6.624   3.442  15.076 -0.7284 -0.0236 -0.1658
 2182TIP3   OH228036   0.131   2.312  13.475 -0.0142  0.8782  0.0867
 2182TIP3    H128037   0.041   2.300  13.444  0.2608 -1.7768  0.1904
 2182TIP3    H228038   0.134   2.403  13.504 -2.3199  1.3586 -1.0226
 2183TIP3   OH228039   6.084   3.908  12.590 -0.2491  0.1086 -0.1649
 2183TIP3    H128040   6.092   3.945  12.502  0.9630 -1.7354 -0.8788
 2183TIP3    H228041   6.061   3.816  12.574  2.3542 -0.8625  1.3550
 2184TIP3   OH228042   2.799   4.441   1.507 -0.3848  0.4223  0.3241
 2184TIP3    H128043   2.757   4.397   1.581 -1.4723  0.9592  0.0370
 2184TIP3    H228044   2.727   4.464   1.448  0.0743  3.1424  0.7529
 2185TIP3   OH228045   4.472   1.917  15.876 -0.1086  0.3120  0.0137
 2185TIP3    H128046   4.489   1.884  15.964 -1.0669  1.4889  0.6510
 2185TIP3    H228047   4.520   1.999  15.872  0.8652 -0.2868 -0.9758
 2186TIP3   OH228048   0.118   0.811  16.427 -0.9130  0.2527  0.4058
 2186TIP3    H128049   0.154   0.834  16.512  1.1111  2.2712 -0.9459
 2186TIP3    H228050   0.049   0.747  16.446  1.1630 -1.1938  3.3291
 2187TIP3   OH228051   1.444   2.330  16.979 -0.4865 -0.1378  0.1808
 2187TIP3    H128052   1.492   2.333  16.896  2.1204 -0.4948  1.6313
 2187TIP3    H228053   1.393   2.411  16.979  0.1625  0.3008 -1.3945
 2188TIP3   OH228054   4.370   6.142  12.670 -0.3128 -0.1252 -0.6313
 2188TIP3    H128055   4.395   6.063  12.622 -0.5937 -0.1988 -0.6594
 2188TIP3    H228056   4.320   6.110  12.744  1.6776 -0.1289  0.7500
 2189TIP3   OH228057   2.838   6.731  15.537  0.2903  0.3182 -0.0844
 2189TIP3    H128058   2.866   6.807  15.486 -0.6985  0.5134 -0.3545
 2189TIP3    H228059   2.834   6.659  15.474  2.4758 -0.2821  0.4224
 2190TIP3   OH228060   4.829   4.720  15.932 -0.1079  0.1964 -0.0165
 2190TIP3    H128061   4.906   4.662  15.936 -0.3975 -0.3217 -1.5108
 2190TIP3    H228062   4.866   4.807  15.921  0.2894  0.0318 -0.0108
 2191TIP3   OH228063   5.408   0.992  14.211  0.0781 -0.0567  0.2224
 2191TIP3    H128064   5.402   0.935  14.134  1.5312 -1.0888  0.8494
 2191TIP3    H228065   5.470   1.060  14.184 -1.0931  0.8432 -0.2657
 2192TIP3   OH228066   5.583   3.729   5.939  0.3790 -0.5462  0.0524
 2192TIP3    H128067   5.522   3.673   5.985 -1.5155  1.8688  0.5804
 2192TIP3    H228068   5.621   3.785   6.007  0.4048  0.4600 -0.7770
 2193TIP3   OH228069   4.658   1.112   5.111 -0.2531  0.2646  0.4551
 2193TIP3    H128070   4.702   1.141   5.191  1.7511 -0.6427 -0.2879
 2193TIP3    H228071   4.685   1.176   5.045  0.4258 -0.6209 -0.1373
 2194TIP3   OH228072   1.604   2.546  13.654 -0.1546  0.4334 -0.0260
 2194TIP3    H128073   1.513   2.575  13.653 -0.1757  0.3928 -1.7793
 2194TIP3    H228074   1.602   2.461  13.698 -1.0479  0.2290 -0.4375
 2195TIP3   OH228075   2.298   5.203  16.404 -0.4267 -0.2860 -0.1041
 2195TIP3    H128076   2.296   5.282  16.350 -1.0443 -0.9396 -1.0496
 2195TIP3    H228077   2.363   5.222  16.472 -1.2839  1.4334  0.2747
 2196TIP3   OH228078   5.477   2.247   4.377 -0.3467 -0.2088 -0.2086
 2196TIP3    H128079   5.497   2.281   4.464  1.1108 -0.1822 -0.5467
 2196TIP3    H228080   5.505   2.156   4.380 -3.3026 -1.1340  0.3696
 2197TIP3   OH228081   0.299   2.104   2.595  0.6753  0.9176  0.6280
 2197TIP3    H128082   0.221   2.064   2.634 -0.8418  3.0703 -0.1030
 2197TIP3    H228083   0.334   2.036   2.537 -2.6499  1.0118 -1.6543
 2198TIP3   OH228084   5.710   3.479   4.020  0.4279 -0.5704  0.0217
 2198TIP3    H128085   5.619   3.464   4.043  0.5209  0.3603  1.0790
 2198TIP3    H228086   5.741   3.542   4.086  1.6994 -0.5362 -0.5898
 2199TIP3   OH228087   4.679   1.531   0.239  0.6030 -0.2932  0.4952
 2199TIP3    H128088   4.695   1.438   0.248  0.5627 -0.3931 -0.4399
 2199TIP3    H228089   4.624   1.553   0.314 -1.2380 -1.4669 -0.4624
 2200TIP3   OH228090   6.612   0.777   2.015  0.1777  0.1130  0.1343
 2200TIP3    H128091   6.660   0.746   2.092 -1.1818  0.4737  1.1401
 2200TIP3    H228092   6.594   0.869   2.033 -0.4277  0.1212 -0.4694
 2201TIP3   OH228093   6.670   3.700   1.567 -0.3485  0.3615  0.0420
 2201TIP3    H128094   6.619   3.768   1.522 -0.0163  0.3420 -0.3585
 2201TIP3    H228095   6.620   3.620   1.553 -0.9804  0.5962  0.8979
 2202TIP3   OH228096   2.318   0.253   3.737 -0.0617  0.3718  0.0554
 2202TIP3    H128097   2.309   0.266   3.643  0.9842 -0.0940 -0.1130
 2202TIP3    H228098   2.229   0.262   3.771 -0.1365  2.8737 -0.6744
 2203TIP3   OH228099   5.448   4.931   3.096 -0.0410 -0.0054 -0.4832
 2203TIP3    H128100   5.409   4.900   3.015 -0.8518  2.0664 -0.9162
 2203TIP3    H228101   5.461   5.025   3.082  0.4913  0.2406  1.5154
 2204TIP3   OH228102   3.233   4.447   5.201 -0.0949 -0.0480 -0.0253
 2204TIP3    H128103   3.269   4.392   5.132 -0.6665 -0.0365 -0.3304
 2204TIP3    H228104   3.147   4.410   5.220 -0.0500  0.1039  0.5018
 2205TIP3   OH228105   0.157   4.970  11.017  0.3070 -0.1230 -0.1772
 2205TIP3    H128106   0.071   4.942  11.046  0.8009 -0.7464  0.7167
 2205TIP3    H228107   0.149   5.064  11.003 -0.8407 -0.3792 -1.2682
 2206TIP3   OH228108   2.037   1.885   0.567 -0.4227  0.0735  0.6988
 2206TIP3    H128109   2.027   1.790   0.577 -0.2630 -0.1256 -0.8578
 2206TIP3    H228110   1.978   1.907   0.495  2.2148  0.5713 -1.3658
 2207TIP3   OH228111   2.003   4.167   1.549  0.3372  0.1465 -0.1700
 2207TIP3    H128112   2.059   4.118   1.609 -0.8006 -0.1334  0.6759
 2207TIP3    H228113   1.934   4.105   1.525 -1.8323  1.6751  1.9055
 2208TIP3   OH228114   3.776   1.828  13.807 -0.0685 -0.2181 -0.6085
 2208TIP3    H128115   3.717   1.875  13.749  0.8434  1.0322 -0.5410
 2208TIP3    H228116   3.780   1.881  13.887 -0.7493 -1.5461  0.3278
 2209TIP3   OH228117   0.261   1.472   4.514 -0.5724 -0.6305  0.3537
 2209TIP3    H128118   0.263   1.380   4.486 -0.1206 -0.6919  0.5778
 2209TIP3    H228119   0.299   1.520   4.441 -3.8524 -0.2307 -1.1715
 2210TIP3   OH228120   5.736   1.002  13.435  0.1567  0.3859  0.0891
 2210TIP3    H128121   5.692   1.039  13.511  2.2390  0.1004  1.4602
 2210TIP3    H228122   5.752   0.911  13.458 -2.0560 -0.5844 -1.9956
 2211TIP3   OH228123   0.125   0.156  14.980 -0.4507  0.3036 -0.1906
 2211TIP3    H128124   0.090   0.213  15.049 -0.1813 -0.9297  0.9901
 2211TIP3    H228125   0.163   0.216  14.916 -0.7024  1.4739  0.7485
 2212TIP3   OH228126   0.118   6.165  17.135  0.6251 -0.1628 -0.0317
 2212TIP3    H128127   0.140   6.221  17.210  1.6903  1.8055 -1.7692
 2212TIP3    H228128   0.186   6.098  17.135  0.8598  0.0721  0.5082
 2213TIP3   OH228129   1.293   5.755  15.977  0.0055 -0.0556 -0.5320
 2213TIP3    H128130   1.310   5.844  15.947  0.4544 -1.2232 -4.0254
 2213TIP3    H228131   1.214   5.762  16.030  1.0142  2.6571  0.7321
 2214TIP3   OH228132   2.205   1.061   5.251 -0.3827 -0.4818  0.0238
 2214TIP3    H128133   2.204   1.076   5.156 -1.4112 -0.6999 -0.0065
 2214TIP3    H228134   2.287   1.013   5.267  0.8812  1.4625 -0.4491
 2215TIP3   OH228135   4.486   2.153  14.539  0.3627 -0.0437 -0.6673
 2215TIP3    H128136   4.430   2.095  14.488  0.3136 -0.3604 -0.2524
 2215TIP3    H228137   4.550   2.186  14.476 -0.1898  0.1983 -1.1074
 2216TIP3   OH228138   0.812   5.496  16.089  0.0093  0.1768  0.0739
 2216TIP3    H128139   0.854   5.578  16.115  1.0385 -0.4605  0.4573
 2216TIP3    H228140   0.765   5.468  16.167 -0.1632  0.2860  0.0095
 2217TIP3   OH228141   5.558   6.070   5.508 -0.2406 -0.6928  0.4587
 2217TIP3    H128142   5.482   6.062   5.450  0.1806 -1.3871 -0.0129
 2217TIP3    H228143   5.628   6.099   5.451 -0.3696  0.8738  1.0820
 2218TIP3   OH228144   4.385   3.251   5.050  0.0659  0.1870 -0.5674
 2218TIP3    H128145   4.399   3.257   4.955  1.0742 -1.4904 -0.5617
 2218TIP3    H228146   4.318   3.184   5.060  1.3085 -1.0047 -0.0368
 2219TIP3   OH228147   1.756   2.860  12.837 -0.3400 -0.3694  0.3711
 2219TIP3    H128148   1.842   2.873  12.799 -0.4166  1.1374  0.6717
 2219TIP3    H228149   1.773   2.821  12.923 -0.0090 -0.7034  0.1554
 2220TIP3   OH228150   5.652   5.587   2.700 -0.2092  0.2270 -0.0337
 2220TIP3    H128151   5.686   5.532   2.630  0.3195 -0.8841  1.0604
 2220TIP3    H228152   5.557   5.572   2.698  0.1796 -3.1106  2.1352
 2221TIP3   OH228153   2.922   0.491  12.117 -0.5232 -0.9177 -0.0006
 2221TIP3    H128154   2.858   0.428  12.151  1.2740 -2.0368  1.3896
 2221TIP3    H228155   2.980   0.508  12.191  0.2680  0.7664 -0.9927
 2222TIP3   OH228156   1.257   5.299  11.213  0.0555  0.5086  0.1910
 2222TIP3    H128157   1.174   5.279  11.255  0.8505 -1.7014  0.7747
 2222TIP3    H228158   1.318   5.310  11.286  0.9903 -1.2562 -0.2919
 2223TIP3   OH228159   6.435   2.644   4.116 -0.4914  0.4499 -0.2358
 2223TIP3    H128160   6.522   2.606   4.127 -0.5784  0.2902 -0.0884
 2223TIP3    H228161   6.436   2.685   4.030 -1.0525 -1.6367 -1.2774
 2224TIP3   OH228162   2.104   4.306   0.462  0.0869  0.2034  0.4941
 2224TIP3    H128163   2.035   4.256   0.418 -0.7396 -0.8839  2.9352
 2224TIP3    H228164   2.150   4.242   0.515  0.8980  1.5219  1.4004
 2225TIP3   OH228165   5.834   5.553  14.988  0.2233 -0.0347 -0.3828
 2225TIP3    H128166   5.897   5.482  14.978  0.4475 -0.0398  0.8777
 2225TIP3    H228167   5.859   5.617  14.922  1.2188 -0.2907 -0.2641
 2226TIP3   OH228168   3.458   4.403   4.768 -0.2201 -0.4126 -0.0406
 2226TIP3    H128169   3.534   4.349   4.787  0.1165 -0.8217 -2.3308
 2226TIP3    H228170   3.410   4.353   4.702 -1.4051  0.7679 -0.0854
 2227TIP3   OH228171   6.567   1.616  14.534  0.1639  0.1211  0.2487
 2227TIP3    H128172   6.641   1.663  14.572  0.7719 -1.2027  0.7417
 2227TIP3    H228173   6.546   1.548  14.598  1.2146 -2.1762 -1.7589
 2228TIP3   OH228174   0.656   4.053  14.836 -0.0785  0.3676 -0.5206
 2228TIP3    H128175   0.605   4.007  14.769 -0.6193  0.9694 -0.5279
 2228TIP3    H228176   0.740   4.070  14.794  1.1481 -3.0181  0.3927
 2229TIP3   OH228177   0.219   5.140  13.258 -0.5459 -0.4491  0.1039
 2229TIP3    H128178   0.239   5.135  13.351  0.7526  0.7203 -0.0953
 2229TIP3    H228179   0.142   5.196  13.253 -0.3334 -0.1256  0.4414
 2230TIP3   OH228180   0.661   4.011   4.856 -0.0020  0.3808 -0.1049
 2230TIP3    H128181   0.565   4.011   4.865  0.1502 -0.4447  1.7543
 2230TIP3    H228182   0.681   4.098   4.821 -1.3878  0.7848  0.0413
 2231TIP3   OH228183   4.324   1.319   0.814 -0.8225  0.3968  0.6072
 2231TIP3    H128184   4.417   1.307   0.796 -0.1583  2.8010  2.1739
 2231TIP3    H228185   4.316   1.307   0.909 -1.6294  2.6135  0.8626
 2232TIP3   OH228186   0.279   1.525   1.826  0.5008  0.4399  0.0213
 2232TIP3    H128187   0.341   1.556   1.892  0.3298 -0.8651  0.8108
 2232TIP3    H228188   0.319   1.547   1.742  1.7795  0.0617  0.5285
 2233TIP3   OH228189   5.593   6.672   2.797  0.3521 -0.6994 -0.2274
 2233TIP3    H128190   5.619   6.763   2.814  0.6419 -0.5418 -1.4411
 2233TIP3    H228191   5.609   6.660   2.704 -1.4498 -1.4213 -0.4639
 2234TIP3   OH228192   0.945   6.036  15.839  0.2862 -0.0995  0.1111
 2234TIP3    H128193   0.873   5.972  15.844  1.3515 -1.3143  0.0285
 2234TIP3    H228194   1.024   5.985  15.854  1.1756  1.1898 -0.0906
 2235TIP3   OH228195   5.780   6.422  16.885  0.1495 -0.0120 -0.2240
 2235TIP3    H128196   5.723   6.345  16.892  0.7226 -0.2654  2.3707
 2235TIP3    H228197   5.856   6.400  16.939  2.7647  0.3149 -3.6718
 2236TIP3   OH228198   1.629   5.035  12.042  0.3046 -0.3357 -0.0349
 2236TIP3    H128199   1.603   5.069  11.957  1.7914 -0.1658 -0.4260
 2236TIP3    H228200   1.627   5.111  12.100 -1.6602 -0.6348  0.3182
 2237TIP3   OH228201   6.443   0.179  16.010  0.6165  0.4335  0.2310
 2237TIP3    H128202   6.525   0.130  16.007  0.4577  0.1732  0.0064
 2237TIP3    H228203   6.410   0.175  15.920 -0.2565 -0.5259  0.5843
 2238TIP3   OH228204   5.191   6.353   3.717 -0.3479  0.3770  0.5012
 2238TIP3    H128205   5.127   6.282   3.728  0.0533 -0.1342 -0.3905
 2238TIP3    H228206   5.274   6.314   3.742 -0.1791  0.6384  0.3517
 2239TIP3   OH228207   4.493   2.811   1.569  0.3439 -0.2061  0.2112
 2239TIP3    H128208   4.502   2.842   1.479  0.6423  0.9137  0.6239
 2239TIP3    H228209   4.567   2.849   1.615  0.3727 -1.0430  0.8695
 2240TIP3   OH228210   0.173   1.698  13.456 -0.2863  0.4440  0.3925
 2240TIP3    H128211   0.109   1.647  13.506  0.6994  0.5899  1.8647
 2240TIP3    H228212   0.130   1.781  13.438 -0.9561  0.0786  0.2982
 2241TIP3   OH228213   1.762   3.956  11.818 -0.5838 -0.1997 -0.0877
 2241TIP3    H128214   1.702   3.971  11.891 -0.7835  1.1748 -0.5324
 2241TIP3    H228215   1.817   4.034  11.815 -0.0352 -0.6067 -0.8907
 2242TIP3   OH228216   5.034   5.658   3.660  0.1484  0.1409 -0.2322
 2242TIP3    H128217   4.942   5.685   3.657  0.0900 -0.1161 -0.7834
 2242TIP3    H228218   5.031   5.565   3.684  0.3702  0.7186  2.2004
 2243TIP3   OH228219   0.157   2.985  14.001  0.3105  0.6605 -0.4062
 2243TIP3    H128220   0.228   2.922  13.991 -1.8896 -2.2071  1.2139
 2243TIP3    H228221   0.111   2.983  13.917 -0.6045 -1.0691  0.1011
 2244TIP3   OH228222   2.756   0.145  13.971  0.4888  0.7480  0.3521
 2244TIP3    H128223   2.694   0.073  13.959  0.2076  1.0050  0.2557
 2244TIP3    H228224   2.840   0.109  13.942  0.2911  0.5605  0.0010
 2245TIP3   OH228225   0.121   4.467  16.867 -0.1598  0.3381 -0.2555
 2245TIP3    H128226   0.069   4.494  16.791  0.9882  0.5177 -0.9835
 2245TIP3    H228227   0.060   4.475  16.941 -1.2351  0.3215 -1.1248
 2246TIP3   OH228228   4.789   5.507   5.421 -0.4821  0.4465  0.5301
 2246TIP3    H128229   4.849   5.504   5.496 -1.0223 -0.1273  0.9431
 2246TIP3    H228230   4.827   5.573   5.363  2.0651 -1.7889 -0.4778
 2247TIP3   OH228231   1.024   2.124  13.514 -0.0535 -0.4317 -0.2592
 2247TIP3    H128232   1.028   2.191  13.582 -0.7866 -0.6862  0.0366
 2247TIP3    H228233   1.081   2.053  13.546 -0.6448 -0.6845  0.2356
 2248TIP3   OH228234   6.618   4.939   0.169 -0.0208 -0.3480 -0.0330
 2248TIP3    H128235   6.657   4.989   0.240 -1.0511  2.0278 -1.0771
 2248TIP3    H228236   6.612   4.850   0.202  0.9630  0.4084  2.2552
 2249TIP3   OH228237   3.444   4.233  15.676 -0.9118  0.2996 -0.7752
 2249TIP3    H128238   3.439   4.323  15.706 -1.1453 -0.1040  0.3966
 2249TIP3    H228239   3.392   4.183  15.739  0.1576 -0.8208 -0.7540
 2250TIP3   OH228240   5.787   2.365   4.461 -0.0220  0.0830  0.3670
 2250TIP3    H128241   5.752   2.447   4.497  0.6141 -0.1056  1.4380
 2250TIP3    H228242   5.853   2.394   4.397 -1.8966  0.4311 -1.4320
 2251TIP3   OH228243   4.168   2.069  15.240  0.0719  0.3299 -0.4576
 2251TIP3    H128244   4.243   2.128  15.233 -0.2672  0.8518  0.2147
 2251TIP3    H228245   4.130   2.088  15.326 -0.3195 -0.5418 -0.4233
 2252TIP3   OH228246   6.650   0.744   2.644  0.7618  0.1881  0.6340
 2252TIP3    H128247   6.583   0.698   2.593 -1.7227  1.8769  2.2353
 2252TIP3    H228248   6.728   0.690   2.636 -1.0203 -2.2905 -0.6207
 2253TIP3   OH228249   2.292   0.160   4.513 -0.4457  0.1387 -0.1372
 2253TIP3    H128250   2.210   0.110   4.515 -0.4669  0.0978 -1.4307
 2253TIP3    H228251   2.268   0.249   4.538 -0.6928 -0.1210  0.5548
 2254TIP3   OH228252   5.007   0.242   1.013  0.4599 -0.0874  0.0473
 2254TIP3    H128253   4.989   0.316   0.955 -2.5167  0.3548  1.4135
 2254TIP3    H228254   4.983   0.165   0.962  1.6836  0.0147 -0.6905
 2255TIP3   OH228255   4.771   6.134  17.255 -0.1664  0.3211 -0.1680
 2255TIP3    H128256   4.676   6.139  17.244 -0.1378 -0.0531 -0.5796
 2255TIP3    H228257   4.807   6.176  17.177  0.0219 -1.0190 -0.8043
 2256TIP3   OH228258   3.083   6.039  11.020  0.2752 -0.5626  0.0469
 2256TIP3    H128259   3.167   6.028  10.974  0.8091  4.5552 -0.4786
 2256TIP3    H228260   3.108   6.065  11.108 -0.7383  0.8023 -0.0638
 2257TIP3   OH228261   5.331   6.593  13.719  0.5611 -0.1639 -0.0201
 2257TIP3    H128262   5.379   6.536  13.779  1.2622 -1.1346 -1.4979
 2257TIP3    H228263   5.370   6.679  13.732  1.0774 -0.4748  0.5143
 2258TIP3   OH228264   4.167   0.182  11.826  0.5115 -0.2447  0.6795
 2258TIP3    H128265   4.086   0.170  11.777 -0.3623 -0.2525  2.0744
 2258TIP3    H228266   4.227   0.117  11.791  0.0274 -0.0026 -0.6144
 2259TIP3   OH228267   1.397   5.170  13.785  0.3497  0.3116 -0.4528
 2259TIP3    H128268   1.479   5.185  13.738  1.0292 -0.3839  0.4945
 2259TIP3    H228269   1.369   5.257  13.812  1.1953  0.4831 -0.0944
 2260TIP3   OH228270   4.694   2.815   1.783 -0.2177  0.2722  0.1623
 2260TIP3    H128271   4.647   2.874   1.841  1.7438  0.5568  1.4938
 2260TIP3    H228272   4.779   2.856   1.770  1.2993 -2.3957  1.3560
 2261TIP3   OH228273   4.492   2.617  17.149  0.3877 -0.3033  1.0640
 2261TIP3    H128274   4.510   2.543  17.207 -0.1821 -1.5033 -0.2534
 2261TIP3    H228275   4.401   2.640  17.167  0.4629 -0.1334  1.2311
 2262TIP3   OH228276   0.475   6.186   1.342  0.3959  0.0179  0.6779
 2262TIP3    H128277   0.401   6.184   1.403 -0.0015  0.8900  0.2295
 2262TIP3    H228278   0.552   6.184   1.398  0.0319  1.3446  1.2368
 2263TIP3   OH228279   3.446   5.692  15.267 -0.1442 -0.1964  0.3435
 2263TIP3    H128280   3.426   5.777  15.306  3.9224  0.3950  1.4083
 2263TIP3    H228281   3.380   5.681  15.198 -2.7624  2.2531  2.3448
 2264TIP3   OH228282   6.332   3.060  11.482 -0.3726  0.3227  0.3357
 2264TIP3    H128283   6.426   3.046  11.473 -0.1604  1.7499  0.1442
 2264TIP3    H228284   6.296   3.042  11.395 -0.2923 -0.2628  0.4192
 2265TIP3   OH228285   2.164   2.353   0.277  0.0987  0.0285 -0.6753
 2265TIP3    H128286   2.085   2.401   0.301 -0.6205 -1.5746  0.2191
 2265TIP3    H228287   2.230   2.421   0.261 -1.6827  1.4167 -2.2893
 2266TIP3   OH228288   5.891   2.669  11.758  0.4272  0.0043  0.0902
 2266TIP3    H128289   5.918   2.754  11.722 -0.5831 -0.4594 -1.7758
 2266TIP3    H228290   5.973   2.620  11.766  0.8423  0.6485 -0.1312
 2267TIP3   OH228291   0.660   1.194   2.139  0.2502 -0.1335  0.3664
 2267TIP3    H128292   0.566   1.182   2.152  0.0602  0.9666  0.1094
 2267TIP3    H228293   0.668   1.233   2.052  0.8951  0.2774  0.5987
 2268TIP3   OH228294   6.300   1.250   3.057 -0.1106 -0.1429  0.1789
 2268TIP3    H128295   6.247   1.187   3.008  0.1792 -0.8489  0.7603
 2268TIP3    H228296   6.325   1.316   2.993  1.0981 -1.5828 -0.8352
 2269TIP3   OH228297   0.359   1.904   4.863  0.0251  0.3439 -0.1173
 2269TIP3    H128298   0.293   1.973   4.869  0.0717  0.3693  0.1026
 2269TIP3    H228299   0.314   1.833   4.817  0.0830  0.6422 -0.6360
 2270TIP3   OH228300   3.531   1.617  12.687  0.7024  0.6603  0.4695
 2270TIP3    H128301   3.590   1.656  12.623  0.3488  0.1108 -0.1950
 2270TIP3    H228302   3.468   1.568  12.635 -1.1435  2.3094  1.0790
 2271TIP3   OH228303   2.752   0.768   0.134  0.2588  0.1137 -0.8748
 2271TIP3    H128304   2.735   0.861   0.120 -0.3631  0.2467  0.6747
 2271TIP3    H228305   2.844   0.757   0.111  0.4274  1.1778 -0.7154
 2272TIP3   OH228306   5.159   6.198   3.387  0.2675 -0.0380  0.2135
 2272TIP3    H128307   5.219   6.140   3.340  1.2487  0.6939  0.5415
 2272TIP3    H228308   5.122   6.143   3.456 -0.9559 -1.0408 -1.1973
 2273TIP3   OH228309   5.613   2.747  17.219  1.2927 -0.9260 -0.0614
 2273TIP3    H128310   5.600   2.794  17.301  0.5972 -1.5888  0.2109
 2273TIP3    H228311   5.706   2.725  17.218  1.9219  1.6692 -0.8421
 2274TIP3   OH228312   1.043   3.182  12.193 -0.3916 -0.2450  0.2595
 2274TIP3    H128313   0.970   3.243  12.182 -2.7041 -2.8896  0.3505
 2274TIP3    H228314   1.018   3.128  12.269  0.5851 -2.6521 -1.0772
 2275TIP3   OH228315   4.826   2.047   5.854 -0.3026  0.3585  0.3289
 2275TIP3    H128316   4.792   2.073   5.768  0.8002 -1.1229 -0.5691
 2275TIP3    H228317   4.782   1.965   5.874  0.9748 -0.3639  0.2308
 2276TIP3   OH228318   1.374   4.260  12.626  0.6657 -0.0158  0.1855
 2276TIP3    H128319   1.326   4.190  12.668  0.8101  1.1139  2.3060
 2276TIP3    H228320   1.360   4.336  12.682 -0.9314  2.1511 -2.9379
 2277TIP3   OH228321   3.236   6.610  14.347 -0.2875 -0.0851 -0.0720
 2277TIP3    H128322   3.223   6.527  14.300  0.2431 -0.3101  0.1813
 2277TIP3    H228323   3.175   6.670  14.305  0.1718 -0.2933 -1.0476
 2278TIP3   OH228324   5.123   2.459   2.866 -0.1483  0.3612  0.1376
 2278TIP3    H128325   5.098   2.372   2.836  0.9475  0.6356 -1.6573
 2278TIP3    H228326   5.041   2.509   2.867 -0.6349 -0.4340  0.2966
 2279TIP3   OH228327   3.726   3.148  15.685  0.1159  0.1761 -0.2533
 2279TIP3    H128328   3.717   3.241  15.707 -0.3060 -0.1863  1.1815
 2279TIP3    H228329   3.820   3.132  15.689  0.1173  0.3165  0.5527
 2280TIP3   OH228330   6.491   5.397   1.211 -0.1000  0.4594 -0.1905
 2280TIP3    H128331   6.537   5.412   1.128 -1.8911 -0.7288 -1.4344
 2280TIP3    H228332   6.480   5.302   1.215  0.2880  0.4830  1.6010
 2281TIP3   OH228333   6.382   0.212   2.475 -0.5911  0.2083  0.2478
 2281TIP3    H128334   6.432   0.292   2.491 -0.4277  0.0217  0.6769
 2281TIP3    H228335   6.313   0.214   2.542 -2.1023  1.2385 -1.2847
 2282TIP3   OH228336   1.192   5.157  10.588 -0.4388 -0.2122 -0.0333
 2282TIP3    H128337   1.254   5.230  10.598  0.7108 -1.0122 -1.2116
 2282TIP3    H228338   1.131   5.168  10.661  0.5729  1.0991  0.6461
 2283TIP3   OH228339   2.847   3.078   6.155  0.5298  0.4321 -0.2318
 2283TIP3    H128340   2.753   3.064   6.168  0.3616  1.6912  0.0233
 2283TIP3    H228341   2.874   3.007   6.097 -0.4720 -0.2486  0.1102
 2284TIP3   OH228342   0.483   5.960  16.077 -0.2127 -0.7160 -0.7034
 2284TIP3    H128343   0.493   6.014  16.155 -1.1753 -0.7831 -0.5224
 2284TIP3    H228344   0.529   5.879  16.097 -1.4058 -1.1711  0.2353
 2285TIP3   OH228345   3.313   3.219  12.137 -0.3142 -0.0885  0.4348
 2285TIP3    H128346   3.252   3.272  12.086  0.1573  1.0417  1.0157
 2285TIP3    H228347   3.386   3.200  12.078  1.5495  3.5341  1.4106
 2286TIP3   OH228348   2.139   5.886  15.065 -0.5900 -0.1361  0.1227
 2286TIP3    H128349   2.142   5.966  15.116 -0.3926  0.3072 -0.5742
 2286TIP3    H228350   2.231   5.863  15.051 -0.4799  2.0997 -3.6520
 2287TIP3   OH228351   2.101   1.109   3.733 -0.0838 -0.5533  0.0542
 2287TIP3    H128352   2.113   1.181   3.796 -1.0792  0.5160 -0.9510
 2287TIP3    H228353   2.106   1.030   3.786  1.9938  0.1954  1.0619
 2288TIP3   OH228354   3.001   3.406  15.521  0.5100 -0.1947 -0.2281
 2288TIP3    H128355   2.984   3.498  15.540 -3.5101 -0.7722 -0.4824
 2288TIP3    H228356   2.933   3.359  15.570  1.3214 -2.8866 -1.5836
 2289TIP3   OH228357   5.063   5.194  13.514  0.1196  0.4472 -0.0153
 2289TIP3    H128358   5.099   5.190  13.603 -2.7476 -0.0462  1.1559
 2289TIP3    H228359   5.100   5.275  13.478  0.6478  1.1082  1.9193
 2290TIP3   OH228360   5.627   6.764  17.127 -0.6160  0.2624  0.7705
 2290TIP3    H128361   5.650   6.794  17.040 -1.6347 -0.0423  0.3865
 2290TIP3    H228362   5.658   6.674  17.131 -0.2082  0.4065  0.8669
 2291TIP3   OH228363   4.936   0.157   4.271 -0.1611 -0.0462 -0.1786
 2291TIP3    H128364   4.886   0.235   4.246  1.0655  0.1380 -2.1247
 2291TIP3    H228365   4.991   0.187   4.344 -0.7757  0.5061  0.0685
 2292TIP3   OH228366   0.792   3.788  15.693  0.0039  0.6545  0.0468
 2292TIP3    H128367   0.698   3.803  15.702  0.1057  0.9139  0.7572
 2292TIP3    H228368   0.799   3.710  15.638 -0.7167 -1.2542  2.5754
 2293TIP3   OH228369   3.151   2.144   5.686 -0.2384 -0.2874 -0.3356
 2293TIP3    H128370   3.231   2.122   5.638  1.2899  2.9311  0.6096
 2293TIP3    H228371   3.148   2.083   5.759 -0.2343 -2.3339 -2.0088
 2294TIP3   OH228372   2.303   5.821  16.798 -0.5980 -0.1409  0.6623
 2294TIP3    H128373   2.398   5.820  16.787 -0.8427  0.5482 -1.8187
 2294TIP3    H228374   2.286   5.898  16.852  0.0484  1.5048 -1.4186
 2295TIP3   OH228375   0.817   4.838  12.340  0.3191  0.0938  0.5888
 2295TIP3    H128376   0.730   4.817  12.372 -0.0964 -0.4503 -0.9176
 2295TIP3    H228377   0.875   4.818  12.414 -0.7716  0.0324  1.4322
 2296TIP3   OH228378   1.396   4.639   1.918  0.1848  0.0106  0.4087
 2296TIP3    H128379   1.410   4.718   1.969 -0.2767  1.0512 -1.0470
 2296TIP3    H228380   1.312   4.653   1.874 -0.2442 -1.5832  0.6974
 2297TIP3   OH228381   2.031   1.601   4.022 -0.1687 -0.1233 -0.2398
 2297TIP3    H128382   2.098   1.648   3.972 -1.0643 -2.2125 -3.5714
 2297TIP3    H228383   1.972   1.669   4.054  0.6245  1.3221 -1.7947
 2298TIP3   OH228384   1.774   1.582   5.994 -0.3342 -0.1050 -0.2867
 2298TIP3    H128385   1.686   1.556   6.021 -0.2383 -0.6140 -0.4647
 2298TIP3    H228386   1.801   1.515   5.931  0.5849 -0.5203  0.5316
 2299TIP3   OH228387   2.625   4.588   0.096 -0.1012 -0.3129 -0.0597
 2299TIP3    H128388   2.550   4.533   0.117 -1.9909  1.1730 -2.6853
 2299TIP3    H228389   2.610   4.669   0.145 -1.1078  0.6219 -1.8771
 2300TIP3   OH228390   6.261   4.504   6.130 -0.2968 -0.0570 -0.1856
 2300TIP3    H128391   6.319   4.535   6.061  0.1103 -1.2585 -0.3928
 2300TIP3    H228392   6.314   4.505   6.209 -0.5077  0.5027 -0.0525
 2301TIP3   OH228393   5.025   0.252   4.497 -0.0215 -0.5750  0.1510
 2301TIP3    H128394   5.121   0.253   4.505 -0.1644  0.1864  1.9451
 2301TIP3    H228395   5.000   0.344   4.496 -0.8398 -0.7731  1.2491
 2302TIP3   OH228396   5.760   4.657  12.144 -0.2141  0.3415 -0.0494
 2302TIP3    H128397   5.776   4.571  12.182 -0.9957  0.0290 -0.4112
 2302TIP3    H228398   5.777   4.719  12.215 -1.6993 -0.2357  0.8271
 2303TIP3   OH228399   6.800   6.599   3.234 -0.2235  0.4617 -0.4419
 2303TIP3    H128400   6.820   6.531   3.299 -2.6179  0.0422 -0.1067
 2303TIP3    H228401   6.836   6.564   3.152  2.2157  0.6897  0.4918
 2304TIP3   OH228402   5.094   5.315   6.025  0.3317  0.4642 -0.2180
 2304TIP3    H128403   5.033   5.247   6.055  0.9871  0.1206  0.3487
 2304TIP3    H228404   5.050   5.355   5.950 -2.0290  2.3420  2.0692
 2305TIP3   OH228405   3.406   0.613   3.949 -0.2414 -0.3465 -0.3785
 2305TIP3    H128406   3.469   0.542   3.965 -1.1680 -0.8046  1.3160
 2305TIP3    H228407   3.326   0.568   3.923 -0.3974  0.1703 -0.7986
 2306TIP3   OH228408   0.786   0.347   0.749  0.4795  0.3328  0.0657
 2306TIP3    H128409   0.729   0.283   0.707  0.1337  0.5554  0.1870
 2306TIP3    H228410   0.839   0.382   0.678  0.0080  0.5933 -0.1652
 2307TIP3   OH228411   5.230   6.111  16.558 -0.0962  0.3995 -0.5072
 2307TIP3    H128412   5.170   6.151  16.495  1.8348 -0.3921 -2.9481
 2307TIP3    H228413   5.311   6.160  16.548  1.0955 -1.5595 -0.6849
 2308TIP3   OH228414   5.593   4.630   6.831  0.2223  0.4053  0.1622
 2308TIP3    H128415   5.575   4.547   6.787  0.0423  0.5867 -0.1007
 2308TIP3    H228416   5.689   4.638   6.828  0.1957  0.5235 -0.3829
 2309TIP3   OH228417   0.067   4.831   1.400  0.3259  0.5388  0.0087
 2309TIP3    H128418   0.147   4.861   1.443  0.9843  0.7440 -1.3410
 2309TIP3    H228419   0.094   4.812   1.310 -0.6085 -1.7664  0.1902
 2310TIP3   OH228420   3.034   5.790   2.167 -0.1313 -0.1435  0.0155
 2310TIP3    H128421   3.108   5.786   2.227 -0.3043  0.9233  0.3038
 2310TIP3    H228422   2.972   5.725   2.201 -0.5207  0.9366  1.3984
 2311TIP3   OH228423   5.880   0.281   2.273 -0.2888 -0.3981  0.4357
 2311TIP3    H128424   5.813   0.313   2.212  0.0197  0.4225  0.5311
 2311TIP3    H228425   5.934   0.357   2.292  1.4283 -1.3240 -0.6060
 2312TIP3   OH228426   4.342   5.324  12.888 -0.3900 -0.0415 -0.4344
 2312TIP3    H128427   4.292   5.252  12.849 -1.5669  1.3220 -1.4582
 2312TIP3    H228428   4.419   5.332  12.832 -1.5276  1.1721 -1.8727
 2313TIP3   OH228429   2.923   1.841   5.389 -0.0031 -0.4219  0.0797
 2313TIP3    H128430   2.838   1.832   5.346  0.2503 -0.2724 -0.4517
 2313TIP3    H228431   2.950   1.752   5.409  0.5685 -0.5885 -1.4081
 2314TIP3   OH228432   5.899   4.751  16.140 -0.4975  0.0957 -0.0033
 2314TIP3    H128433   5.961   4.690  16.101 -1.5034 -0.0626 -1.3857
 2314TIP3    H228434   5.814   4.725  16.104 -1.0831  1.6190  0.2411
 2315TIP3   OH228435   2.958   4.089   0.860  0.0409 -0.3349  0.2948
 2315TIP3    H128436   2.878   4.125   0.819  0.4817 -0.3478 -0.5956
 2315TIP3    H228437   3.004   4.165   0.893  0.0242 -0.2559  0.1382
 2316TIP3   OH228438   3.947   2.669   2.779 -0.1200 -0.1649  0.2839
 2316TIP3    H128439   4.024   2.617   2.803  0.2258 -0.1036 -0.6476
 2316TIP3    H228440   3.900   2.614   2.716 -0.6331 -0.0425  0.5602
 2317TIP3   OH228441   2.182   6.423  13.946  0.4542  0.0729  0.6318
 2317TIP3    H128442   2.150   6.461  14.028  1.1538 -0.0082  0.9422
 2317TIP3    H228443   2.264   6.469  13.928 -0.2665  0.9155 -0.6357
 2318TIP3   OH228444   2.334   4.260  16.302 -0.4978 -0.7849  1.0075
 2318TIP3    H128445   2.411   4.217  16.340  0.0084  1.4972  2.6608
 2318TIP3    H228446   2.260   4.207  16.331  0.2006 -1.1870  2.0852
 2319TIP3   OH228447   3.184   1.907  14.728 -0.0867  0.4593  0.6982
 2319TIP3    H128448   3.204   1.914  14.634 -1.4999  1.6826  0.4617
 2319TIP3    H228449   3.260   1.943  14.772  0.9741 -0.9617  0.0482
 2320TIP3   OH228450   5.338   6.757  16.076  0.0356  0.0933 -0.1039
 2320TIP3    H128451   5.334   6.811  15.997 -0.3544  1.8876  1.1073
 2320TIP3    H228452   5.357   6.819  16.146 -0.2210 -1.3894  1.3026
 2321TIP3   OH228453   4.308   2.622  12.481  0.2219  0.0427  0.1024
 2321TIP3    H128454   4.395   2.630  12.520  0.4918  0.8143 -0.6453
 2321TIP3    H228455   4.269   2.546  12.524  1.2024 -0.2073  0.5550
 2322TIP3   OH228456   2.701   0.024  14.625  0.2291 -0.4920 -0.0570
 2322TIP3    H128457   2.762  -0.014  14.688 -0.1021 -2.0244 -0.6307
 2322TIP3    H228458   2.748   0.097  14.586  0.6499  0.1002  1.5463
 2323TIP3   OH228459   6.387   6.164   2.847  0.6105 -0.2445  0.3823
 2323TIP3    H128460   6.326   6.142   2.777  1.1495  0.7280 -0.3928
 2323TIP3    H228461   6.331   6.188   2.921  0.0590 -0.1683 -0.0613
 2324TIP3   OH228462   3.586   1.476   0.662 -0.1888 -0.0585  0.1868
 2324TIP3    H128463   3.581   1.534   0.586  0.4167  1.7398  1.4842
 2324TIP3    H228464   3.645   1.521   0.722  0.0130 -1.8749  1.3795
 2325TIP3   OH228465   3.656   2.767   2.082 -0.1651 -0.3089  0.6675
 2325TIP3    H128466   3.574   2.813   2.102  0.3972  0.4687  1.2376
 2325TIP3    H228467   3.696   2.819   2.012 -1.3863 -2.1571 -1.4693
 2326TIP3   OH228468   0.094   1.306   4.756  0.4197 -0.0015  0.9980
 2326TIP3    H128469   0.150   1.233   4.730  0.0723  0.3614 -0.7677
 2326TIP3    H228470   0.151   1.362   4.808  1.1017 -0.7405  1.0574
 2327TIP3   OH228471   3.221   5.057  12.341  0.2167  0.1359  0.2956
 2327TIP3    H128472   3.261   4.989  12.287  0.5591  0.8109 -0.3172
 2327TIP3    H228473   3.139   5.078  12.296  0.3820  0.5222  0.1708
 2328TIP3   OH228474   5.719   2.172   2.164  0.4612 -0.4992  0.1100
 2328TIP3    H128475   5.631   2.205   2.143  0.5272 -0.2087  0.2881
 2328TIP3    H228476   5.753   2.234   2.228  0.9331 -0.4183 -0.2164
 2329TIP3   OH228477   3.514   2.017   5.853  0.2605 -0.1634  0.2113
 2329TIP3    H128478   3.518   2.111   5.835 -1.6328  0.0130  0.5355
 2329TIP3    H228479   3.474   1.980   5.774  1.5860 -0.7842 -0.1744
 2330TIP3   OH228480   0.318   2.683  15.589 -0.8399  0.5041 -0.2730
 2330TIP3    H128481   0.303   2.627  15.513  0.6152  0.6187 -0.6525
 2330TIP3    H228482   0.389   2.641  15.637 -0.0297  1.7701 -0.3284
 2331TIP3   OH228483   1.891   3.068  13.394  0.0526  0.1813  0.2254
 2331TIP3    H128484   1.967   3.009  13.396 -1.9654 -2.5250  1.1947
 2331TIP3    H228485   1.874   3.081  13.301  0.3209 -1.1083 -0.0215
 2332TIP3   OH228486   1.048   1.757   2.108  0.0724  0.6945  0.1444
 2332TIP3    H128487   1.117   1.817   2.135  0.2879  0.3600  0.3541
 2332TIP3    H228488   1.056   1.683   2.169  1.7468 -0.9314 -1.9531
 2333TIP3   OH228489   4.839   0.633  15.825  0.4262 -0.8639 -0.2831
 2333TIP3    H128490   4.815   0.644  15.733 -0.0308  0.4351 -0.0297
 2333TIP3    H228491   4.934   0.642  15.826  0.3087  0.5187 -0.4613
 2334TIP3   OH228492   6.602   1.092  14.639 -0.0255  0.2978  0.0002
 2334TIP3    H128493   6.531   1.078  14.701  0.8632 -0.9028  0.7652
 2334TIP3    H228494   6.676   1.043  14.675  1.1948  1.5304 -0.7783
 2335TIP3   OH228495   1.245   3.375  16.294  0.4078 -0.5206  0.0716
 2335TIP3    H128496   1.299   3.298  16.276  0.2442 -0.5057 -0.4779
 2335TIP3    H228497   1.203   3.356  16.378  0.0160 -1.2239 -0.2817
 2336TIP3   OH228498   0.662   5.612   1.432  0.0990 -0.6726 -0.3253
 2336TIP3    H128499   0.739   5.600   1.377 -0.0738 -1.6059 -0.3853
 2336TIP3    H228500   0.601   5.543   1.402  0.0018 -1.1819  1.0171
 2337TIP3   OH228501   4.869   5.682   5.184  0.0423 -0.3291  0.5978
 2337TIP3    H128502   4.957   5.708   5.157  0.1332 -2.0422 -0.8671
 2337TIP3    H228503   4.810   5.742   5.137  0.4014  0.4778  1.1711
 2338TIP3   OH228504   6.636   6.161  13.736 -0.1960 -0.4193  0.1292
 2338TIP3    H128505   6.697   6.137  13.806  1.7517 -0.3740 -1.5314
 2338TIP3    H228506   6.668   6.245  13.704 -0.9848 -0.5246 -0.9538
 2339TIP3   OH228507   5.908   1.601  12.232  0.4252  0.1467  0.6614
 2339TIP3    H128508   5.969   1.540  12.191  0.7299 -0.0248  1.3779
 2339TIP3    H228509   5.822   1.573  12.200  0.8280  1.4211 -1.7036
 2340TIP3   OH228510   3.778   4.006   5.079 -0.1645 -0.5458 -0.2121
 2340TIP3    H128511   3.802   4.066   5.149 -0.5002 -1.0505  0.3437
 2340TIP3    H228512   3.761   3.923   5.124 -1.1492 -0.6690 -0.8076
 2341TIP3   OH228513   0.194   6.066  16.051 -0.4351  0.3877 -0.1754
 2341TIP3    H128514   0.202   6.136  16.115  0.1093 -0.2123  0.4205
 2341TIP3    H228515   0.102   6.039  16.057 -0.0851 -0.5290  1.2726
 2342TIP3   OH228516   4.755   4.852   4.321  0.4172 -0.0620 -0.1001
 2342TIP3    H128517   4.827   4.810   4.274 -0.6022 -1.0098 -0.8228
 2342TIP3    H228518   4.677   4.832   4.270 -0.2660  1.6816  0.2152
 2343TIP3   OH228519   1.760   3.358   2.490  0.6475 -0.2021  0.0988
 2343TIP3    H128520   1.752   3.264   2.476 -0.5128  0.0592 -1.0896
 2343TIP3    H228521   1.705   3.376   2.566  0.1977 -0.3643 -0.1869
 2344TIP3   OH228522   4.684   5.276  13.105 -0.4635  0.0786  0.5352
 2344TIP3    H128523   4.634   5.251  13.182 -0.4356  1.8594  1.1703
 2344TIP3    H228524   4.631   5.344  13.063  0.7504  0.9912  0.4533
 2345TIP3   OH228525   1.265   6.615   1.098  0.3202  0.1791 -0.1450
 2345TIP3    H128526   1.295   6.540   1.047  0.0098  0.6573 -1.0494
 2345TIP3    H228527   1.342   6.671   1.106  1.1649 -1.2812  2.4978
 2346TIP3   OH228528   1.999   2.102  16.781 -0.2301  0.1765 -0.0320
 2346TIP3    H128529   1.981   2.035  16.847 -0.2562  1.0597  0.8590
 2346TIP3    H228530   2.026   2.179  16.831  1.4590  0.3162 -1.1343
 2347TIP3   OH228531   6.277   0.545   0.006  0.3073 -0.4168 -0.2450
 2347TIP3    H128532   6.372   0.552   0.019  0.6468 -2.2106 -1.5960
 2347TIP3    H228533   6.265   0.459  -0.036 -1.7337  0.6001 -1.7967
 2348TIP3   OH228534   1.259   5.637  13.761  0.0276 -0.2969  0.3481
 2348TIP3    H128535   1.230   5.665  13.848  0.8675 -0.0960  0.5724
 2348TIP3    H228536   1.205   5.687  13.700  0.4844  0.7161  0.7561
 2349TIP3   OH228537   6.378   3.347   4.281 -0.1637 -0.1060 -0.6633
 2349TIP3    H128538   6.408   3.381   4.197  1.5780  0.7941  0.3000
 2349TIP3    H228539   6.435   3.273   4.299  2.2098  2.1696  1.6098
 2350TIP3   OH228540   5.042   0.530  13.727  0.1186  0.0825  0.1204
 2350TIP3    H128541   4.995   0.596  13.779  0.1124  1.4629 -1.5935
 2350TIP3    H228542   4.974   0.468  13.701 -0.3867  0.9110 -0.5655
 2351TIP3   OH228543   0.553   5.934   1.584 -0.2913 -0.3851  0.0542
 2351TIP3    H128544   0.617   5.998   1.552 -0.6348  0.0271  0.1788
 2351TIP3    H228545   0.547   5.951   1.678 -1.3389  0.2804 -0.1124
 2352TIP3   OH228546   0.648   2.766   2.674  0.0044  0.0890  0.0269
 2352TIP3    H128547   0.742   2.745   2.670  0.2365  1.2468 -0.9827
 2352TIP3    H228548   0.607   2.702   2.617  0.0795 -0.9134  1.0754
 2353TIP3   OH228549   0.064   5.897   2.019  0.1787 -0.0860  0.3649
 2353TIP3    H128550   0.009   5.831   1.977 -1.7709  1.8713 -0.2104
 2353TIP3    H228551   0.076   5.865   2.108  1.7094 -2.6678 -0.6825
 2354TIP3   OH228552   1.466   0.109  13.286 -0.1682 -0.0102 -0.3397
 2354TIP3    H128553   1.557   0.118  13.316 -0.1506 -1.0216 -0.0617
 2354TIP3    H228554   1.437   0.026  13.324 -2.0944  1.5929  1.8588
 2355TIP3   OH228555   4.103   0.070  16.700 -0.1735  0.1692 -0.0297
 2355TIP3    H128556   4.117   0.153  16.745  1.2390  0.4102 -0.8766
 2355TIP3    H228557   4.152   0.078  16.618 -0.6139 -1.2207 -0.4572
 2356TIP3   OH228558   1.523   0.563   5.176 -0.4033 -0.2593 -0.3482
 2356TIP3    H128559   1.596   0.621   5.156  0.5636 -1.5360 -0.5561
 2356TIP3    H228560   1.523   0.557   5.271 -1.8024  1.7084 -0.1871
 2357TIP3   OH228561   1.617   6.727   5.563 -0.0045 -0.3708 -0.3766
 2357TIP3    H128562   1.641   6.719   5.655  0.0066  0.3298 -0.3190
 2357TIP3    H228563   1.650   6.812   5.536  0.1069 -0.6257 -1.0661
 2358TIP3   OH228564   2.745   3.092   5.461 -0.2799  0.4800 -0.0369
 2358TIP3    H128565   2.835   3.071   5.436 -0.1701 -1.5324  1.8851
 2358TIP3    H228566   2.752   3.167   5.519 -0.2537  2.9954 -3.1437
 2359TIP3   OH228567   5.178   3.392  13.741  0.6101  0.1890  0.1948
 2359TIP3    H128568   5.213   3.304  13.728 -0.9912 -0.3706 -0.3829
 2359TIP3    H228569   5.230   3.448  13.684  3.5994  0.1131  2.7145
 2360TIP3   OH228570   3.158   1.471   5.498  0.4029  0.6175 -0.7461
 2360TIP3    H128571   3.118   1.489   5.583 -2.3232 -1.9243 -1.3986
 2360TIP3    H228572   3.208   1.390   5.511 -0.6275 -0.1867 -1.7303
 2361TIP3   OH228573   4.207   5.449  15.454 -0.8043 -0.7463  0.2883
 2361TIP3    H128574   4.245   5.373  15.410  0.3679 -0.5858  1.0060
 2361TIP3    H228575   4.149   5.488  15.389 -1.1677 -2.0702 -0.1928
 2362TIP3   OH228576   2.154   0.571   0.547  0.3283  0.0972  0.2011
 2362TIP3    H128577   2.134   0.577   0.453 -0.2345  1.5746  0.3990
 2362TIP3    H228578   2.082   0.518   0.583 -1.4804  2.6070  0.3684
 2363TIP3   OH228579   4.938   3.282   3.101  0.7108  0.4619  0.9499
 2363TIP3    H128580   4.957   3.372   3.129 -0.2043  1.2508 -0.8777
 2363TIP3    H228581   4.991   3.271   3.022 -0.5732  0.0514  0.1311
 2364TIP3   OH228582   6.280   2.949  13.601  0.1997  0.0749  0.3173
 2364TIP3    H128583   6.261   2.860  13.570 -0.3072  1.4143 -3.5093
 2364TIP3    H228584   6.198   2.997  13.587  1.2214  1.7533 -0.0487
 2365TIP3   OH228585   4.783   2.662   4.829  0.0496  0.2283 -0.3711
 2365TIP3    H128586   4.822   2.646   4.743  0.0505 -0.4792 -0.2479
 2365TIP3    H228587   4.823   2.595   4.885 -0.8534 -0.0791 -0.0927
 2366TIP3   OH228588   6.796   6.659  13.559 -0.0995 -0.3179  0.4477
 2366TIP3    H128589   6.815   6.588  13.621 -0.2244  0.4347  1.3686
 2366TIP3    H228590   6.781   6.615  13.475  2.1770 -1.2075  0.4700
 2367TIP3   OH228591   4.925   1.831  13.661 -0.5127  0.1743  0.1973
 2367TIP3    H128592   4.970   1.814  13.743  1.6632 -0.5241 -1.0970
 2367TIP3    H228593   4.891   1.746  13.633 -2.9822  0.7460  1.3150
 2368TIP3   OH228594   4.201   2.764  13.276 -0.2342  0.2253 -0.9783
 2368TIP3    H128595   4.215   2.681  13.232 -0.9035 -0.2956 -0.2104
 2368TIP3    H228596   4.127   2.804  13.230 -3.6845 -2.1811  2.2501
 2369TIP3   OH228597   6.251   0.418  11.293 -0.0292 -0.3893  0.0974
 2369TIP3    H128598   6.320   0.450  11.235  0.7470 -1.5452  0.3527
 2369TIP3    H228599   6.291   0.419  11.380  0.0414 -1.9992  0.1132
 2370TIP3   OH228600   3.280   1.432   2.641  0.0813 -0.1141 -0.3254
 2370TIP3    H128601   3.271   1.422   2.546  0.9967  1.7521 -0.6364
 2370TIP3    H228602   3.246   1.519   2.659 -0.3980 -0.5898  1.1214
 2371TIP3   OH228603   0.620   5.540   3.436 -0.0947 -0.4957 -0.4461
 2371TIP3    H128604   0.638   5.482   3.510 -1.1389  1.1118  1.1007
 2371TIP3    H228605   0.577   5.616   3.474  2.0359  1.7466 -2.2755
 2372TIP3   OH228606   0.318   3.399  16.527 -0.0194  0.1652 -0.0558
 2372TIP3    H128607   0.363   3.442  16.455 -0.7515 -0.5310 -0.9550
 2372TIP3    H228608   0.381   3.399  16.599  0.2575  2.0340 -0.2695
 2373TIP3   OH228609   3.577   0.943   2.867  0.1804 -0.0313  0.8176
 2373TIP3    H128610   3.603   0.939   2.959  2.5515 -0.4200  0.1658
 2373TIP3    H228611   3.616   0.865   2.827 -1.9594 -0.5951 -0.2600
 2374TIP3   OH228612   2.673   4.114   4.040  0.3765  0.4144  0.5342
 2374TIP3    H128613   2.674   4.164   4.122  2.7898  1.0983  0.1296
 2374TIP3    H228614   2.753   4.061   4.043 -0.9145 -1.6470 -0.1492
 2375TIP3   OH228615   3.209   4.086  12.307  0.7173  0.1955 -0.8717
 2375TIP3    H128616   3.251   4.016  12.358  1.1366  0.2482 -1.1439
 2375TIP3    H228617   3.208   4.053  12.217 -1.6737 -0.6920 -0.5729
 2376TIP3   OH228618   3.320   6.117  12.257 -0.2049 -0.4598 -0.3162
 2376TIP3    H128619   3.224   6.124  12.262 -0.4089 -1.3605 -2.3831
 2376TIP3    H228620   3.347   6.195  12.208  0.1961  0.1639  0.8889
 2377TIP3   OH228621   1.011   3.819  14.057 -0.2221 -0.2506  0.5031
 2377TIP3    H128622   1.067   3.742  14.050 -0.7154 -0.6639  1.0305
 2377TIP3    H228623   1.058   3.888  14.011 -0.2282 -1.1230 -0.8352
 2378TIP3   OH228624   1.706   3.431   3.493  0.1815  0.4956 -0.1204
 2378TIP3    H128625   1.735   3.355   3.544  2.1774  0.8611 -0.6696
 2378TIP3    H228626   1.659   3.393   3.418 -2.5745 -0.0449  1.8019
 2379TIP3   OH228627   1.750   5.915   6.195  0.2976  0.9066 -0.6083
 2379TIP3    H128628   1.831   5.929   6.244  2.2201 -0.2366 -3.3044
 2379TIP3    H228629   1.682   5.909   6.262  2.3880  2.1720  1.7114
 2380TIP3   OH228630   4.230   5.738  14.732  0.1253 -0.5441  0.6436
 2380TIP3    H128631   4.268   5.666  14.783  1.0296  0.3489  1.2478
 2380TIP3    H228632   4.154   5.766  14.783  1.4535  0.8316  1.8892
 2381TIP3   OH228633   0.941   6.109   5.034 -0.2403  0.4788  0.6110
 2381TIP3    H128634   0.873   6.059   5.079 -0.2998 -0.3072 -0.3636
 2381TIP3    H228635   0.927   6.199   5.064 -2.4226  0.5219 -0.4606
 2382TIP3   OH228636   6.336   0.544  16.469 -0.4149  0.4040  0.0586
 2382TIP3    H128637   6.308   0.487  16.397 -0.6651  1.0486 -0.3561
 2382TIP3    H228638   6.399   0.491  16.518 -0.7598 -0.2865 -0.2343
 2383TIP3   OH228639   0.880   5.965   5.437  0.4421  0.0925 -0.2367
 2383TIP3    H128640   0.785   5.956   5.432  0.1898  2.8196 -1.1056
 2383TIP3    H228641   0.896   6.015   5.517  1.2857 -1.8625  0.8454
 2384TIP3   OH228642   0.090   0.026   5.302  0.0342 -0.0677  0.6922
 2384TIP3    H128643   0.037   0.098   5.338 -1.7886 -1.7303  1.4312
 2384TIP3    H228644   0.069   0.026   5.208 -2.5750 -1.7371  1.2436
 2385TIP3   OH228645   1.967   4.796   1.362  0.5311  0.3952 -0.7576
 2385TIP3    H128646   1.882   4.809   1.319 -0.0740  0.3752  0.4095
 2385TIP3    H228647   1.945   4.788   1.455  1.8717  0.9141 -0.3938
 2386TIP3   OH228648   1.330   0.548  17.027  0.0711 -1.1551 -0.4064
 2386TIP3    H128649   1.279   0.473  16.997  0.7407 -1.6788 -0.2584
 2386TIP3    H228650   1.313   0.616  16.962 -0.7602 -1.3476 -0.3851
 2387TIP3   OH228651   4.294   0.873  15.085 -0.0605  0.1041 -0.3806
 2387TIP3    H128652   4.324   0.948  15.033 -0.1767  0.4553  0.0473
 2387TIP3    H228653   4.350   0.801  15.059 -0.5737  0.1095 -1.4931
 2388TIP3   OH228654   1.994   6.377  17.217 -0.4620  0.3632 -0.1778
 2388TIP3    H128655   2.084   6.352  17.198 -0.5955 -0.5338  0.3460
 2388TIP3    H228656   2.000   6.430  17.297 -0.4247  0.1698 -0.0564
 2389TIP3   OH228657   3.053   6.172   2.802  0.0005 -0.4655 -0.7047
 2389TIP3    H128658   3.132   6.117   2.807  0.3706  0.2118  0.9094
 2389TIP3    H228659   2.981   6.109   2.795  0.3658 -1.2200  1.7666
 2390TIP3   OH228660   4.291   5.064   6.354  0.0449 -0.5648  0.1703
 2390TIP3    H128661   4.346   5.015   6.416 -0.6317 -1.8248 -0.2008
 2390TIP3    H228662   4.353   5.099   6.290  0.5262 -1.1455  0.3043
 2391TIP3   OH228663   6.343   3.370   1.824  0.0820  0.2873  0.4336
 2391TIP3    H128664   6.260   3.377   1.871 -0.7356  0.2180 -0.9767
 2391TIP3    H228665   6.333   3.293   1.769  1.1496  0.1840  0.3738
 2392TIP3   OH228666   4.794   4.871  12.246 -0.8793  0.5857  0.4128
 2392TIP3    H128667   4.716   4.925  12.236 -1.4062 -0.0402  1.0755
 2392TIP3    H228668   4.773   4.812  12.318  0.3996  0.7596  0.9456
 2393TIP3   OH228669   4.300   6.778   1.493 -0.0047  0.3544  0.1988
 2393TIP3    H128670   4.213   6.796   1.459 -0.2457 -2.3518 -0.6695
 2393TIP3    H228671   4.285   6.751   1.584  0.0459  0.9357  0.3847
 2394TIP3   OH228672   5.718   3.026   0.444 -0.3471 -0.6852  0.4882
 2394TIP3    H128673   5.631   3.006   0.408 -0.4891 -0.0350  0.4591
 2394TIP3    H228674   5.709   3.114   0.481  0.4658 -0.3703 -0.0480
 2395TIP3   OH228675   5.806   5.314   1.153  0.0594 -0.0488  0.7011
 2395TIP3    H128676   5.817   5.300   1.247 -0.9863  2.1679  1.1937
 2395TIP3    H228677   5.893   5.335   1.121  0.0174  1.6462  1.6434
 2396TIP3   OH228678   3.393   3.831   0.741  0.1334  0.2682 -0.1703
 2396TIP3    H128679   3.355   3.915   0.720 -0.6568  0.4684  1.8943
 2396TIP3    H228680   3.487   3.848   0.748 -0.1515  1.2722  1.4641
 2397TIP3   OH228681   0.820   4.946   2.250  0.3918 -0.2597 -0.6309
 2397TIP3    H128682   0.814   4.927   2.156  0.7871 -0.2921 -0.6508
 2397TIP3    H228683   0.819   5.041   2.255  1.0269 -0.2447 -0.7172
 2398TIP3   OH228684   3.394   6.630  16.146  0.2490 -0.1871 -0.3581
 2398TIP3    H128685   3.473   6.621  16.093  0.6053  0.2917  0.0884
 2398TIP3    H228686   3.344   6.699  16.103  0.3430 -0.0881 -0.3093
 2399TIP3   OH228687   3.368   4.161   0.558 -0.3910 -0.4050 -0.0165
 2399TIP3    H128688   3.456   4.165   0.597 -1.9199 -1.5330  3.7833
 2399TIP3    H228689   3.358   4.071   0.530  0.1534  0.0577 -1.7417
 2400TIP3   OH228690   3.009   4.653  10.883 -0.1713  0.1161 -0.4705
 2400TIP3    H128691   2.914   4.640  10.886 -0.3189  0.9313 -1.2938
 2400TIP3    H228692   3.032   4.637  10.791  0.2672  1.3513 -0.5833
 2401TIP3   OH228693   0.824   3.768  11.135 -0.1478 -0.0838 -0.1223
 2401TIP3    H128694   0.816   3.835  11.202  0.8380  0.7152 -0.7926
 2401TIP3    H228695   0.777   3.692  11.171 -1.2884  0.9594  0.6289
 2402TIP3   OH228696   3.602   1.624  15.386  0.2448 -0.7287  0.8496
 2402TIP3    H128697   3.594   1.544  15.438  1.2814 -1.8601 -0.6923
 2402TIP3    H228698   3.681   1.611  15.334  0.0001  0.9828  0.0160
 2403TIP3   OH228699   2.443   1.132   0.246 -0.1463  0.3949 -0.2274
 2403TIP3    H128700   2.443   1.225   0.268  0.3518  0.1853  0.6799
 2403TIP3    H228701   2.481   1.089   0.322 -2.0004 -0.7376  0.1082
 2404TIP3   OH228702   5.189   4.912   1.957  0.0008  0.2693  0.6973
 2404TIP3    H128703   5.218   4.820   1.959  0.4063  0.4128  2.9689
 2404TIP3    H228704   5.093   4.906   1.959 -0.0021 -0.1078 -0.1577
 2405TIP3   OH228705   6.360   6.508   0.443 -0.1244  0.3217 -0.5581
 2405TIP3    H128706   6.282   6.456   0.426 -0.3643  0.5044 -0.0341
 2405TIP3    H228707   6.432   6.444   0.446 -0.0129  0.3357 -2.6233
 2406TIP3   OH228708   6.078   0.834   1.897  0.1514  0.2099  0.9120
 2406TIP3    H128709   6.057   0.924   1.919 -0.3476  0.2417  0.3121
 2406TIP3    H228710   6.045   0.822   1.808  0.9748 -0.3080  0.6675
 2407TIP3   OH228711   4.332   4.116   0.691 -0.2564  0.5617  0.1268
 2407TIP3    H128712   4.401   4.060   0.726 -0.3647 -0.3938 -1.1619
 2407TIP3    H228713   4.294   4.159   0.768  0.8540  0.0469  0.9641
 2408TIP3   OH228714   2.846   3.273  12.804 -0.3877 -0.4103  0.3142
 2408TIP3    H128715   2.757   3.309  12.814  0.4852  1.7307  0.6209
 2408TIP3    H228716   2.841   3.220  12.724 -1.9232 -0.2202  0.2655
 2409TIP3   OH228717   1.988   3.139   2.525 -0.0059 -0.1270 -0.6979
 2409TIP3    H128718   1.980   3.160   2.618 -1.7038 -0.5051 -0.7308
 2409TIP3    H228719   1.981   3.044   2.521  2.7794 -0.3579 -0.9905
 2410TIP3   OH228720   1.029   3.803   4.701 -0.7473  0.5068  0.2481
 2410TIP3    H128721   1.117   3.835   4.682 -1.6830  2.8073 -0.3671
 2410TIP3    H228722   1.006   3.751   4.624  0.1464 -0.3265  0.5233
 2411TIP3   OH228723   4.799   4.136   3.512  0.4164 -0.0147 -1.0528
 2411TIP3    H128724   4.750   4.054   3.524 -1.1434  1.0347 -0.1864
 2411TIP3    H228725   4.787   4.184   3.594  3.3045  0.0809 -0.6149
 2412TIP3   OH228726   1.409   0.389  13.474  0.0900 -0.1005  0.0920
 2412TIP3    H128727   1.374   0.461  13.528 -0.8106 -1.7378  1.7610
 2412TIP3    H228728   1.413   0.425  13.386  0.5355  2.3102  1.0501
 2413TIP3   OH228729   2.499   4.151  12.233  0.0923 -0.5550  0.2210
 2413TIP3    H128730   2.500   4.074  12.290  0.2250  0.6633  1.9284
 2413TIP3    H228731   2.575   4.203  12.262 -0.5239  0.6495 -0.2617
 2414TIP3   OH228732   3.636   0.878   4.984  0.5485 -0.2538 -0.0740
 2414TIP3    H128733   3.681   0.959   5.010 -0.1204 -0.0620  0.5108
 2414TIP3    H228734   3.677   0.810   5.037  1.5697 -0.4154 -1.0434
 2415TIP3   OH228735   5.900   6.520  15.916  0.2966 -0.7840  0.2159
 2415TIP3    H128736   5.847   6.441  15.927 -1.7909  0.9584  3.5276
 2415TIP3    H228737   5.837   6.588  15.893  1.8256  0.3031 -0.8361
 2416TIP3   OH228738   5.031   6.700  16.541 -0.1644 -0.2781  0.2031
 2416TIP3    H128739   5.010   6.682  16.449  0.2743  1.0015 -0.1559
 2416TIP3    H228740   5.104   6.762  16.536 -0.2725 -0.0593  1.4219
 2417TIP3   OH228741   1.877   1.735   3.169 -0.1102 -0.4985  0.4389
 2417TIP3    H128742   1.884   1.682   3.248  2.7419  1.5892  1.6902
 2417TIP3    H228743   1.918   1.818   3.192 -1.0297  0.8963 -2.6304
 2418TIP3   OH228744   6.703   4.630  11.031  0.2796 -0.0829 -0.1390
 2418TIP3    H128745   6.756   4.709  11.030 -1.2180  0.9676  1.4483
 2418TIP3    H228746   6.617   4.658  11.001 -0.0565 -1.2811 -0.3276
 2419TIP3   OH228747   3.330   6.776   2.669  0.4516 -0.3664 -0.4671
 2419TIP3    H128748   3.425   6.780   2.679  0.7782  0.9965 -3.3855
 2419TIP3    H228749   3.298   6.740   2.751  3.6143 -2.4096 -0.0687
 2420TIP3   OH228750   4.375   0.038  15.909  0.1792  0.7027 -0.3582
 2420TIP3    H128751   4.404   0.031  16.000  0.2272 -0.9099 -0.4818
 2420TIP3    H228752   4.298   0.094  15.913 -0.0406  0.3367  0.7289
 2421TIP3   OH228753   0.637   5.583  12.514 -0.1043  0.6982  0.1328
 2421TIP3    H128754   0.605   5.673  12.514 -0.7789  0.4975  3.1044
 2421TIP3    H228755   0.560   5.531  12.537  0.6654 -0.5075  0.0043
 2422TIP3   OH228756   3.478   1.074  13.932  0.0616  0.0893 -0.0241
 2422TIP3    H128757   3.541   1.139  13.963  0.8421 -1.1312  0.9891
 2422TIP3    H228758   3.529   0.994  13.921 -1.3272 -0.9682  0.9814
 2423TIP3   OH228759   2.579   3.688   2.257  0.2816 -0.6330  0.8093
 2423TIP3    H128760   2.639   3.617   2.277 -1.3766 -1.8408  1.6744
 2423TIP3    H228761   2.598   3.755   2.322  3.5027  0.7772 -1.5028
 2424TIP3   OH228762   3.897   3.211   2.959 -0.5425 -0.2154  0.2323
 2424TIP3    H128763   3.918   3.298   2.991 -1.9612  0.9705 -1.9513
 2424TIP3    H228764   3.822   3.183   3.011 -0.0247 -0.1908  0.9968
 2425TIP3   OH228765   1.675   0.223  11.142  0.3712 -0.1835 -0.2559
 2425TIP3    H128766   1.628   0.181  11.214 -0.3677  0.4068 -0.3956
 2425TIP3    H228767   1.609   0.275  11.097  0.6390 -1.1911 -1.8560
 2426TIP3   OH228768   1.815   0.243  14.868 -0.2173 -0.3856 -0.1538
 2426TIP3    H128769   1.881   0.308  14.894 -2.0063  1.0505  0.9123
 2426TIP3    H228770   1.835   0.226  14.776  1.5573  0.1165  0.1038
 2427TIP3   OH228771   2.805   6.621  16.549 -0.7518  0.3986  0.0558
 2427TIP3    H128772   2.824   6.571  16.469  0.6953 -0.7448  1.0948
 2427TIP3    H228773   2.714   6.602  16.568 -0.4538 -1.1669 -0.0462
 2428TIP3   OH228774   1.349   0.570   0.008 -0.3375  0.4635  0.0309
 2428TIP3    H128775   1.353   0.662   0.033 -1.2678  1.0816 -1.9766
 2428TIP3    H228776   1.355   0.570  -0.088  1.4811 -1.6904  0.1025
 2429TIP3   OH228777   0.531   1.388  12.738 -0.3818  0.1733 -0.4113
 2429TIP3    H128778   0.436   1.401  12.738 -0.3484  0.4122 -0.2910
 2429TIP3    H228779   0.561   1.432  12.659 -0.5217 -0.9912 -1.1263
 2430TIP3   OH228780   4.791   0.706   2.265 -0.3442 -0.0059 -0.2107
 2430TIP3    H128781   4.742   0.760   2.327 -0.4782 -0.6015  0.2031
 2430TIP3    H228782   4.735   0.700   2.188 -1.8257 -2.3418  0.9953
 2431TIP3   OH228783   2.077   2.258  12.092  0.2689 -0.4648 -0.2002
 2431TIP3    H128784   2.033   2.177  12.116 -0.5180  0.3037  0.9794
 2431TIP3    H228785   2.116   2.290  12.173 -0.1988  0.7876 -0.4447
 2432TIP3   OH228786   5.272   2.552   0.300  0.1132 -0.2122  0.0512
 2432TIP3    H128787   5.311   2.614   0.362  1.9837 -1.7902  0.5105
 2432TIP3    H228788   5.276   2.597   0.216  3.0159 -0.3014  0.0839
 2433TIP3   OH228789   0.380   5.439  16.008  0.4846  0.0152 -0.1819
 2433TIP3    H128790   0.306   5.485  16.048 -0.0272  0.3230 -1.4515
 2433TIP3    H228791   0.371   5.457  15.914  1.5537 -0.8484 -0.4567
 2434TIP3   OH228792   3.247   3.668  16.800  0.2846 -0.0374  0.2266
 2434TIP3    H128793   3.273   3.659  16.709  1.0259 -1.9522  0.6040
 2434TIP3    H228794   3.154   3.642  16.801 -0.2144  1.6704 -0.2487
 2435TIP3   OH228795   0.900   1.334   2.245  0.6172 -0.4925  0.1796
 2435TIP3    H128796   0.882   1.310   2.336 -2.3346  1.8802  0.3012
 2435TIP3    H228797   0.850   1.271   2.194 -1.4526  0.9313  0.3612
 2436TIP3   OH228798   4.660   4.344   2.230 -0.2014 -0.7370 -0.4241
 2436TIP3    H128799   4.750   4.323   2.204 -0.1771 -0.7994 -0.2892
 2436TIP3    H228800   4.606   4.279   2.186 -0.4423  1.0095 -2.7909
 2437TIP3   OH228801   5.620   2.399  15.838  0.0901 -0.0555  0.2179
 2437TIP3    H128802   5.528   2.372  15.843 -0.2211  0.8716 -0.3377
 2437TIP3    H228803   5.616   2.495  15.840  1.0737 -0.0185  0.5997
 2438TIP3   OH228804   1.893   0.938   0.097  0.0313  0.3363 -0.3618
 2438TIP3    H128805   1.934   0.940   0.011  2.1105  1.2314  0.5936
 2438TIP3    H228806   1.947   0.996   0.150 -1.2898 -0.0971  1.5129
 2439TIP3   OH228807   6.306   0.379   3.067  0.2081  0.3149  0.5374
 2439TIP3    H128808   6.221   0.363   3.026  1.2776 -0.5417 -1.4401
 2439TIP3    H228809   6.347   0.293   3.071  1.4078  0.8806  0.4547
 2440TIP3   OH228810   3.346   4.515  14.281 -0.1316  0.1150 -0.1733
 2440TIP3    H128811   3.393   4.589  14.319  0.6604 -1.8324  2.7806
 2440TIP3    H228812   3.253   4.534  14.298  0.0121  0.8045 -0.1519
 2441TIP3   OH228813   3.232   2.949  11.671 -0.0507  0.4976 -0.2023
 2441TIP3    H128814   3.244   2.955  11.576  0.6748 -0.5763 -0.1798
 2441TIP3    H228815   3.268   2.864  11.695 -3.6481 -0.9295  0.5174
 2442TIP3   OH228816   1.517   0.497  11.359 -0.2969 -0.6366 -0.1315
 2442TIP3    H128817   1.471   0.495  11.275 -1.9855 -1.0539  0.7896
 2442TIP3    H228818   1.549   0.408  11.371  1.7617 -0.0881 -1.2936
 2443TIP3   OH228819   2.266   0.292   0.768 -0.2566  0.3361 -0.0167
 2443TIP3    H128820   2.275   0.309   0.674 -1.8954  0.3147 -0.1944
 2443TIP3    H228821   2.318   0.213   0.783 -0.5665 -0.0731 -1.0478
 2444TIP3   OH228822   0.062   5.466   3.735 -0.5597 -0.3201 -0.1135
 2444TIP3    H128823   0.148   5.481   3.697 -0.2806 -0.2745  0.5336
 2444TIP3    H228824   0.007   5.535   3.698  0.0253  0.5233  0.5881
 2445TIP3   OH228825   0.999   6.030  15.327 -0.0247 -0.3674  0.0788
 2445TIP3    H128826   0.918   6.026  15.380  0.1557  0.9153  0.4726
 2445TIP3    H228827   0.981   5.973  15.253 -0.3262 -2.1334  1.4744
 2446TIP3   OH228828   6.786   1.778  14.598  0.5792  0.5280 -0.1475
 2446TIP3    H128829   6.870   1.743  14.628  0.7911  1.0374 -0.1320
 2446TIP3    H228830   6.789   1.871  14.622 -0.5226  0.2720  1.0206
 2447TIP3   OH228831   2.973   4.217  12.202  0.2304  0.2799  0.5234
 2447TIP3    H128832   2.903   4.205  12.138  0.1560  0.6751  0.5331
 2447TIP3    H228833   3.021   4.134  12.201  0.2500  0.2973 -0.0629
 2448TIP3   OH228834   4.114   1.302   6.186  0.5308  0.0818  0.5393
 2448TIP3    H128835   4.143   1.222   6.230  0.3062  0.2644  1.0244
 2448TIP3    H228836   4.164   1.304   6.105 -0.9823 -1.6810 -0.5114
 2449TIP3   OH228837   1.363   2.877   1.021 -0.2841  0.5560 -0.1905
 2449TIP3    H128838   1.449   2.848   0.991 -0.5951 -1.2900  0.5932
 2449TIP3    H228839   1.356   2.842   1.110 -1.5716  1.2465 -0.0116
 2450TIP3   OH228840   6.561   6.663   4.457  0.0186  0.3080  0.1756
 2450TIP3    H128841   6.530   6.669   4.366 -1.7023 -0.1945  0.7207
 2450TIP3    H228842   6.643   6.614   4.450 -1.0458 -1.3869 -0.9181
 2451TIP3   OH228843   2.418   0.434   4.711  0.9620  0.8168  0.1510
 2451TIP3    H128844   2.340   0.490   4.717  0.2700 -0.1539  0.2309
 2451TIP3    H228845   2.422   0.408   4.619  0.8467  0.3789  0.2685
 2452TIP3   OH228846   1.704   1.811  12.634  0.7700 -0.5281 -0.1257
 2452TIP3    H128847   1.649   1.876  12.591  0.1101 -0.6606  0.5088
 2452TIP3    H228848   1.684   1.820  12.728 -1.2260 -3.2938 -0.1800
 2453TIP3   OH228849   4.504   5.196   3.561 -0.4552 -0.4870 -0.2502
 2453TIP3    H128850   4.473   5.113   3.524 -1.6104  0.6100 -1.8041
 2453TIP3    H228851   4.600   5.190   3.558 -0.5279 -1.7984 -0.2377
 2454TIP3   OH228852   4.626   2.946   3.059 -0.0236  0.3747 -0.1040
 2454TIP3    H128853   4.678   2.868   3.041 -0.1545  0.3000 -0.1632
 2454TIP3    H228854   4.620   2.991   2.974  1.6325  1.4299  0.3177
 2455TIP3   OH228855   0.302   3.532  16.858  0.0554  0.2064 -0.4687
 2455TIP3    H128856   0.299   3.576  16.944  0.2428  0.9543 -0.8423
 2455TIP3    H228857   0.386   3.486  16.857 -0.4390 -0.7324  0.1964
 2456TIP3   OH228858   2.303   5.912   5.520  0.2890  0.0443 -0.2210
 2456TIP3    H128859   2.248   5.852   5.470 -0.7190  0.4612  0.3700
 2456TIP3    H228860   2.249   5.939   5.594  1.7838 -0.6200  1.1610
 2457TIP3   OH228861   3.561   0.183  12.124 -0.2494  0.0578  0.2546
 2457TIP3    H128862   3.650   0.175  12.089  0.5684  2.3017  1.7294
 2457TIP3    H228863   3.533   0.271  12.099 -2.3464 -0.8797 -0.7901
 2458TIP3   OH228864   5.945   2.621   5.639 -0.3874  0.6159  0.1877
 2458TIP3    H128865   5.997   2.701   5.628  0.6255 -0.0706 -0.1244
 2458TIP3    H228866   6.001   2.564   5.691 -1.5104  0.4702  1.2435
 2459TIP3   OH228867   0.060   3.350  16.414 -0.2689 -0.2052 -0.2544
 2459TIP3    H128868   0.144   3.329  16.454  1.1587  1.3291 -2.3694
 2459TIP3    H228869   0.074   3.433  16.369 -3.3749  0.9057  0.7055
 2460TIP3   OH228870   5.641   1.749   3.031  0.1012 -0.5993  0.8798
 2460TIP3    H128871   5.731   1.776   3.052 -0.3653  0.9382  0.9389
 2460TIP3    H228872   5.633   1.662   3.069  1.3998 -0.5370  1.3341
 2461TIP3   OH228873   6.025   0.633  17.192 -0.2168 -0.4155 -0.1268
 2461TIP3    H128874   6.119   0.630  17.210  0.0565  0.5752 -1.3187
 2461TIP3    H228875   6.015   0.580  17.113 -0.3393  1.2650 -1.2534
 2462TIP3   OH228876   4.447   0.528   4.659  0.1964 -0.4227  0.2859
 2462TIP3    H128877   4.397   0.604   4.630  1.3276  0.1783 -0.1160
 2462TIP3    H228878   4.417   0.513   4.749 -1.3181 -0.6019 -0.2370
 2463TIP3   OH228879   5.956   5.483  13.192  0.0099 -0.7041  0.2266
 2463TIP3    H128880   6.050   5.464  13.190  0.1957  0.2711 -1.2211
 2463TIP3    H228881   5.917   5.421  13.130 -0.2674 -0.9163  0.6102
 2464TIP3   OH228882   3.253   5.376   3.962 -0.6849 -0.1946 -0.0098
 2464TIP3    H128883   3.248   5.361   4.057 -0.0370  1.0486  0.2413
 2464TIP3    H228884   3.260   5.471   3.954  1.0698 -0.4031 -1.2227
 2465TIP3   OH228885   2.865   5.093   1.442 -0.3880  0.6340  0.0648
 2465TIP3    H128886   2.919   5.042   1.502 -1.3127 -0.4165  0.0200
 2465TIP3    H228887   2.900   5.182   1.448  2.6359 -0.4138 -1.5138
 2466TIP3   OH228888   6.162   5.486   1.544  0.2945 -0.6870  0.5427
 2466TIP3    H128889   6.232   5.529   1.495 -1.1604  0.0224 -0.9903
 2466TIP3    H228890   6.151   5.539   1.623 -1.0474  1.4711 -1.0314
 2467TIP3   OH228891   1.602   3.958  14.864 -0.0690 -0.7001 -0.1130
 2467TIP3    H128892   1.670   3.994  14.807 -0.1323 -1.3159 -0.5762
 2467TIP3    H228893   1.649   3.899  14.923 -0.0449 -0.2823  0.2868
 2468TIP3   OH228894   6.040   4.817  11.123  0.2961  0.0188 -0.3959
 2468TIP3    H128895   6.122   4.849  11.160  0.5741 -1.1124 -0.0246
 2468TIP3    H228896   6.011   4.888  11.065  1.1140  0.7608  0.0899
 2469TIP3   OH228897   3.494   1.846  15.511 -0.1559 -0.3488 -0.0332
 2469TIP3    H128898   3.478   1.816  15.601  0.0074 -0.8850 -0.1810
 2469TIP3    H228899   3.547   1.777  15.472 -1.5944 -0.9195 -1.0454
 2470TIP3   OH228900   4.071   4.357  13.600  0.1737  0.2100 -0.0793
 2470TIP3    H128901   4.076   4.414  13.677  0.7659  1.3249 -0.9330
 2470TIP3    H228902   4.160   4.359  13.564  0.6737 -2.6376  0.8528
 2471TIP3   OH228903   6.812   1.341  10.574 -0.0432 -0.7151 -0.5757
 2471TIP3    H128904   6.891   1.345  10.520 -0.0629 -1.2402 -0.6461
 2471TIP3    H228905   6.836   1.387  10.655  0.4888 -1.3034 -0.3998
 2472TIP3   OH228906   5.747   0.275   4.417  0.6552 -0.3646  0.1693
 2472TIP3    H128907   5.798   0.218   4.474 -0.0562 -0.2682  0.9118
 2472TIP3    H228908   5.757   0.362   4.455 -2.0358 -0.6958  1.7781
 2473TIP3   OH228909   0.716   6.121  17.028 -0.3688 -0.1064  0.0602
 2473TIP3    H128910   0.765   6.080  16.958 -1.2678  0.6290 -1.0141
 2473TIP3    H228911   0.737   6.069  17.106  1.2211 -0.4742 -0.5879
 2474TIP3   OH228912   4.053   6.397   1.566  0.7305 -0.1586  0.6739
 2474TIP3    H128913   4.122   6.444   1.520 -0.6710  3.0651  1.7196
 2474TIP3    H228914   4.067   6.305   1.544  2.7992  0.8554 -2.4644
 2475TIP3   OH228915   0.359   2.798  15.169  0.2109  0.8587  0.3486
 2475TIP3    H128916   0.438   2.764  15.211 -0.8694 -0.4815  1.3222
 2475TIP3    H228917   0.348   2.744  15.091  1.3141  2.3035 -0.8424
 2476TIP3   OH228918   2.471   1.539  10.683 -0.3055  0.4628 -0.7560
 2476TIP3    H128919   2.458   1.446  10.664 -1.2024  0.6095 -0.8753
 2476TIP3    H228920   2.415   1.556  10.759  1.6168  0.3696  0.7330
 2477TIP3   OH228921   6.812   0.118  16.369  0.6181  0.2866 -0.3802
 2477TIP3    H128922   6.842   0.033  16.337  2.2527  0.1999  1.2527
 2477TIP3    H228923   6.890   0.173  16.366 -0.2139  1.4649 -0.5441
 2478TIP3   OH228924   5.996   1.547   5.957 -0.2738 -0.5318 -1.0628
 2478TIP3    H128925   5.945   1.474   5.993  1.9694 -0.9881  1.3892
 2478TIP3    H228926   6.049   1.577   6.031 -2.0823  4.5021 -1.6164
 2479TIP3   OH228927   0.693   2.995  14.277  0.1960 -0.1346 -0.4596
 2479TIP3    H128928   0.614   2.942  14.277  0.0528  0.0727 -1.2792
 2479TIP3    H228929   0.669   3.075  14.231 -0.0789  1.4262  2.2811
 2480TIP3   OH228930   3.189   5.207   1.637  0.0048 -0.2092  0.2347
 2480TIP3    H128931   3.170   5.300   1.631  0.2261 -0.2523 -1.3223
 2480TIP3    H228932   3.257   5.192   1.571 -1.3247 -1.7920 -0.8028
 2481TIP3   OH228933   3.518   0.695  10.978  0.4333 -0.2809  0.4581
 2481TIP3    H128934   3.614   0.691  10.981  0.4852  0.6533  0.0691
 2481TIP3    H228935   3.497   0.707  10.885 -0.0182  0.5329  0.6571
 2482TIP3   OH228936   3.405   5.147   1.424 -0.2346  0.1770  0.1877
 2482TIP3    H128937   3.445   5.226   1.389 -0.2840 -0.3444 -1.0862
 2482TIP3    H228938   3.468   5.112   1.486  0.2613  0.6280 -0.0669
 2483TIP3   OH228939   6.483   5.792  11.992 -0.1204 -0.0606  0.4008
 2483TIP3    H128940   6.515   5.833  11.912 -1.9404  0.3859 -0.1289
 2483TIP3    H228941   6.429   5.860  12.034 -1.1651 -1.0771  0.7482
 2484TIP3   OH228942   2.060   4.053  11.772  0.0064 -0.2247 -0.4031
 2484TIP3    H128943   2.028   4.014  11.853  2.4030 -2.5689 -0.5155
 2484TIP3    H228944   2.038   4.146  11.780 -0.9843 -0.6415  2.3223
 2485TIP3   OH228945   6.723   1.155  12.390 -0.5371  0.2290 -0.5597
 2485TIP3    H128946   6.678   1.231  12.426  1.1589  1.4334 -0.9275
 2485TIP3    H228947   6.653   1.098  12.359 -2.0064 -0.0958  3.0716
 2486TIP3   OH228948   4.416   5.879  13.291  0.1562 -0.4372  0.1686
 2486TIP3    H128949   4.484   5.818  13.319  0.2869  0.1735  1.2219
 2486TIP3    H228950   4.357   5.885  13.366  0.8341  1.7034  0.5625
 2487TIP3   OH228951   6.612   3.786  14.425 -0.4386 -0.0632 -0.0144
 2487TIP3    H128952   6.655   3.741  14.352  0.3275 -0.3575  0.6200
 2487TIP3    H228953   6.561   3.718  14.468 -1.5186  0.2741 -0.7337
 2488TIP3   OH228954   6.595   1.148  13.143 -0.2981 -0.1759  0.0149
 2488TIP3    H128955   6.629   1.236  13.159  2.0043 -0.8849 -0.8556
 2488TIP3    H228956   6.627   1.096  13.216 -1.2019 -0.4408  0.2335
 2489TIP3   OH228957   4.415   2.114  15.551 -0.3316 -0.1039  0.4700
 2489TIP3    H128958   4.399   2.020  15.546  0.8802 -0.2621 -0.8366
 2489TIP3    H228959   4.336   2.150  15.592 -0.7237 -1.7027  1.1444
 2490TIP3   OH228960   3.379   4.633  13.782 -0.4404 -0.0587 -0.0526
 2490TIP3    H128961   3.349   4.565  13.722  5.1688 -1.9661 -1.0097
 2490TIP3    H228962   3.373   4.594  13.869 -3.2740  0.6999  0.1631
 2491TIP3   OH228963   5.669   0.758  15.538  0.1874  0.2825 -0.6686
 2491TIP3    H128964   5.648   0.678  15.490  1.5383  0.3636 -1.4128
 2491TIP3    H228965   5.634   0.743  15.626  0.3767 -1.1055 -0.8229
 2492TIP3   OH228966   4.746   3.434  11.244  0.4615  0.5418 -0.0627
 2492TIP3    H128967   4.761   3.350  11.288  0.5801  0.9800  0.7331
 2492TIP3    H228968   4.733   3.410  11.152 -0.8816 -0.4794  0.3755
 2493TIP3   OH228969   3.073   6.256   1.393 -0.3837 -0.7151  0.0764
 2493TIP3    H128970   3.137   6.185   1.382 -0.7982 -1.1634  0.5324
 2493TIP3    H228971   3.002   6.217   1.443 -0.6929 -0.0200  0.1910
 2494TIP3   OH228972   3.833   0.353   5.043  0.0659 -0.4672 -1.1092
 2494TIP3    H128973   3.878   0.290   4.987  0.4992  1.1122 -2.5439
 2494TIP3    H228974   3.779   0.405   4.983  0.8786  1.5445 -0.1324
 2495TIP3   OH228975   0.292   6.363   2.848 -0.0744  0.1342  0.2392
 2495TIP3    H128976   0.370   6.374   2.903 -0.4779  0.4115  0.7506
 2495TIP3    H228977   0.294   6.438   2.789 -0.4967  0.6739  0.9087
 2496TIP3   OH228978   4.425   6.346  13.413 -0.1835 -0.1931  0.1409
 2496TIP3    H128979   4.427   6.304  13.499 -0.9800  1.3388  0.9140
 2496TIP3    H228980   4.464   6.281  13.354 -3.2413 -2.8652  0.9364
 2497TIP3   OH228981   5.348   1.559  11.316 -0.3580  0.2664  0.0233
 2497TIP3    H128982   5.331   1.588  11.405 -0.4859  0.1550  0.0349
 2497TIP3    H228983   5.261   1.547  11.277 -0.3470 -2.5096  0.7874
 2498TIP3   OH228984   4.337   3.880   5.626 -0.3800  0.0484 -0.0997
 2498TIP3    H128985   4.243   3.860   5.627 -1.1431  3.2622  0.0007
 2498TIP3    H228986   4.370   3.840   5.546 -2.0115 -0.4677 -0.5295
 2499TIP3   OH228987   3.451   1.811   3.495 -0.1309  0.0674  0.1682
 2499TIP3    H128988   3.381   1.765   3.450 -1.1214  1.7866 -0.0902
 2499TIP3    H228989   3.477   1.752   3.565 -2.4541 -0.2477  0.8216
 2500TIP3   OH228990   3.612   3.738  11.030  0.0812  0.3252 -0.5108
 2500TIP3    H128991   3.703   3.707  11.023  0.6013  1.2396  1.6471
 2500TIP3    H228992   3.579   3.697  11.109 -0.9664  1.0111 -0.5824
 2501TIP3   OH228993   6.546   5.429  14.643 -0.0721 -0.3504  0.0969
 2501TIP3    H128994   6.566   5.350  14.593  0.7382 -0.7496  1.0389
 2501TIP3    H228995   6.550   5.402  14.734  2.5473  1.2453  0.5259
 2502TIP3   OH228996   2.388   4.331   5.137 -0.3304  0.0952 -0.1834
 2502TIP3    H128997   2.362   4.287   5.218 -0.4722  0.9025  0.2194
 2502TIP3    H228998   2.324   4.401   5.127  1.3223  1.7547  0.5064
 2503TIP3   OH228999   0.736   2.597   4.313 -0.0038  0.0968  0.0626
 2503TIP3    H129000   0.746   2.538   4.388  2.2232 -1.3671 -1.3339
 2503TIP3    H229001   0.825   2.615   4.285 -0.8017  0.2090 -2.5406
 2504TIP3   OH229002   6.288   3.530  11.649  0.6391 -0.3131  0.2730
 2504TIP3    H129003   6.247   3.450  11.682  0.7288 -1.5572 -2.5541
 2504TIP3    H229004   6.381   3.518  11.665  0.6630 -0.8189 -0.2350
 2505TIP3   OH229005   2.671   0.095   0.961  0.0145 -0.6474 -0.7630
 2505TIP3    H129006   2.662   0.071   1.053  1.6091 -1.3334 -0.7722
 2505TIP3    H229007   2.661   0.013   0.914 -1.0430 -0.2598 -1.2277
 2506TIP3   OH229008   1.246   2.954   3.274 -0.0235 -0.1080 -0.5135
 2506TIP3    H129009   1.212   3.035   3.236  1.8248  1.3813  0.9204
 2506TIP3    H229010   1.196   2.943   3.355  1.0721  0.6954  0.2905
 2507TIP3   OH229011   6.173   0.298  11.654  0.2296  0.2843  0.3843
 2507TIP3    H129012   6.195   0.280  11.745 -0.8021 -0.0217  0.5854
 2507TIP3    H229013   6.256   0.292  11.607  0.6045 -0.6196  1.1413
 2508TIP3   OH229014   5.170   0.465   4.210 -0.3366 -0.1009  0.3632
 2508TIP3    H129015   5.253   0.502   4.179 -0.3130  0.2048  0.7916
 2508TIP3    H229016   5.160   0.498   4.299 -1.0785  0.1349  0.2055
 2509TIP3   OH229017   5.925   3.098   0.946 -0.0513 -0.1265  0.6811
 2509TIP3    H129018   5.880   3.182   0.957 -1.6544 -0.9082  0.2684
 2509TIP3    H229019   5.998   3.118   0.888 -0.6130  0.9200  0.3073
 2510TIP3   OH229020   1.420   2.909  13.732 -0.6800  0.2199  0.4839
 2510TIP3    H129021   1.342   2.957  13.705 -0.6166 -1.5312 -3.1335
 2510TIP3    H229022   1.492   2.972  13.725 -1.3257  0.9924  0.8052
 2511TIP3   OH229023   1.379   0.548   3.373 -0.5698  0.1379 -0.5846
 2511TIP3    H129024   1.431   0.616   3.329 -1.9575  1.2173 -0.5911
 2511TIP3    H229025   1.329   0.596   3.438 -1.1335 -0.9845 -0.1895
 2512TIP3   OH229026   2.652   2.724   1.128  0.1881  0.1196  0.9453
 2512TIP3    H129027   2.715   2.653   1.137  0.6525  0.6490  1.9257
 2512TIP3    H229028   2.603   2.724   1.210 -0.7099  0.0828  0.4210
 2513TIP3   OH229029   5.167   1.280  10.452  0.3521 -0.6893  1.1015
 2513TIP3    H129030   5.235   1.309  10.513  2.0667 -1.0424 -0.6070
 2513TIP3    H229031   5.144   1.192  10.482  2.3451 -1.5123  0.3121
 2514TIP3   OH229032   6.789   0.652   3.073 -0.2546  0.1851 -0.3379
 2514TIP3    H129033   6.773   0.561   3.099 -1.9585  0.4437 -0.3882
 2514TIP3    H229034   6.872   0.675   3.114 -1.5849 -0.2418  2.7027
 2515TIP3   OH229035   2.460   1.181  11.347 -0.5403 -0.3620  0.4511
 2515TIP3    H129036   2.372   1.153  11.372 -0.2906 -0.5503  1.1339
 2515TIP3    H229037   2.470   1.268  11.387 -0.5053 -0.2415  0.1790
 2516TIP3   OH229038   0.921   1.461  16.476 -0.1535 -0.4637 -0.4122
 2516TIP3    H129039   0.902   1.530  16.413  1.1485  1.2065  0.9687
 2516TIP3    H229040   0.992   1.411  16.437 -1.6946 -1.6124 -1.8224
 2517TIP3   OH229041   0.188   5.069  16.909  0.1330  0.1493 -0.5210
 2517TIP3    H129042   0.209   5.050  16.818  2.2189  0.4589 -0.1198
 2517TIP3    H229043   0.158   5.160  16.908  1.2516  0.5234 -0.7401
 2518TIP3   OH229044   5.430   1.312   5.480 -0.4263  1.0053  0.5718
 2518TIP3    H129045   5.342   1.279   5.500  0.1781 -0.8454  0.2379
 2518TIP3    H229046   5.489   1.242   5.508  0.9881  2.4264  1.2418
 2519TIP3   OH229047   6.242   3.852   5.012 -0.4124  0.7830 -0.0681
 2519TIP3    H129048   6.204   3.764   5.002  0.0179  0.5113  0.6614
 2519TIP3    H229049   6.166   3.911   5.014 -0.6384  0.5956 -2.1856
 2520TIP3   OH229050   6.752   0.374   3.117  0.1233 -0.2919  0.2301
 2520TIP3    H129051   6.806   0.295   3.130 -1.4547 -1.0340  2.5274
 2520TIP3    H229052   6.679   0.344   3.062  0.5954  0.0825 -0.6182
 2521TIP3   OH229053   5.622   1.602  12.193  0.4106 -0.7726 -0.2155
 2521TIP3    H129054   5.562   1.531  12.170  0.6672 -1.1321  0.2189
 2521TIP3    H229055   5.602   1.622  12.285  0.3204 -0.2629 -0.3444
 2522TIP3   OH229056   2.332   1.267   3.631  0.0410 -0.2789 -0.1960
 2522TIP3    H129057   2.295   1.349   3.664  1.0745  0.1414 -0.0340
 2522TIP3    H229058   2.315   1.204   3.701 -0.4928 -0.1224 -0.1862
 2523TIP3   OH229059   0.444   0.460  10.527  0.5926 -0.0339 -0.1570
 2523TIP3    H129060   0.538   0.461  10.510  0.8579 -1.4544  1.1077
 2523TIP3    H229061   0.406   0.419  10.450  1.3518 -2.4816  0.7411
 2524TIP3   OH229062   5.393   6.140  12.670  0.5420  0.0641 -0.3630
 2524TIP3    H129063   5.309   6.094  12.669  0.2279  0.5755  1.2069
 2524TIP3    H229064   5.382   6.212  12.607  0.4181 -0.8802 -1.4493
 2525TIP3   OH229065   3.893   1.465  14.294  0.1284  0.4525 -0.4364
 2525TIP3    H129066   3.901   1.530  14.223 -2.2595  1.1900 -0.0658
 2525TIP3    H229067   3.803   1.475  14.325  0.2131 -2.0124  0.6584
 2526TIP3   OH229068   4.216   3.692   0.456 -0.0011  0.2939  0.2222
 2526TIP3    H129069   4.282   3.661   0.518  0.3302  1.6736  0.5678
 2526TIP3    H229070   4.198   3.782   0.482 -3.5275 -0.6910  1.3953
 2527TIP3   OH229071   1.427   4.342   1.107 -0.2672 -0.2037 -0.1839
 2527TIP3    H129072   1.508   4.392   1.105 -0.7143  0.5512  0.1763
 2527TIP3    H229073   1.386   4.367   1.190 -0.5313 -1.1094 -0.0385
 2528TIP3   OH229074   3.136   2.060  13.785 -0.1842  0.3123 -0.1439
 2528TIP3    H129075   3.104   2.111  13.859 -0.2226  1.6078 -1.0376
 2528TIP3    H229076   3.230   2.051  13.801 -0.3322 -0.1456  0.4889
 2529TIP3   OH229077   6.158   0.654   2.830  0.1204 -0.2651 -0.0571
 2529TIP3    H129078   6.108   0.651   2.912  0.6979  0.5679  0.3397
 2529TIP3    H229079   6.230   0.715   2.849  0.6883 -0.6496 -0.9456
 2530TIP3   OH229080   4.214   1.318  11.917 -0.1271  0.0188 -0.5660
 2530TIP3    H129081   4.184   1.253  11.981 -2.4627  0.9944 -0.6037
 2530TIP3    H229082   4.221   1.268  11.835  0.0583 -0.6289 -0.1598
 2531TIP3   OH229083   4.627   1.574  14.821  0.0536  0.3906 -0.3208
 2531TIP3    H129084   4.688   1.623  14.876  1.2898 -0.1360 -1.1976
 2531TIP3    H229085   4.545   1.622  14.827  0.2521  0.5107  1.7468
 2532TIP3   OH229086   0.908   5.940  11.164  0.0690  0.1461  0.0566
 2532TIP3    H129087   0.841   5.883  11.201 -1.3186  1.5952 -0.1639
 2532TIP3    H229088   0.984   5.929  11.221 -0.7068 -0.7134  0.9415
 2533TIP3   OH229089   0.043   1.394   4.170  0.6430  0.2998 -0.2843
 2533TIP3    H129090   0.072   1.322   4.114 -0.4593 -1.2774  1.1476
 2533TIP3    H229091  -0.001   1.352   4.244 -0.3418  2.4551  0.4024
 2534TIP3   OH229092   6.266   6.284   0.695  0.2163 -0.3080  0.2387
 2534TIP3    H129093   6.287   6.336   0.772 -1.8746 -0.2687  0.7897
 2534TIP3    H229094   6.195   6.332   0.652  0.9404 -0.6570 -1.3814
 2535TIP3   OH229095   0.195   6.811  14.454 -0.1145 -0.4496  0.2712
 2535TIP3    H129096   0.140   6.889  14.452 -0.3214 -0.5264  1.9474
 2535TIP3    H229097   0.149   6.748  14.399 -0.0805  0.5085 -0.8757
 2536TIP3   OH229098   5.258   2.459  11.536 -0.0164  0.2555 -0.3321
 2536TIP3    H129099   5.245   2.387  11.474  1.1907 -0.2820  0.0414
 2536TIP3    H229100   5.308   2.421  11.608 -0.1225  1.2527  0.2803
 2537TIP3   OH229101   2.683   2.523   2.059  0.3579  0.2236  0.1264
 2537TIP3    H129102   2.650   2.472   1.985  2.1150 -0.6219 -0.1015
 2537TIP3    H229103   2.613   2.518   2.124 -0.1777 -1.1284 -0.5168
 2538TIP3   OH229104   2.624   5.688   3.503 -0.1741 -0.2804 -0.5770
 2538TIP3    H129105   2.634   5.644   3.587  0.8975  1.2205  0.1101
 2538TIP3    H229106   2.530   5.685   3.485 -0.4153 -0.5561  0.7178
 2539TIP3   OH229107   5.762   2.806   0.599 -0.5383 -0.3601 -1.0113
 2539TIP3    H129108   5.740   2.883   0.547  0.2846 -0.6049 -1.7273
 2539TIP3    H229109   5.761   2.838   0.690  2.0285  1.0778 -1.4420
 2540TIP3   OH229110   5.300   0.680   2.136 -0.4060  0.3517  0.7518
 2540TIP3    H129111   5.381   0.726   2.157  0.1150 -0.1246 -0.1359
 2540TIP3    H229112   5.321   0.588   2.151 -0.3517  0.1029 -0.7235
 2541TIP3   OH229113   2.071   3.104  12.448  0.1701 -0.1858  0.8037
 2541TIP3    H129114   2.120   3.050  12.510 -0.0360  0.0813  1.1963
 2541TIP3    H229115   2.138   3.142  12.391  0.2080 -2.4237 -0.7496
 2542TIP3   OH229116   2.029   4.145   3.076  0.4650  0.0487 -0.3549
 2542TIP3    H129117   2.057   4.201   3.004 -1.7942  0.0307 -1.2760
 2542TIP3    H229118   1.933   4.152   3.076  0.3911 -0.6068  2.1104
 2543TIP3   OH229119   4.372   2.946  15.237 -0.4764 -0.0863 -0.4602
 2543TIP3    H129120   4.373   2.863  15.189  1.4866  0.2258 -0.9884
 2543TIP3    H229121   4.394   3.012  15.172  0.1191  0.5884  0.4157
 2544TIP3   OH229122   2.584   5.798  13.485 -0.4638 -0.3911 -0.1430
 2544TIP3    H129123   2.499   5.814  13.445  1.2102  0.2875 -3.6402
 2544TIP3    H229124   2.578   5.838  13.572 -3.1167  1.1705 -0.9956
 2545TIP3   OH229125   1.716   5.163   3.273 -0.3344 -0.0468  0.0804
 2545TIP3    H129126   1.745   5.213   3.349 -0.7366 -1.9191  1.4955
 2545TIP3    H229127   1.637   5.208   3.243  1.2616  2.2366 -0.8777
 2546TIP3   OH229128   5.467   4.164  17.072  0.1299  0.0998 -0.1742
 2546TIP3    H129129   5.407   4.228  17.036  1.3434  1.0823 -0.4951
 2546TIP3    H229130   5.494   4.200  17.157 -1.4889 -1.4398  1.0229
 2547TIP3   OH229131   5.730   3.397   5.343 -0.2179  0.1749  0.2975
 2547TIP3    H129132   5.795   3.422   5.278 -0.2068  0.6634  0.4948
 2547TIP3    H229133   5.718   3.303   5.330 -1.0788  0.4838 -1.1851
 2548TIP3   OH229134   0.632   5.612   3.092 -0.3203 -0.1158  0.4652
 2548TIP3    H129135   0.661   5.563   3.016 -0.4323  0.5334 -0.0052
 2548TIP3    H229136   0.712   5.647   3.130 -0.3917  0.9707 -0.3449
 2549TIP3   OH229137   6.700   3.669  11.621 -0.6222  0.5018  0.0393
 2549TIP3    H129138   6.655   3.748  11.651 -0.2535  1.2520 -1.3481
 2549TIP3    H229139   6.726   3.689  11.531  0.5857 -0.7273  0.1057
 2550TIP3   OH229140   2.386   1.446  11.463 -0.1084 -0.0460 -0.3942
 2550TIP3    H129141   2.384   1.518  11.525  0.4140 -1.1569  0.9176
 2550TIP3    H229142   2.340   1.480  11.386 -1.3195  1.1245  0.8181
 2551TIP3   OH229143   6.162   5.728   4.690  0.5354 -0.5807 -0.5005
 2551TIP3    H129144   6.121   5.678   4.761  1.5217 -0.5996  0.0617
 2551TIP3    H229145   6.153   5.671   4.613 -0.4648 -0.5926 -0.3817
 2552TIP3   OH229146   3.184   5.190  12.885  0.2161  0.8023  0.1638
 2552TIP3    H129147   3.191   5.250  12.959 -1.2038 -0.5120  1.4134
 2552TIP3    H229148   3.090   5.190  12.864  0.0858 -1.5097  0.6595
 2553TIP3   OH229149   6.463   4.041   0.520  0.0657  0.0704 -0.3685
 2553TIP3    H129150   6.429   3.993   0.444 -3.0654  0.5502  0.6680
 2553TIP3    H229151   6.479   3.974   0.586 -0.0567 -0.0051 -0.4158
 2554TIP3   OH229152   5.221   3.054  12.300 -0.4689 -0.1734 -0.0244
 2554TIP3    H129153   5.211   2.961  12.318 -0.0922  0.0450  1.3745
 2554TIP3    H229154   5.157   3.073  12.232  0.7948 -1.8590 -1.7288
 2555TIP3   OH229155   1.742   2.752   3.200 -0.1203  0.1222  0.7116
 2555TIP3    H129156   1.757   2.822   3.137 -1.1125 -0.1824  0.1168
 2555TIP3    H229157   1.749   2.672   3.149 -1.5066 -0.1044  0.8374
 2556TIP3   OH229158   5.544   5.980   0.990 -0.0099  0.4668 -0.1522
 2556TIP3    H129159   5.615   6.012   1.045  0.7364  0.5936 -1.1727
 2556TIP3    H229160   5.470   5.969   1.050  1.0859 -0.3892  1.0694
 2557TIP3   OH229161   0.686   3.739  11.947  0.0658 -0.3539 -0.1676
 2557TIP3    H129162   0.598   3.702  11.938  0.0612  0.0453 -1.8900
 2557TIP3    H229163   0.672   3.827  11.982 -0.3279  0.3202 -2.0187
 2558TIP3   OH229164   3.119   6.275   5.653 -0.0633 -0.0020  0.1506
 2558TIP3    H129165   3.106   6.322   5.571 -0.9425 -0.4967 -0.0015
 2558TIP3    H229166   3.206   6.301   5.683 -1.1593  3.0337  0.9105
 2559TIP3   OH229167   5.566   0.855   2.980 -0.7254  0.3359  0.2638
 2559TIP3    H129168   5.530   0.771   2.952 -3.0028  1.5612 -0.6066
 2559TIP3    H229169   5.547   0.860   3.074 -0.3403 -0.2360  0.3725
 2560TIP3   OH229170   0.665   3.916   6.047  0.1149  0.1715  0.3461
 2560TIP3    H129171   0.602   3.854   6.082  0.0660  0.8915  1.5627
 2560TIP3    H229172   0.689   3.971   6.122  2.9481 -0.7105  0.1471
 2561TIP3   OH229173   4.391   1.734  12.519  0.8167 -0.5668  0.0867
 2561TIP3    H129174   4.359   1.813  12.474  1.4665  0.0004  0.6034
 2561TIP3    H229175   4.376   1.663  12.456  1.0135  0.0967 -0.7234
 2562TIP3   OH229176   5.382   0.714  16.910 -0.3857  0.7923  0.5684
 2562TIP3    H129177   5.427   0.652  16.967 -1.9118  1.6676  2.7987
 2562TIP3    H229178   5.303   0.669  16.882  1.0394 -0.1716 -2.1113
 2563TIP3   OH229179   5.656   5.778  15.003  0.2607 -0.5243  0.5742
 2563TIP3    H129180   5.640   5.867  15.035 -1.4864 -0.0862 -1.4082
 2563TIP3    H229181   5.747   5.779  14.972 -0.2254  1.0607 -0.8828
 2564TIP3   OH229182   2.346   3.603  15.794  0.0639  0.0964  0.4456
 2564TIP3    H129183   2.258   3.613  15.829  0.0389 -1.0476  0.7182
 2564TIP3    H229184   2.356   3.509  15.778  1.3076  0.1835  0.6333
 2565TIP3   OH229185   0.499   1.863  14.388  0.0561  0.9285 -0.2123
 2565TIP3    H129186   0.418   1.815  14.375 -0.6718  1.8376  0.8679
 2565TIP3    H229187   0.472   1.950  14.417  1.3736  1.7523 -1.3346
 2566TIP3   OH229188   1.643   2.126   1.073 -0.6337 -0.6211  0.9149
 2566TIP3    H129189   1.710   2.067   1.038  0.5735  1.1663  0.1740
 2566TIP3    H229190   1.562   2.098   1.029  0.1214 -1.0270 -0.2333
 2567TIP3   OH229191   5.571   2.635  12.415 -0.3976 -0.1399 -0.1905
 2567TIP3    H129192   5.650   2.586  12.391 -0.8690 -0.4735 -1.0856
 2567TIP3    H229193   5.562   2.702  12.348 -1.7044 -1.0545 -0.9636
 2568TIP3   OH229194   2.801   1.263   4.602  0.0716 -0.8273 -0.6525
 2568TIP3    H129195   2.722   1.309   4.630  1.4212  0.8414  0.5024
 2568TIP3    H229196   2.838   1.319   4.533  0.9168 -0.9359 -0.2914
 2569TIP3   OH229197   0.796   2.485  16.781  0.6104  0.0847  0.1711
 2569TIP3    H129198   0.719   2.461  16.832  1.1540 -0.0330  0.9422
 2569TIP3    H229199   0.814   2.576  16.806 -0.1021  0.5843 -1.0552
 2570TIP3   OH229200   6.133   1.252  12.579  0.3819  0.1470 -0.0497
 2570TIP3    H129201   6.075   1.313  12.532  0.2281 -0.2601 -0.3861
 2570TIP3    H229202   6.215   1.255  12.531  0.9526  1.4316  0.9685
 2571TIP3   OH229203   1.081   6.552  15.475 -0.1633  0.3552  0.6676
 2571TIP3    H129204   1.112   6.527  15.388  0.8008  0.4141  0.9909
 2571TIP3    H229205   1.156   6.540  15.532 -0.7495  0.4572  1.4769
 2572TIP3   OH229206   3.834   6.055  14.048 -0.6259  0.2751 -0.5066
 2572TIP3    H129207   3.800   5.986  13.991 -0.4681 -0.5482  0.3857
 2572TIP3    H229208   3.874   6.008  14.122 -0.8225  1.3283  0.2822
 2573TIP3   OH229209   6.746   0.609  15.973  0.0084 -0.1486 -0.2728
 2573TIP3    H129210   6.748   0.516  15.995  1.0476 -0.5323 -1.8445
 2573TIP3    H229211   6.810   0.649  16.031  0.8819 -0.7278 -0.8154
 2574TIP3   OH229212   3.934   4.712  15.563  0.3090 -0.2177 -0.2420
 2574TIP3    H129213   3.883   4.634  15.583  0.1286  0.3089  1.4231
 2574TIP3    H229214   3.870   4.774  15.527  0.0820 -0.1480  0.2774
 2575TIP3   OH229215   3.893   1.137  14.964 -0.0942 -0.1834 -0.8478
 2575TIP3    H129216   3.907   1.222  15.005  0.5868 -0.3242 -0.7779
 2575TIP3    H229217   3.924   1.149  14.874 -0.5333 -0.1945 -1.0000
 2576TIP3   OH229218   3.647   2.649   6.231  0.6388  0.3290 -0.1284
 2576TIP3    H129219   3.601   2.732   6.222  1.4383  0.8454  0.4659
 2576TIP3    H229220   3.715   2.666   6.296  1.9694 -0.3073 -1.3474
 2577TIP3   OH229221   2.734   3.198  14.335  0.0630  0.5457 -0.7367
 2577TIP3    H129222   2.641   3.187  14.312 -0.7146  0.1996  2.2901
 2577TIP3    H229223   2.739   3.284  14.375  0.6140 -0.2944  1.0470
 2578TIP3   OH229224   2.535   0.173  16.858  0.0029  0.1124 -0.0286
 2578TIP3    H129225   2.462   0.224  16.894  1.5029  1.2638  1.4524
 2578TIP3    H229226   2.584   0.143  16.934  1.1432 -0.5603 -1.0016
 2579TIP3   OH229227   4.869   3.585  12.526  0.0378  0.2132 -0.1459
 2579TIP3    H129228   4.915   3.666  12.549  0.5806  0.2873 -1.4121
 2579TIP3    H229229   4.825   3.558  12.606  1.2739  0.8309  0.7524
 2580TIP3   OH229230   0.318   1.439  13.117 -0.0100  0.5047  0.2715
 2580TIP3    H129231   0.395   1.392  13.151  0.3078 -1.0616 -2.5113
 2580TIP3    H229232   0.248   1.374  13.120 -0.1838  0.6247 -1.2476
 2581TIP3   OH229233   5.683   2.918   5.009  0.0971  0.1656 -0.2554
 2581TIP3    H129234   5.620   2.865   5.059  0.5193  0.7614  0.9141
 2581TIP3    H229235   5.768   2.878   5.027  0.2387  0.3066 -0.6058
 2582TIP3   OH229236   6.513   2.213  14.944 -0.5401  0.0526 -0.3736
 2582TIP3    H129237   6.523   2.122  14.918 -2.8020 -0.1206 -0.7333
 2582TIP3    H229238   6.425   2.219  14.980  0.2332  1.7054  1.3880
 2583TIP3   OH229239   4.467   6.763   4.261 -0.3797  0.0568 -0.2160
 2583TIP3    H129240   4.512   6.828   4.314 -2.1277  1.4151 -0.3523
 2583TIP3    H229241   4.523   6.685   4.265  1.8637  1.6460 -0.2847
 2584TIP3   OH229242   1.868   2.708   4.306  0.2502 -0.2966  0.3148
 2584TIP3    H129243   1.845   2.707   4.399  0.1622  1.4561  0.3331
 2584TIP3    H229244   1.951   2.756   4.302  1.4265 -2.2940 -0.2971
 2585TIP3   OH229245   3.363   6.805   3.596  0.4005  0.7286 -0.3397
 2585TIP3    H129246   3.272   6.801   3.625  0.3444 -0.2210 -0.6283
 2585TIP3    H229247   3.375   6.895   3.567 -0.6957  0.6354 -1.1161
 2586TIP3   OH229248   4.188   6.249  14.291  0.5077  0.3312  0.5367
 2586TIP3    H129249   4.231   6.334  14.291  0.7051  0.2374 -0.2040
 2586TIP3    H229250   4.094   6.270  14.292  0.5051  0.6146 -1.6189
 2587TIP3   OH229251   4.734   3.306  10.947 -0.6077 -0.4420 -0.4977
 2587TIP3    H129252   4.772   3.347  10.870 -0.0049  0.9606  0.5291
 2587TIP3    H229253   4.641   3.296  10.926 -0.4593  0.0078 -1.3670
 2588TIP3   OH229254   2.948   5.762   5.547  0.8392 -0.1873 -0.2213
 2588TIP3    H129255   2.954   5.698   5.476  1.5551 -1.7812  1.2360
 2588TIP3    H229256   2.980   5.843   5.509 -0.0384 -0.6953 -2.0976
 2589TIP3   OH229257   1.536   6.769   0.300  0.6792 -0.3841  0.2460
 2589TIP3    H129258   1.553   6.858   0.271  1.6830 -0.5394  0.3381
 2589TIP3    H229259   1.472   6.735   0.237  1.0559  0.0666 -0.3885
 2590TIP3   OH229260   2.320   6.745   5.907 -0.3562 -0.0760 -0.0039
 2590TIP3    H129261   2.339   6.689   5.982 -1.1407  0.7995  0.8504
 2590TIP3    H229262   2.384   6.816   5.913  0.4217 -0.6711 -0.9042
 2591TIP3   OH229263   4.824   1.219  15.498  0.4425 -0.4237  0.0919
 2591TIP3    H129264   4.780   1.275  15.563  0.3474 -0.0605 -0.2790
 2591TIP3    H229265   4.836   1.276  15.422  1.4809 -0.5491  0.1516
 2592TIP3   OH229266   1.637   1.998   5.304  0.8859  0.0816 -0.2371
 2592TIP3    H129267   1.577   2.060   5.345  1.1277  0.2718 -0.1712
 2592TIP3    H229268   1.600   1.912   5.325  1.0553  0.1765  0.4581
 2593TIP3   OH229269   1.209   5.235  14.204 -0.0997  0.3392  0.3882
 2593TIP3    H129270   1.136   5.183  14.172 -0.6521  0.6512  1.1281
 2593TIP3    H229271   1.287   5.184  14.181 -0.5127  0.3112 -0.9581
 2594TIP3   OH229272   5.599   6.031  15.070 -0.3232  0.2903  0.2922
 2594TIP3    H129273   5.613   6.102  15.007 -0.1358  0.6317  0.7192
 2594TIP3    H229274   5.504   6.028  15.082 -0.3553  0.2596  0.0311
 2595TIP3   OH229275   1.120   1.534   5.687 -0.1913  0.2696  0.2968
 2595TIP3    H129276   1.048   1.508   5.628  0.5963  0.6643 -0.8586
 2595TIP3    H229277   1.106   1.627   5.702 -0.4838  0.1356  0.8859
 2596TIP3   OH229278   1.237   6.032  14.439  0.2352  0.5828 -0.3855
 2596TIP3    H129279   1.178   6.069  14.504  2.3614  0.6154  1.6186
 2596TIP3    H229280   1.225   5.937  14.447 -0.0582  0.6137 -0.4703
 2597TIP3   OH229281   1.063   6.495  10.606 -0.6348 -0.7302  0.1220
 2597TIP3    H129282   1.002   6.564  10.581 -0.6205 -0.2388  1.4015
 2597TIP3    H229283   1.106   6.528  10.685  0.3103 -1.6457  0.0017
 2598TIP3   OH229284   2.053   5.821  14.548  0.3826 -0.0160 -0.1436
 2598TIP3    H129285   2.137   5.864  14.536  1.2863 -2.0357 -1.3040
 2598TIP3    H229286   2.016   5.863  14.626  1.5575  2.2644 -0.7827
 2599TIP3   OH229287   3.946   1.480  10.778 -0.0704 -0.2470 -0.4590
 2599TIP3    H129288   3.903   1.470  10.693 -0.3916 -2.6781 -0.0442
 2599TIP3    H229289   3.876   1.465  10.842  0.9221 -2.0169  0.2294
 2600TIP3   OH229290   3.569   5.377  15.844 -0.4278  0.2106  0.4213
 2600TIP3    H129291   3.634   5.313  15.873  0.1820  0.9595  0.7055
 2600TIP3    H229292   3.524   5.333  15.772  0.3958 -0.3141  0.2119
 2601TIP3   OH229293   2.318   6.451  10.899 -0.8196  0.2533 -0.0128
 2601TIP3    H129294   2.330   6.522  10.836  0.7552 -0.4006 -0.4613
 2601TIP3    H229295   2.313   6.372  10.846  3.6764 -0.6912  0.7708
 2602TIP3   OH229296   1.115   0.183  11.334  0.0220 -0.0419 -0.3935
 2602TIP3    H129297   1.044   0.118  11.334  0.2929 -0.3350 -0.6911
 2602TIP3    H229298   1.178   0.150  11.271  0.5829  0.0549  0.1123
 2603TIP3   OH229299   4.723   3.820   6.563  0.3763 -0.4176 -0.1764
 2603TIP3    H129300   4.773   3.760   6.508  0.8641 -0.1457 -0.0307
 2603TIP3    H229301   4.776   3.899   6.567  0.9909 -0.8971  1.7662
 2604TIP3   OH229302   0.182   0.037  15.734  0.0136  0.0525 -0.3183
 2604TIP3    H129303   0.239   0.046  15.658  0.4423  1.0773  0.1305
 2604TIP3    H229304   0.095   0.062  15.701 -0.1111 -1.0560 -0.8746
 2605TIP3   OH229305   4.532   3.894   5.814  0.4144 -0.3711  0.1332
 2605TIP3    H129306   4.461   3.887   5.750  1.7019 -2.1677 -1.1157
 2605TIP3    H229307   4.569   3.981   5.799 -0.3733 -0.1177 -0.4068
 2606TIP3   OH229308   0.625   3.529  15.184  0.1564  0.2607 -0.2569
 2606TIP3    H129309   0.536   3.506  15.160  1.1683 -1.7816 -2.2616
 2606TIP3    H229310   0.667   3.554  15.102  0.9549  3.0769  0.9269
 2607TIP3   OH229311   2.632   2.562  11.697  0.2648 -0.2318  0.0424
 2607TIP3    H129312   2.578   2.483  11.704  0.9485 -0.6949  0.1878
 2607TIP3    H229313   2.709   2.543  11.751  1.3806 -0.2745 -1.5054
 2608TIP3   OH229314   0.966   5.959   0.232 -0.4170 -0.1192 -0.1137
 2608TIP3    H129315   1.032   6.028   0.230 -1.8202  1.3089  1.8749
 2608TIP3    H229316   1.011   5.882   0.198  1.7379  1.2913 -0.5077
 2609TIP3   OH229317   4.479   5.177   4.294  0.2806 -0.1374  0.0094
 2609TIP3    H129318   4.393   5.195   4.333  0.2833 -1.3583  0.5967
 2609TIP3    H229319   4.496   5.085   4.314  1.9761  0.2394  0.3496
 2610TIP3   OH229320   0.727   2.400   6.018 -0.0425 -0.2751  0.0480
 2610TIP3    H129321   0.717   2.459   6.093  0.9706 -1.3288  1.0276
 2610TIP3    H229322   0.759   2.457   5.948 -0.4372  0.6158  0.5753
 2611TIP3   OH229323   5.626   3.286  11.786  0.9364 -0.4717 -0.1427
 2611TIP3    H129324   5.622   3.194  11.814  1.1199 -0.3423  0.2969
 2611TIP3    H229325   5.575   3.287  11.705  0.6476 -0.8977  0.0288
 2612TIP3   OH229326   2.110   5.942   3.852  0.3906  0.1647  0.2748
 2612TIP3    H129327   2.044   5.988   3.800 -0.7861 -2.8836 -1.0242
 2612TIP3    H229328   2.108   5.986   3.937 -2.0479  1.2455 -0.3055
 2613TIP3   OH229329   3.768   0.948   5.969  0.1177 -0.0613  0.0757
 2613TIP3    H129330   3.755   1.022   6.029 -0.5760  0.5201 -0.7822
 2613TIP3    H229331   3.730   0.873   6.015  1.3986 -0.0270  1.2284
 2614TIP3   OH229332   3.384   5.784  16.744  0.0120  0.5468 -0.3422
 2614TIP3    H129333   3.324   5.819  16.679  1.1993 -0.4648 -2.0280
 2614TIP3    H229334   3.464   5.764  16.695  0.7521 -0.7349  1.3192
 2615TIP3   OH229335   4.050   1.793   4.399  0.7675  0.0032  0.7620
 2615TIP3    H129336   4.035   1.776   4.306 -1.7271  0.6590  1.0109
 2615TIP3    H229337   4.145   1.791   4.409  1.0359 -0.7045 -1.6739
 2616TIP3   OH229338   2.976   0.437  15.783 -0.1293 -0.3724  0.0895
 2616TIP3    H129339   3.044   0.413  15.845  0.0553 -0.4270 -0.1323
 2616TIP3    H229340   2.990   0.530  15.766 -0.3303 -0.3008  0.3134
 2617TIP3   OH229341   1.367   2.121  14.113 -0.0581  0.3121  0.5338
 2617TIP3    H129342   1.311   2.166  14.049  0.4729  1.8424  1.1209
 2617TIP3    H229343   1.305   2.071  14.167 -0.6090 -0.1124 -0.4869
 2618TIP3   OH229344   0.445   4.476   0.910 -0.2580  0.6927  0.2110
 2618TIP3    H129345   0.522   4.526   0.884 -0.4884  1.1610  0.4168
 2618TIP3    H229346   0.387   4.479   0.834 -0.2693  0.7346  0.2213
 2619TIP3   OH229347   4.850   5.977   3.933 -0.5505 -0.3140  0.2959
 2619TIP3    H129348   4.804   6.050   3.973  0.5419  0.6282 -0.1451
 2619TIP3    H229349   4.910   5.947   4.001 -0.1275 -0.0096  0.0580
 2620TIP3   OH229350   1.971   0.306   2.393  0.0120  0.4217 -0.2472
 2620TIP3    H129351   1.948   0.250   2.467  1.4949 -0.0750 -0.1421
 2620TIP3    H229352   1.916   0.276   2.322  0.3444 -0.7655 -0.0178
 2621TIP3   OH229353   0.865   2.555  14.659  0.2614 -0.1637 -0.4861
 2621TIP3    H129354   0.913   2.618  14.713  1.5797 -2.3626  1.0124
 2621TIP3    H229355   0.851   2.599  14.576  1.6294  1.8945  0.3504
 2622TIP3   OH229356   5.185   4.442  11.385  0.0518  0.1248  0.3510
 2622TIP3    H129357   5.274   4.431  11.351  0.5392  0.8698  1.3478
 2622TIP3    H229358   5.160   4.531  11.359  0.7924  1.0665  2.6578
 2623TIP3   OH229359   3.041   1.297   0.405 -0.2242  0.4050 -0.1701
 2623TIP3    H129360   3.034   1.210   0.366 -1.2538  0.6748 -0.6317
 2623TIP3    H229361   3.107   1.288   0.473 -0.4042 -0.7661 -0.1386
 2624TIP3   OH229362   3.369   3.391   6.077  0.7275  0.5105 -0.3017
 2624TIP3    H129363   3.333   3.404   5.990  1.9603  0.8645 -0.7789
 2624TIP3    H229364   3.293   3.382   6.134 -0.0891 -1.2465 -1.6341
 2625TIP3   OH229365   3.372   3.764  12.802  0.5737  0.3812 -0.1523
 2625TIP3    H129366   3.426   3.841  12.782  0.3755  0.8278  1.0328
 2625TIP3    H229367   3.282   3.798  12.806  0.4271 -0.0092 -0.1319
 2626TIP3   OH229368   5.596   0.543  15.349 -0.3850 -0.3443  0.2183
 2626TIP3    H129369   5.587   0.609  15.280 -0.4896 -1.4759 -0.8829
 2626TIP3    H229370   5.663   0.483  15.316  0.1185 -0.4718  1.4581
 2627TIP3   OH229371   2.795   2.181   3.167  0.3264 -1.0760  0.3002
 2627TIP3    H129372   2.723   2.197   3.229  0.3863  0.3894 -0.0056
 2627TIP3    H229373   2.753   2.134   3.095 -0.4168  0.1122 -0.0568
 2628TIP3   OH229374   0.901   1.919   0.328  0.0863  0.2699  0.5393
 2628TIP3    H129375   0.859   1.928   0.242 -2.0911 -1.5135  1.3563
 2628TIP3    H229376   0.936   1.830   0.328  0.0719  0.2594  1.4786
 2629TIP3   OH229377   1.748   6.740  13.581  0.0936 -0.2224  0.0542
 2629TIP3    H129378   1.773   6.709  13.667  0.5947  1.6118  0.5800
 2629TIP3    H229379   1.789   6.826  13.572  0.1411 -0.4187 -2.0518
 2630TIP3   OH229380   6.109   3.235  12.180 -0.2937 -0.3463 -0.2089
 2630TIP3    H129381   6.065   3.165  12.131  1.3484 -1.1687 -0.5246
 2630TIP3    H229382   6.197   3.239  12.143 -0.7203  2.7260 -1.0381
 2631TIP3   OH229383   3.312   6.630   0.526  0.9274 -1.1264 -0.2834
 2631TIP3    H129384   3.217   6.633   0.517  1.1049  0.0147 -1.9958
 2631TIP3    H229385   3.342   6.582   0.449  1.8612  0.4147 -0.9056
 2632TIP3   OH229386   6.005   6.315   0.548  0.3124  0.7343  0.0619
 2632TIP3    H129387   5.981   6.406   0.530 -0.1160  1.0310  2.0759
 2632TIP3    H229388   5.923   6.274   0.574  0.3887 -0.4044 -1.3864
 2633TIP3   OH229389   3.985   1.225  13.589  0.1871  0.4080 -0.3931
 2633TIP3    H129390   3.900   1.216  13.631  0.3244 -0.2494 -0.2461
 2633TIP3    H229391   4.022   1.136  13.590  0.7484  0.6339 -0.7119
 2634TIP3   OH229392   2.017   4.315   1.193  0.3287 -0.7055  0.0208
 2634TIP3    H129393   2.091   4.266   1.156  1.3852 -1.2928  2.8020
 2634TIP3    H229394   1.947   4.250   1.200  1.0382 -1.3082  1.6789
 2635TIP3   OH229395   2.771   0.880  15.690  0.1799  0.1389  0.0071
 2635TIP3    H129396   2.853   0.929  15.682 -0.0065  0.4956  0.2775
 2635TIP3    H229397   2.764   0.860  15.783 -1.0331  1.8182  0.2870
 2636TIP3   OH229398   3.691   6.775  16.489 -0.0361  0.1365  0.1344
 2636TIP3    H129399   3.701   6.870  16.486 -1.0394  0.2244 -0.3673
 2636TIP3    H229400   3.778   6.743  16.514  0.0798  1.2347  1.2089
 2637TIP3   OH229401   1.132   0.771  15.788 -0.2976  0.5329  0.0250
 2637TIP3    H129402   1.182   0.724  15.855 -0.7972 -1.4571 -0.9636
 2637TIP3    H229403   1.045   0.781  15.827 -0.8600 -1.4499 -0.6482
 2638TIP3   OH229404   5.266   0.698   0.551 -0.4124 -0.8140 -0.4984
 2638TIP3    H129405   5.270   0.704   0.456 -0.4273  0.4620 -0.4242
 2638TIP3    H229406   5.272   0.788   0.581  1.0953 -1.3012  0.7724
 2639TIP3   OH229407   6.207   6.488  13.712  0.0193 -0.3186  0.0642
 2639TIP3    H129408   6.285   6.533  13.680  0.3257 -2.1228 -1.8449
 2639TIP3    H229409   6.221   6.481  13.807  1.7122  0.2324 -0.1154
 2640TIP3   OH229410   5.321   0.492   1.571 -0.6018  0.0354  0.1318
 2640TIP3    H129411   5.355   0.496   1.660  1.3987 -0.3419 -0.6030
 2640TIP3    H229412   5.396   0.514   1.515 -2.0271  1.1260 -1.4286
 2641TIP3   OH229413   3.450   4.759  14.384 -0.7038  0.1652  0.0272
 2641TIP3    H129414   3.375   4.790  14.435 -0.9020 -0.1162 -0.0907
 2641TIP3    H229415   3.526   4.779  14.438 -0.9017 -0.0022  0.3680
 2642TIP3   OH229416   4.455   5.127   3.820  0.1255  0.3320  0.0295
 2642TIP3    H129417   4.459   5.039   3.783  3.1987  0.7781 -0.8393
 2642TIP3    H229418   4.424   5.182   3.748  1.7696  0.5104 -0.5536
 2643TIP3   OH229419   2.635   1.146   5.216 -0.6113 -0.3946 -0.0385
 2643TIP3    H129420   2.705   1.115   5.274 -0.7327  0.3164  0.5026
 2643TIP3    H229421   2.668   1.229   5.182 -0.7201 -0.6079 -0.6690
 2644TIP3   OH229422   1.301   3.260   4.324  0.7721  0.0642 -1.0126
 2644TIP3    H129423   1.215   3.248   4.284  0.4557 -1.5889  0.0829
 2644TIP3    H229424   1.283   3.306   4.406  0.9998  0.2309 -1.0562
 2645TIP3   OH229425   3.701   3.294   4.397  0.7440 -0.3716  0.1568
 2645TIP3    H129426   3.720   3.388   4.393 -2.1402  0.3590  2.0260
 2645TIP3    H229427   3.692   3.267   4.306 -3.2770  2.3045 -0.3786
 2646TIP3   OH229428   5.292   5.234  13.762  0.5714  0.6736 -0.3376
 2646TIP3    H129429   5.250   5.149  13.754 -0.7313  1.4404 -2.0422
 2646TIP3    H229430   5.359   5.222  13.829 -1.7773 -0.8086  1.8138
 2647TIP3   OH229431   5.220   4.416   0.205 -0.4985 -0.4013 -0.2547
 2647TIP3    H129432   5.175   4.344   0.248  1.1890 -1.9637 -1.0390
 2647TIP3    H229433   5.291   4.439   0.264 -0.2067 -0.2935 -0.6424
 2648TIP3   OH229434   5.935   6.138  17.085  0.0943  0.3662  0.3396
 2648TIP3    H129435   5.958   6.223  17.123  1.3319  0.6536 -1.0025
 2648TIP3    H229436   6.019   6.093  17.075 -0.4411 -0.5716  0.0182
 2649TIP3   OH229437   4.686   0.977  12.322 -0.1144  0.2786 -0.4785
 2649TIP3    H129438   4.590   0.974  12.318 -0.2025 -1.5293  1.6423
 2649TIP3    H229439   4.715   0.921  12.250 -0.7686 -1.7669  0.7875
 2650TIP3   OH229440   0.593   5.397  16.249 -0.1944 -0.0578  0.1341
 2650TIP3    H129441   0.626   5.320  16.294  2.8498  0.2247 -1.4834
 2650TIP3    H229442   0.545   5.363  16.174  1.4328 -0.4265 -0.7692
 2651TIP3   OH229443   4.251   2.802   3.047  0.3055  0.3923 -0.5118
 2651TIP3    H129444   4.225   2.832   2.961 -1.0603 -0.5560 -0.4409
 2651TIP3    H229445   4.191   2.846   3.108 -0.9047 -1.4627 -0.3161
 2652TIP3   OH229446   2.960   4.287  14.491 -0.3733 -0.0611  0.3486
 2652TIP3    H129447   3.055   4.286  14.494 -0.3369  0.5190 -0.6176
 2652TIP3    H229448   2.935   4.198  14.466 -0.0913 -0.2545  0.7587
 2653TIP3   OH229449   4.357   0.422  14.810  0.0347  0.0267 -0.0361
 2653TIP3    H129450   4.353   0.355  14.878 -0.7171  0.6907  0.5885
 2653TIP3    H229451   4.401   0.496  14.851  0.7744 -0.0366 -0.6925
 2654TIP3   OH229452   0.468   5.522  11.529 -0.5477 -0.2487  0.5352
 2654TIP3    H129453   0.486   5.549  11.619  0.6119 -0.9358  0.5185
 2654TIP3    H229454   0.377   5.491  11.531 -1.3953  2.1329  0.8922
 2655TIP3   OH229455   3.043   0.283   4.332 -0.2634 -0.3770 -0.5108
 2655TIP3    H129456   2.980   0.262   4.400  0.8731  0.5237  0.8532
 2655TIP3    H229457   3.056   0.377   4.339  2.7875 -0.8392  0.6373
 2656TIP3   OH229458   5.458   1.870  14.346 -0.4686 -0.5676 -0.1383
 2656TIP3    H129459   5.427   1.950  14.303  1.5826  0.2092 -0.2207
 2656TIP3    H229460   5.497   1.818  14.276  2.7134  0.6154  0.6726
 2657TIP3   OH229461   2.348   2.583   0.220  0.2122 -0.1781 -0.3980
 2657TIP3    H129462   2.372   2.670   0.188  0.8529  0.5046  1.8499
 2657TIP3    H229463   2.428   2.531   0.211  0.2428 -0.1358 -0.3659
 2658TIP3   OH229464   3.623   3.734  17.203  0.6298 -0.0636  0.0103
 2658TIP3    H129465   3.596   3.689  17.123 -0.8597  0.3358  0.2670
 2658TIP3    H229466   3.541   3.749  17.251  1.3893  0.6172  1.1246
 2659TIP3   OH229467   3.090   5.876   3.942  0.0941 -0.5431  0.5344
 2659TIP3    H129468   3.100   5.971   3.940 -0.0444 -0.5381 -2.5721
 2659TIP3    H229469   2.995   5.862   3.944  0.0269 -0.5569 -1.2226
 2660TIP3   OH229470   3.588   5.995  14.943  0.2595 -0.3265  0.6445
 2660TIP3    H129471   3.557   6.044  14.866  1.4717  0.1778  0.4726
 2660TIP3    H229472   3.676   5.966  14.919 -0.0872 -1.8133  1.1067
 2661TIP3   OH229473   0.972   1.035  15.957 -0.4646 -0.1916 -0.3347
 2661TIP3    H129474   1.051   1.035  16.011 -0.0134  0.4736 -0.9792
 2661TIP3    H229475   0.949   0.943  15.948 -1.1081 -0.2665  1.7959
 2662TIP3   OH229476   3.856   4.390   4.293  0.0060 -0.0153 -0.2155
 2662TIP3    H129477   3.878   4.472   4.337  1.4422 -0.3330 -0.3234
 2662TIP3    H229478   3.762   4.380   4.308  0.0148  1.1071  0.7065
 2663TIP3   OH229479   4.290   3.428   2.951  0.0979  0.0363  0.2475
 2663TIP3    H129480   4.218   3.393   3.003 -0.1234  2.2048  1.4554
 2663TIP3    H229481   4.249   3.482   2.885  0.4918 -1.1554 -1.0078
 2664TIP3   OH229482   6.253   0.357   1.395  0.6987  0.2969  0.0190
 2664TIP3    H129483   6.255   0.446   1.361  0.9098  1.0414  1.8772
 2664TIP3    H229484   6.345   0.331   1.401  0.8026  0.9647  1.8952
 2665TIP3   OH229485   3.230   6.243  12.899 -0.4766 -0.3869  0.0890
 2665TIP3    H129486   3.220   6.284  12.985 -0.9246 -0.2520 -0.0292
 2665TIP3    H229487   3.312   6.193  12.906 -0.2704 -0.0068  0.4456
 2666TIP3   OH229488   5.820   4.903   5.475 -0.1834 -0.1187 -0.5013
 2666TIP3    H129489   5.780   4.892   5.561 -0.2375  1.0386 -0.3645
 2666TIP3    H229490   5.810   4.818   5.432  1.4302 -1.2509  1.2841
 2667TIP3   OH229491   1.662   2.261   2.981 -0.1258  0.2732 -0.2254
 2667TIP3    H129492   1.653   2.189   2.920 -1.2445 -0.4762  0.8018
 2667TIP3    H229493   1.585   2.316   2.965 -0.0391  0.4649  0.0022
 2668TIP3   OH229494   5.632   6.003   1.332  0.4264 -0.0567 -0.3219
 2668TIP3    H129495   5.686   6.048   1.397  0.6090 -1.7477  0.7212
 2668TIP3    H229496   5.684   5.927   1.306 -1.2396 -1.4649  0.3504
 2669TIP3   OH229497   6.619   0.313  14.524  0.2312  0.1837  0.4858
 2669TIP3    H129498   6.540   0.317  14.471  1.2283  0.4468 -1.0234
 2669TIP3    H229499   6.680   0.374  14.481  1.5136 -0.5866  1.1739
 2670TIP3   OH229500   4.583   3.731   0.044 -0.2331 -0.9324  0.1680
 2670TIP3    H129501   4.492   3.715   0.068 -0.2170 -0.8825  0.2615
 2670TIP3    H229502   4.600   3.669  -0.027 -0.1173 -1.4777  0.6647
 2671TIP3   OH229503   2.719   3.506   2.458  0.4324  0.0257  0.3772
 2671TIP3    H129504   2.735   3.415   2.434 -0.2392  0.2932 -1.1254
 2671TIP3    H229505   2.801   3.535   2.496  1.2168 -0.7146 -0.7072
 2672TIP3   OH229506   5.153   0.802  13.014  0.4776  0.4454  0.2596
 2672TIP3    H129507   5.129   0.716  12.980  0.0697  0.4501  0.5276
 2672TIP3    H229508   5.121   0.864  12.949  1.2698  0.3714 -0.2098
 2673TIP3   OH229509   5.999   0.530  11.905 -0.9216 -0.1824 -0.2256
 2673TIP3    H129510   6.049   0.448  11.898 -2.4381 -1.3415  1.8672
 2673TIP3    H229511   5.908   0.501  11.914 -1.6829  1.8159 -1.2559
 2674TIP3   OH229512   5.982   5.586  16.808 -0.0110 -0.5365  0.2699
 2674TIP3    H129513   5.964   5.585  16.714 -4.3409 -0.6359  1.0116
 2674TIP3    H229514   6.062   5.535  16.818  0.9291  0.0961 -3.4052
 2675TIP3   OH229515   6.412   4.126  15.658 -0.0204 -0.2209  0.1138
 2675TIP3    H129516   6.472   4.190  15.697 -1.5144  0.4163  1.3988
 2675TIP3    H229517   6.351   4.105  15.728 -0.9943 -1.2532 -1.0336
 2676TIP3   OH229518   1.651   2.840   1.045 -0.4532 -0.3860  0.5019
 2676TIP3    H129519   1.727   2.784   1.062  0.0507 -0.1012 -0.7671
 2676TIP3    H229520   1.624   2.871   1.131  2.6992  1.9168  0.7007
 2677TIP3   OH229521   1.732   6.047  16.864  0.1795  0.0950 -0.8182
 2677TIP3    H129522   1.807   6.030  16.807  0.3477 -1.1502 -0.2353
 2677TIP3    H229523   1.658   6.057  16.804  0.5715 -0.0168 -1.3246
 2678TIP3   OH229524   5.663   4.143   4.199 -0.1756  0.6006 -0.2946
 2678TIP3    H129525   5.715   4.123   4.121 -0.7987 -0.5767 -0.4228
 2678TIP3    H229526   5.573   4.127   4.172 -0.4266  0.5929  0.5455
 2679TIP3   OH229527   4.272   6.105  11.141 -0.6620 -0.1156 -0.4677
 2679TIP3    H129528   4.207   6.036  11.140 -1.2232  0.3990  0.5284
 2679TIP3    H229529   4.234   6.174  11.195  0.8755  0.0189  0.4723
 2680TIP3   OH229530   1.307   1.686  14.573  0.7585  0.0169 -0.1267
 2680TIP3    H129531   1.298   1.730  14.489  0.8624 -0.4185 -0.3652
 2680TIP3    H229532   1.392   1.715  14.607  0.3975  0.7542  0.1605
 2681TIP3   OH229533   5.328   6.623  14.418  0.9702 -0.0097  0.5146
 2681TIP3    H129534   5.253   6.630  14.359  0.3358  2.1822  1.5500
 2681TIP3    H229535   5.314   6.539  14.464 -0.8613  0.3693  0.6958
 2682TIP3   OH229536   6.204   3.522  12.798  0.0409 -0.4970 -0.2241
 2682TIP3    H129537   6.132   3.487  12.747 -1.9259  1.4182  1.1243
 2682TIP3    H229538   6.216   3.611  12.765  0.1649  0.0256  1.1689
 2683TIP3   OH229539   3.754   2.169   0.394 -0.1583 -0.1435 -0.3551
 2683TIP3    H129540   3.742   2.196   0.303  1.4426  1.2050 -0.2037
 2683TIP3    H229541   3.799   2.243   0.435 -2.9821  0.2954  2.1558
 2684TIP3   OH229542   0.101   3.977  13.148  0.0323  0.4480 -0.0701
 2684TIP3    H129543   0.033   3.911  13.141  1.5300 -0.9881 -1.3328
 2684TIP3    H229544   0.181   3.934  13.117  1.6304  1.9592  1.7458
 2685TIP3   OH229545   3.652   1.770   5.288  0.5009 -0.2371  0.1373
 2685TIP3    H129546   3.705   1.731   5.218  2.0029 -0.3986  1.3387
 2685TIP3    H229547   3.566   1.731   5.277  1.0806 -1.3050 -0.7921
 2686TIP3   OH229548   1.145   6.311  13.839  0.2754 -0.4135 -0.0451
 2686TIP3    H129549   1.147   6.388  13.782  1.4635 -1.6354 -1.7444
 2686TIP3    H229550   1.217   6.325  13.900  1.2033 -0.6485 -1.0517
 2687TIP3   OH229551   1.733   6.351  12.890  0.2585  0.5161 -0.1919
 2687TIP3    H129552   1.722   6.277  12.830  3.0308  0.2525 -0.4272
 2687TIP3    H229553   1.680   6.328  12.966 -0.4289 -0.8175 -1.0438
 2688TIP3   OH229554   4.332   1.274   2.508 -0.2445 -0.0486 -0.4797
 2688TIP3    H129555   4.403   1.338   2.516 -0.0588 -0.4078  0.8263
 2688TIP3    H229556   4.278   1.307   2.436  0.3435  1.0914 -0.4063
 2689TIP3   OH229557   0.817   1.423  15.616  0.0696 -0.1325 -0.1438
 2689TIP3    H129558   0.896   1.436  15.565  0.5792  0.0375  0.6839
 2689TIP3    H229559   0.839   1.355  15.679 -0.8018 -0.9086 -0.6571
 2690TIP3   OH229560   5.581   0.009   5.322  0.5411 -0.1367  0.3048
 2690TIP3    H129561   5.568   0.046   5.410 -1.6362 -2.2571  0.9337
 2690TIP3    H229562   5.650  -0.056   5.334 -1.2786 -2.0154  0.9959
 2691TIP3   OH229563   4.079   0.432   5.189  0.0836  0.7861  0.1842
 2691TIP3    H129564   4.074   0.523   5.218  0.5240  0.6075  0.8268
 2691TIP3    H229565   3.992   0.413   5.155 -0.4019  1.0411  1.2691
 2692TIP3   OH229566   4.695   5.337   4.232  0.2616  0.2911 -0.3286
 2692TIP3    H129567   4.693   5.335   4.137  1.1004 -1.0503 -0.3334
 2692TIP3    H229568   4.633   5.270   4.259  0.1047  0.5936  0.0653
 2693TIP3   OH229569   6.537   0.134  14.177 -0.0374 -0.0013  0.0055
 2693TIP3    H129570   6.588   0.061  14.213  0.3498  0.5552  0.6121
 2693TIP3    H229571   6.520   0.110  14.086  1.2197 -0.2517 -0.1709
 2694TIP3   OH229572   5.832   6.034  16.487 -0.5321 -0.0559  0.1244
 2694TIP3    H129573   5.826   6.115  16.438 -1.6277 -0.3311 -0.2065
 2694TIP3    H229574   5.742   6.015  16.514 -0.4244 -1.6103 -0.5564
 2695TIP3   OH229575   5.416   5.531  11.938 -0.2230 -0.0172 -0.4463
 2695TIP3    H129576   5.493   5.517  11.994  0.8248  1.2972 -1.5273
 2695TIP3    H229577   5.422   5.623  11.911 -1.4404 -0.2765 -1.6538
 2696TIP3   OH229578   1.809   4.236  17.017 -0.4721  0.2635  0.5258
 2696TIP3    H129579   1.721   4.197  17.012 -0.1157 -0.5982  0.8926
 2696TIP3    H229580   1.868   4.161  17.017  0.3924  0.8736 -1.9981
 2697TIP3   OH229581   0.164   0.536   5.169 -0.3384  0.2662  0.3120
 2697TIP3    H129582   0.116   0.577   5.241 -1.8741  2.9639 -2.1535
 2697TIP3    H229583   0.227   0.602   5.141  0.4101 -0.8481 -0.6759
 2698TIP3   OH229584   4.022   5.016  12.696  0.2240 -0.0394  0.3902
 2698TIP3    H129585   3.989   4.935  12.736  1.1803  1.1943  3.8751
 2698TIP3    H229586   4.111   5.024  12.729 -0.1893  2.9271  0.9590
 2699TIP3   OH229587   2.802   4.970   0.281  0.2740 -0.4285  0.6856
 2699TIP3    H129588   2.779   5.019   0.202 -0.8244  0.2797  1.4143
 2699TIP3    H229589   2.866   5.026   0.326 -1.4343  0.6709  1.8189
 2700TIP3   OH229590   1.104   0.075   2.320 -0.6201  0.3506 -0.2933
 2700TIP3    H129591   1.147   0.000   2.361  2.0792  0.3815 -2.8736
 2700TIP3    H229592   1.059   0.120   2.391 -0.0233 -2.1931  1.7516
 2701TIP3   OH229593   2.784   2.431  14.810 -0.8045  0.0305  0.2826
 2701TIP3    H129594   2.854   2.366  14.804 -1.4614 -0.6492 -0.0913
 2701TIP3    H229595   2.748   2.421  14.898 -0.0147  0.8273  0.7096
 2702TIP3   OH229596   0.016   4.469   2.375 -0.1018  0.2943  0.0521
 2702TIP3    H129597   0.105   4.432   2.370  0.8924  2.6229 -0.0859
 2702TIP3    H229598  -0.033   4.420   2.309  1.3882 -0.2480 -0.6920
 2703TIP3   OH229599   1.031   2.846  14.122 -0.0841  0.2425  0.0060
 2703TIP3    H129600   0.963   2.904  14.088 -0.5586 -0.4902 -0.3098
 2703TIP3    H229601   1.093   2.837  14.050 -0.1131  0.2051 -0.0154
 2704TIP3   OH229602   6.122   3.999  12.337  0.1618  0.1418 -0.4514
 2704TIP3    H129603   6.115   4.019  12.244 -0.8739 -0.6302 -0.5400
 2704TIP3    H229604   6.211   4.026  12.361 -0.1420  1.9308 -1.2778
 2705TIP3   OH229605   1.753   1.148   5.887  0.1641  0.4422  0.7392
 2705TIP3    H129606   1.768   1.173   5.979  1.2999  0.6941  0.4953
 2705TIP3    H229607   1.811   1.073   5.873  3.0975  2.9206 -0.9208
 2706TIP3   OH229608   4.072   4.302  15.259 -0.0680  0.4527  0.6331
 2706TIP3    H129609   4.097   4.241  15.189  1.2372 -0.8685  2.2095
 2706TIP3    H229610   4.133   4.283  15.330  0.6334  3.9089  1.0274
 2707TIP3   OH229611   6.571   1.797   5.222  0.0193  0.2592  0.1367
 2707TIP3    H129612   6.505   1.867   5.221  0.5796  0.8224  1.2377
 2707TIP3    H229613   6.537   1.733   5.285 -0.6314 -0.5998 -1.0834
 2708TIP3   OH229614   6.562   1.145   0.966  0.1112  0.1628  0.2423
 2708TIP3    H129615   6.657   1.150   0.970 -0.0081  4.2248 -0.1942
 2708TIP3    H229616   6.531   1.195   1.042 -1.6940 -1.5315  0.6787
 2709TIP3   OH229617   5.529   5.918  16.380  0.5306 -0.0389 -0.0808
 2709TIP3    H129618   5.545   5.851  16.446 -0.2124 -1.0100 -0.8697
 2709TIP3    H229619   5.511   5.869  16.300 -1.8494  1.0314 -0.2554
 2710TIP3   OH229620   6.022   1.776   5.429 -0.2964  0.8379 -0.4916
 2710TIP3    H129621   6.042   1.780   5.522  1.4102  0.4138 -0.8254
 2710TIP3    H229622   6.060   1.857   5.393  2.6487 -0.9130 -1.4556
 2711TIP3   OH229623   0.778   1.023   6.073 -0.7411  0.2665 -0.4668
 2711TIP3    H129624   0.785   0.934   6.107 -3.2960 -0.6654 -2.2585
 2711TIP3    H229625   0.779   1.078   6.152 -0.3174 -1.4199  0.7344
 2712TIP3   OH229626   0.947   3.412  14.716 -0.2099  0.0569  0.0873
 2712TIP3    H129627   0.939   3.344  14.782  1.3771 -0.1381  0.0928
 2712TIP3    H229628   0.920   3.371  14.634 -0.5918 -0.1667  0.3254
 2713TIP3   OH229629   3.199   4.268  13.891  0.3178  0.2654 -0.1322
 2713TIP3    H129630   3.176   4.209  13.819 -1.6619 -0.8956  1.3872
 2713TIP3    H229631   3.127   4.332  13.893  1.0079  1.0526  0.0351
 2714TIP3   OH229632   2.353   5.107   0.000 -0.4469 -0.3090  0.8103
 2714TIP3    H129633   2.271   5.097  -0.048  0.6847  2.6879 -1.9521
 2714TIP3    H229634   2.405   5.031  -0.024 -0.2870  0.6434 -2.0032
 2715TIP3   OH229635   2.176   5.096   6.122  0.1818 -0.0364  0.2095
 2715TIP3    H129636   2.120   5.018   6.128 -0.4441  0.2677 -1.3807
 2715TIP3    H229637   2.139   5.146   6.049  1.5524  0.9717  0.1961
 2716TIP3   OH229638   3.505   0.326   2.574  0.2412  0.0657  0.2785
 2716TIP3    H129639   3.454   0.401   2.606  0.1849  0.6152 -1.0525
 2716TIP3    H229640   3.541   0.285   2.653 -0.9024  0.6563  1.1135
 2717TIP3   OH229641   5.353   0.143  12.480 -0.1413  0.0613  0.3996
 2717TIP3    H129642   5.371   0.135  12.574 -0.8639  0.9889  0.6297
 2717TIP3    H229643   5.428   0.193  12.446 -0.2673  0.4182  0.6353
 2718TIP3   OH229644   0.283   0.004  12.974  0.3042 -0.3912  0.1198
 2718TIP3    H129645   0.268   0.017  13.068  0.0267 -0.0806  0.0334
 2718TIP3    H229646   0.297   0.092  12.940 -0.7171 -0.3865 -0.3166
 2719TIP3   OH229647   1.423   3.366  13.741  0.1247  0.0953 -0.4165
 2719TIP3    H129648   1.347   3.330  13.787  1.0218 -1.0023  0.2306
 2719TIP3    H229649   1.394   3.452  13.710 -0.2031  1.3085  3.0596
 2720TIP3   OH229650   0.673   0.874   3.598  0.1923  0.3243  0.2094
 2720TIP3    H129651   0.643   0.804   3.540  2.4586 -0.3643 -0.1807
 2720TIP3    H229652   0.652   0.955   3.551 -0.8747 -0.1392 -0.1209
 2721TIP3   OH229653   3.270   4.508   5.468 -0.0032 -0.3265 -0.1701
 2721TIP3    H129654   3.270   4.474   5.378  0.2944  0.2394 -0.3841
 2721TIP3    H229655   3.202   4.574   5.468  1.6191  1.3932 -0.6380
 2722TIP3   OH229656   1.281   0.701   5.176  0.2588 -0.3999 -0.3868
 2722TIP3    H129657   1.252   0.729   5.089 -0.8007  1.0781  0.4257
 2722TIP3    H229658   1.359   0.647   5.159 -0.2808 -0.6254 -2.2815
 2723TIP3   OH229659   4.141   1.605   5.959 -0.2754 -0.2514  0.2416
 2723TIP3    H129660   4.058   1.621   5.915  0.4913  0.3246 -1.0064
 2723TIP3    H229661   4.156   1.511   5.949 -1.2502 -0.5408  1.3381
 2724TIP3   OH229662   2.098   4.265   2.033 -0.3665 -0.0100  0.0135
 2724TIP3    H129663   2.180   4.297   1.995  0.8910 -1.2042  1.6485
 2724TIP3    H229664   2.051   4.344   2.060 -0.1310  0.7263 -1.6499
 2725TIP3   OH229665   5.981   5.000  10.929  0.1221 -0.0600  0.0937
 2725TIP3    H129666   5.994   5.000  10.834  0.2591 -0.4281  0.1110
 2725TIP3    H229667   5.965   5.092  10.951  0.0671  0.0236 -0.2880
 2726TIP3   OH229668   3.112   5.734  13.816  0.3676  0.2717 -0.6589
 2726TIP3    H129669   3.070   5.796  13.875  1.9723  1.1122 -0.3634
 2726TIP3    H229670   3.127   5.784  13.736  0.0051 -0.2790 -1.0737
 2727TIP3   OH229671   4.025   4.321  16.286 -0.2769 -0.2733  0.2730
 2727TIP3    H129672   4.064   4.294  16.203 -3.3561  0.3843 -1.4995
 2727TIP3    H229673   4.094   4.369  16.331  1.1240  0.3772 -2.4679
 2728TIP3   OH229674   2.497   6.176   2.496 -0.2927  0.6257  0.0228
 2728TIP3    H129675   2.581   6.144   2.528  0.0761  1.1783 -0.3809
 2728TIP3    H229676   2.446   6.193   2.575 -0.0019  0.3581  0.2698
 2729TIP3   OH229677   5.632   1.490  16.050  0.4222 -0.1472  0.0115
 2729TIP3    H129678   5.681   1.475  15.969 -0.3611  0.6343 -0.6199
 2729TIP3    H229679   5.541   1.499  16.022  0.0236 -0.6713  1.0733
 2730TIP3   OH229680   3.979   5.897   6.448  0.2702  0.4460  0.0616
 2730TIP3    H129681   3.919   5.838   6.494 -1.0223  0.8619 -1.0557
 2730TIP3    H229682   4.023   5.842   6.384 -0.1276  0.4719 -0.2333
 2731TIP3   OH229683   3.440   5.860   5.632  0.1675 -0.2118 -0.2888
 2731TIP3    H129684   3.445   5.766   5.614  1.6336 -0.4523  1.2379
 2731TIP3    H229685   3.530   5.884   5.657 -0.6962  1.0907  1.7037
 2732TIP3   OH229686   0.060   6.300  10.782  0.2203 -0.2733 -0.4869
 2732TIP3    H129687   0.139   6.303  10.836  0.7634 -3.0121 -1.0800
 2732TIP3    H229688   0.039   6.392  10.766  2.5642  0.5149  0.7363
 2733TIP3   OH229689   5.752   5.368   3.829 -0.2785 -0.1674 -0.1917
 2733TIP3    H129690   5.728   5.438   3.890  2.7222 -0.4416  1.4070
 2733TIP3    H229691   5.717   5.398   3.745 -0.0057  2.7552  0.6590
 2734TIP3   OH229692   3.563   1.162   2.119  0.2416 -0.0626 -0.0207
 2734TIP3    H129693   3.565   1.253   2.091 -0.0864 -0.4051 -1.2066
 2734TIP3    H229694   3.639   1.122   2.077  2.1302  0.2953  2.8801
 2735TIP3   OH229695   4.497   3.332   2.599  0.0729  1.0658 -0.0818
 2735TIP3    H129696   4.589   3.309   2.609  0.4309  1.2660 -2.6461
 2735TIP3    H229697   4.451   3.269   2.654  1.5931 -0.5311 -0.5891
 2736TIP3   OH229698   1.350   1.914   4.192 -0.2162 -0.4177 -0.0552
 2736TIP3    H129699   1.289   1.841   4.177 -1.0230 -0.4532  3.1815
 2736TIP3    H229700   1.436   1.875   4.180 -0.7071 -1.3839 -0.5083
 2737TIP3   OH229701   6.681   4.417  13.162 -0.1409  0.4885  0.2313
 2737TIP3    H129702   6.658   4.333  13.202  0.3684  0.7984  1.1804
 2737TIP3    H229703   6.602   4.470  13.171  0.2967  0.8870  1.7047
 2738TIP3   OH229704   4.683   0.145   1.278 -0.3570  0.0371  0.5554
 2738TIP3    H129705   4.741   0.096   1.336  1.7458  1.4297 -0.3096
 2738TIP3    H229706   4.696   0.105   1.192  0.9628  1.7266 -0.0527
 2739TIP3   OH229707   4.210   5.019   1.905  0.3411 -0.0508 -0.1986
 2739TIP3    H129708   4.180   4.987   1.819 -0.0278 -2.3963  0.7595
 2739TIP3    H229709   4.287   4.965   1.925 -0.9817 -1.2032  1.9852
 2740TIP3   OH229710   4.120   6.545  14.564 -0.4216  0.3129 -0.8998
 2740TIP3    H129711   4.120   6.482  14.637 -1.1107 -0.1284 -1.2859
 2740TIP3    H229712   4.202   6.526  14.518 -0.9939 -0.8214 -1.4638
 2741TIP3   OH229713   4.479   1.227   0.486 -0.3324 -1.1097 -0.3169
 2741TIP3    H129714   4.387   1.203   0.474 -0.0731 -1.4512 -1.7682
 2741TIP3    H229715   4.528   1.158   0.440  0.6537 -0.9403  0.4456
 2742TIP3   OH229716   3.974   3.815  12.549 -0.0852  0.1938 -0.0783
 2742TIP3    H129717   3.932   3.741  12.592  2.4277 -1.4369 -0.3289
 2742TIP3    H229718   3.921   3.891  12.574 -1.1789 -1.3186  2.3420
 2743TIP3   OH229719   5.616   2.906  13.988 -0.0435 -0.3044 -0.4291
 2743TIP3    H129720   5.623   2.847  14.063  0.0359 -0.7032 -0.7491
 2743TIP3    H229721   5.656   2.987  14.018 -2.0364  0.2973  0.7422
 2744TIP3   OH229722   2.565   1.042   1.481  0.2034 -0.1794 -0.0791
 2744TIP3    H129723   2.475   1.073   1.474 -0.3021 -1.6408 -0.0720
 2744TIP3    H229724   2.608   1.107   1.537 -1.0425  0.0994  0.5704
 2745TIP3   OH229725   3.896   2.838  13.650 -0.3510  0.1841  0.1900
 2745TIP3    H129726   3.975   2.803  13.607  0.2849  0.1195  1.3867
 2745TIP3    H229727   3.925   2.861  13.738 -1.6643  0.2249  0.6224
 2746TIP3   OH229728   0.372   4.038   5.598 -0.2183  0.2521 -0.1759
 2746TIP3    H129729   0.438   3.969   5.597  0.2585  0.7039 -0.2936
 2746TIP3    H229730   0.366   4.066   5.506  0.3208  1.0590  0.0371
 2747TIP3   OH229731   2.768   3.978  12.222 -0.0719 -0.2623 -0.1962
 2747TIP3    H129732   2.825   3.977  12.145  0.4494  0.7987  0.1718
 2747TIP3    H229733   2.824   3.952  12.294 -0.0933  0.6167  0.1380
 2748TIP3   OH229734   3.297   0.635   1.453  0.8395  0.0954 -0.1652
 2748TIP3    H129735   3.390   0.655   1.459  0.8033 -0.0219  0.7677
 2748TIP3    H229736   3.293   0.539   1.457  0.6208  0.1343  0.5599
 2749TIP3   OH229737   0.586   2.207  11.983 -0.5599 -0.1744 -0.5028
 2749TIP3    H129738   0.541   2.129  12.014  0.9490 -0.2795  1.5343
 2749TIP3    H229739   0.600   2.191  11.890 -1.4657 -1.7362 -0.3898
 2750TIP3   OH229740   3.920   0.310   4.523  0.1913 -0.3995  0.7575
 2750TIP3    H129741   3.848   0.318   4.586 -0.5486 -1.1658  0.0303
 2750TIP3    H229742   3.905   0.381   4.461  0.3286 -0.2775  0.8631
 2751TIP3   OH229743   4.877   5.349   3.861 -0.0787  0.9379  0.4328
 2751TIP3    H129744   4.848   5.428   3.908  0.3735  0.2772  1.8551
 2751TIP3    H229745   4.940   5.308   3.920  0.1591 -0.1633 -0.5695
 2752TIP3   OH229746   5.776   3.131  12.715 -0.3929 -0.1926 -0.4761
 2752TIP3    H129747   5.840   3.158  12.781 -1.1766 -0.1155  0.2542
 2752TIP3    H229748   5.742   3.213  12.679  0.5202 -0.2346 -1.4611
 2753TIP3   OH229749   6.393   2.426  16.378 -0.0075 -0.1187 -0.0012
 2753TIP3    H129750   6.473   2.416  16.326 -0.8526 -1.7775 -1.0022
 2753TIP3    H229751   6.332   2.363  16.341 -0.8079 -0.9599  2.6603
 2754TIP3   OH229752   1.037   1.974   4.840 -0.2796 -0.4541 -0.0028
 2754TIP3    H129753   1.063   1.895   4.793  1.4519 -0.2705  0.6263
 2754TIP3    H229754   0.961   2.007   4.792  0.7115 -0.9463 -1.9312
 2755TIP3   OH229755   3.089   3.787  11.855  0.1890  0.1890  0.0578
 2755TIP3    H129756   3.161   3.739  11.814  1.2961  1.0594  0.9303
 2755TIP3    H229757   3.068   3.856  11.793 -0.5971 -0.6766 -0.6584
 2756TIP3   OH229758   2.610   1.057  11.717  0.1305  0.0779 -0.3249
 2756TIP3    H129759   2.541   1.121  11.698 -1.6137 -1.7510 -0.2765
 2756TIP3    H229760   2.632   1.019  11.633  2.4314  1.9458 -0.6148
 2757TIP3   OH229761   1.764   6.145   5.202  0.0436 -0.0619 -0.0151
 2757TIP3    H129762   1.677   6.173   5.228 -0.4170  0.0668 -1.6315
 2757TIP3    H229763   1.753   6.054   5.174  0.8542 -0.7443  1.8091
 2758TIP3   OH229764   3.421   2.941   3.293  0.5716  0.0879 -0.2062
 2758TIP3    H129765   3.501   2.901   3.327  0.2286 -1.5773 -1.2923
 2758TIP3    H229766   3.353   2.914   3.354  0.1918 -1.7677 -1.4011
 2759TIP3   OH229767   3.175   4.290   3.567 -0.4335  0.4557 -0.0934
 2759TIP3    H129768   3.115   4.223   3.534  0.0916 -0.3861  0.6531
 2759TIP3    H229769   3.149   4.303   3.658  1.7659 -1.3360  0.8167
 2760TIP3   OH229770   0.712   0.778  16.980  0.2548  0.4900 -0.1141
 2760TIP3    H129771   0.804   0.793  16.957 -0.0235  2.1790 -0.1941
 2760TIP3    H229772   0.699   0.828  17.061  0.0165 -1.6675  1.1947
 2761TIP3   OH229773   6.421   4.028   4.270  0.2305  0.0666  0.5048
 2761TIP3    H129774   6.339   3.982   4.291 -0.3968  1.0710  0.2665
 2761TIP3    H229775   6.439   4.081   4.347  0.1437  0.5836  0.1694
 2762TIP3   OH229776   4.806   1.369   0.416 -0.6124  0.2387  0.4660
 2762TIP3    H129777   4.781   1.287   0.459 -0.5096 -0.0904 -0.0936
 2762TIP3    H229778   4.808   1.433   0.486 -1.9011  0.0219  0.7225
 2763TIP3   OH229779   6.556   4.449  14.853 -0.2357 -0.4234  0.1042
 2763TIP3    H129780   6.616   4.451  14.779 -1.2959  1.9414 -0.7482
 2763TIP3    H229781   6.478   4.494  14.822 -1.6016 -1.4460  1.9224
 2764TIP3   OH229782   6.792   4.861  16.738  0.2644  0.2567  0.3075
 2764TIP3    H129783   6.827   4.896  16.657  1.1698 -0.7936  0.2275
 2764TIP3    H229784   6.822   4.921  16.806  2.0084 -0.4627  0.2005
 2765TIP3   OH229785   3.793   5.248  12.981 -0.3090  0.6358 -0.1590
 2765TIP3    H129786   3.747   5.173  12.944 -0.8958  0.6097  0.6032
 2765TIP3    H229787   3.832   5.215  13.062  1.2706  0.5924 -0.9104
 2766TIP3   OH229788   4.901   4.846   1.581  0.2248  0.1594  0.9077
 2766TIP3    H129789   4.896   4.939   1.602  1.3759  0.3550  0.3232
 2766TIP3    H229790   4.883   4.842   1.487 -0.1395 -0.2497  0.9896
 2767TIP3   OH229791   2.911   1.552   0.416  0.2355  0.6533 -0.1831
 2767TIP3    H129792   2.988   1.609   0.408  0.5616  0.0696 -1.3230
 2767TIP3    H229793   2.948   1.464   0.419 -0.3952  0.3626 -0.8849
 2768TIP3   OH229794   1.308   2.952   2.399  0.2884 -0.0532  1.2372
 2768TIP3    H129795   1.277   2.884   2.338  1.8903 -0.2385  0.5955
 2768TIP3    H229796   1.357   2.903   2.465 -0.6190  0.2549  2.1592
 2769TIP3   OH229797   0.936   5.297  13.041 -0.7276 -0.0242 -0.4783
 2769TIP3    H129798   0.893   5.340  12.967 -2.0484  0.4677  0.5484
 2769TIP3    H229799   0.985   5.366  13.085  0.3204 -0.3814 -1.0691
 2770TIP3   OH229800   0.490   0.500   2.475 -0.3570 -0.2015  0.5536
 2770TIP3    H129801   0.465   0.535   2.389  0.0759  2.4459  1.4647
 2770TIP3    H229802   0.586   0.494   2.471 -0.3777 -0.6253  0.6673
 2771TIP3   OH229803   2.473   3.182   3.219  0.4506  0.1009  0.6080
 2771TIP3    H129804   2.568   3.168   3.213  0.4770 -0.0173  1.2309
 2771TIP3    H229805   2.451   3.155   3.308 -0.1174  0.4547  0.5737
 2772TIP3   OH229806   3.464   5.227   2.700  0.0537 -0.0495  0.2404
 2772TIP3    H129807   3.413   5.297   2.741  1.8489  0.2637  1.9452
 2772TIP3    H229808   3.397   5.165   2.669 -1.4397  1.1307  1.0107
 2773TIP3   OH229809   6.207   1.322  13.362 -0.1037  0.3375  0.0512
 2773TIP3    H129810   6.270   1.313  13.291  3.0570 -2.6507  2.9917
 2773TIP3    H229811   6.129   1.276  13.331  1.1257 -0.6943 -1.6070
 2774TIP3   OH229812   3.084   0.471   0.209  0.1658  0.6488 -0.2715
 2774TIP3    H129813   3.058   0.395   0.261 -1.4314  1.4249  0.1171
 2774TIP3    H229814   3.007   0.528   0.211  0.5517  1.2783 -2.4057
 2775TIP3   OH229815   4.724   1.741  16.497 -0.4879 -0.1871 -0.4424
 2775TIP3    H129816   4.629   1.753  16.495 -0.3340  1.2588  0.3359
 2775TIP3    H229817   4.758   1.811  16.442  0.1663 -0.2523 -0.1257
 2776TIP3   OH229818   3.857   0.774  12.998 -1.0696  0.1926 -0.1519
 2776TIP3    H129819   3.780   0.730  13.034  0.9862 -1.8857  1.8943
 2776TIP3    H229820   3.884   0.834  13.068 -1.1481  1.3052 -1.0746
 2777TIP3   OH229821   6.792   6.381  16.736 -0.2913  0.0974  0.0140
 2777TIP3    H129822   6.748   6.321  16.676  0.2772 -0.9436  0.6081
 2777TIP3    H229823   6.789   6.466  16.692  0.5673 -0.7359 -1.7289
 2778TIP3   OH229824   6.552   2.971  14.085 -0.3180 -0.0879  0.3736
 2778TIP3    H129825   6.495   2.973  14.008 -0.2885  0.5725  0.3635
 2778TIP3    H229826   6.492   2.969  14.159 -0.3464 -0.7401  0.3388
 2779TIP3   OH229827   3.293   6.139   5.333  0.4495 -0.1549 -0.8105
 2779TIP3    H129828   3.329   6.071   5.390  0.6708  0.8064  0.2139
 2779TIP3    H229829   3.368   6.194   5.311  0.4628 -0.7890 -2.4521
 2780TIP3   OH229830   1.560   3.596   0.869 -0.7142 -0.6620  0.0754
 2780TIP3    H129831   1.495   3.626   0.934 -2.1846  1.9440 -2.4554
 2780TIP3    H229832   1.548   3.502   0.864 -4.0567 -0.2877  0.0296
 2781TIP3   OH229833   0.171   2.559  12.463  0.2409 -0.1511  0.1530
 2781TIP3    H129834   0.263   2.584  12.454  0.1587 -0.6305 -2.4930
 2781TIP3    H229835   0.123   2.641  12.454  0.3557 -0.0358  0.5685
 2782TIP3   OH229836   4.416   4.294  15.646 -0.8692  0.0740  0.1550
 2782TIP3    H129837   4.377   4.310  15.560  0.3087  0.3274 -0.3463
 2782TIP3    H229838   4.446   4.204  15.642 -0.1268  0.3245  0.0228
 2783TIP3   OH229839   1.409   3.500  11.180 -0.2821 -0.3349  0.0090
 2783TIP3    H129840   1.319   3.483  11.208 -0.9636  2.2477 -0.5176
 2783TIP3    H229841   1.401   3.517  11.086  0.7088  0.3004  0.0424
 2784TIP3   OH229842   1.748   6.757   0.561 -0.2347 -0.3263 -0.1384
 2784TIP3    H129843   1.715   6.670   0.540 -0.3877 -0.1884 -0.4698
 2784TIP3    H229844   1.686   6.817   0.519  1.0992 -0.0570 -1.7757
 2785TIP3   OH229845   2.947   5.688   3.041 -0.1344  0.0098  0.0404
 2785TIP3    H129846   2.958   5.656   3.131 -0.4693 -2.5946 -0.8236
 2785TIP3    H229847   3.031   5.671   2.999 -0.1794  0.6632 -0.3180
 2786TIP3   OH229848   1.940   5.169   3.136 -0.6030 -0.2843  0.0480
 2786TIP3    H129849   1.852   5.155   3.171 -0.9214  0.6309 -0.3662
 2786TIP3    H229850   1.956   5.263   3.150  0.0051 -0.3032 -0.5442
 2787TIP3   OH229851   4.516   1.588  17.149  0.0224  0.6120 -0.2682
 2787TIP3    H129852   4.512   1.552  17.238  1.6917  2.3521  0.5413
 2787TIP3    H229853   4.446   1.653  17.146  1.4608  2.2242  0.5649
 2788TIP3   OH229854   6.007   4.286  11.847  0.1350  0.0224 -0.2344
 2788TIP3    H129855   6.072   4.317  11.910 -0.9509 -0.1280  0.9812
 2788TIP3    H229856   6.026   4.334  11.766  2.0137 -0.3318 -0.0252
 2789TIP3   OH229857   4.380   4.465  10.695  0.2173 -0.2081 -0.1613
 2789TIP3    H129858   4.418   4.521  10.762  1.1352 -0.9826 -0.0194
 2789TIP3    H229859   4.392   4.513  10.613 -0.5182  0.5445  0.1597
 2790TIP3   OH229860   4.620   4.545  16.163 -0.2933 -0.1683 -0.0842
 2790TIP3    H129861   4.714   4.525  16.167 -0.6675 -1.8585  0.7440
 2790TIP3    H229862   4.594   4.517  16.075 -0.3446 -1.2216  0.2591
 2791TIP3   OH229863   4.277   4.697   3.997  0.0904  0.3213 -1.0091
 2791TIP3    H129864   4.247   4.749   4.072  0.4000 -1.0914  0.1200
 2791TIP3    H229865   4.210   4.629   3.987  1.3769 -1.0611 -0.3582
 2792TIP3   OH229866   4.366   6.234   0.236  0.2637  0.0220 -0.5898
 2792TIP3    H129867   4.417   6.314   0.250  0.3849 -0.1154 -0.2405
 2792TIP3    H229868   4.392   6.204   0.148  1.6586 -0.6661  0.0307
 2793TIP3   OH229869   4.330   2.759   1.054  0.6941 -0.5005 -0.0563
 2793TIP3    H129870   4.339   2.798   0.967  0.6804 -1.1445 -0.3512
 2793TIP3    H229871   4.410   2.782   1.100  0.2639  0.6907  0.0991
 2794TIP3   OH229872   1.042   4.768  12.499  0.3008 -0.2659  0.0236
 2794TIP3    H129873   1.000   4.788  12.583 -3.4037  0.4419 -1.8985
 2794TIP3    H229874   1.074   4.852  12.467 -0.3221 -0.1716 -0.3422
 2795TIP3   OH229875   0.418   4.917   4.362 -0.5244  0.0353  0.4539
 2795TIP3    H129876   0.484   4.979   4.392 -0.7147  0.5834 -0.2541
 2795TIP3    H229877   0.426   4.843   4.422  1.0468 -0.1152  0.0806
 2796TIP3   OH229878   2.493   6.252  15.325  0.8399  0.4495 -0.2040
 2796TIP3    H129879   2.559   6.197  15.369  2.5899  1.9766 -0.8292
 2796TIP3    H229880   2.517   6.247  15.232 -0.8671 -0.1788 -0.6193
 2797TIP3   OH229881   1.397   4.232   4.858  0.0841  0.2250 -0.4214
 2797TIP3    H129882   1.410   4.208   4.767 -0.5508  1.2564 -0.7927
 2797TIP3    H229883   1.412   4.327   4.861 -3.0072  0.7823 -0.0911
 2798TIP3   OH229884   4.375   5.233   5.231 -0.1588 -0.6328  0.2766
 2798TIP3    H129885   4.384   5.139   5.247 -1.2436 -0.7293  0.3009
 2798TIP3    H229886   4.425   5.274   5.302  1.2602 -1.2049 -0.3772
 2799TIP3   OH229887   0.251   5.800   0.446  0.0789  0.1341  0.2286
 2799TIP3    H129888   0.165   5.841   0.445 -0.4346 -0.9082  0.5821
 2799TIP3    H229889   0.298   5.839   0.372 -0.7394  0.6233 -0.0274
 2800TIP3   OH229890   4.983   2.050   4.941  0.2004 -0.0905 -0.0527
 2800TIP3    H129891   4.980   2.091   5.028  0.4026 -0.3497  0.0781
 2800TIP3    H229892   5.075   2.052   4.917  0.0732  0.4934 -0.5119
 2801TIP3   OH229893   5.854   0.918  11.119 -0.1993 -0.1321  0.4306
 2801TIP3    H129894   5.892   0.831  11.109 -1.5438 -0.7834  0.8515
 2801TIP3    H229895   5.886   0.967  11.043 -1.7240 -1.8581 -1.3945
 2802TIP3   OH229896   2.679   6.645   1.578  0.4668 -0.3190  0.0119
 2802TIP3    H129897   2.647   6.712   1.518  1.0805  0.1122  0.1514
 2802TIP3    H229898   2.773   6.640   1.560  0.9317  0.8562  1.9121
 2803TIP3   OH229899   6.683   5.044  13.024  0.1711 -0.6635 -0.0758
 2803TIP3    H129900   6.651   5.031  12.935 -1.4595 -0.1536  0.4126
 2803TIP3    H229901   6.682   4.956  13.062  2.3912 -1.1276 -1.0293
 2804TIP3   OH229902   6.119   2.327   0.971  0.4739  0.5798  0.2353
 2804TIP3    H129903   6.076   2.334   1.057 -1.2540  0.2629 -0.5979
 2804TIP3    H229904   6.101   2.239   0.941  3.6818 -0.3769  0.8627
 2805TIP3   OH229905   5.205   3.111   5.387  0.3825  0.0825  0.2249
 2805TIP3    H129906   5.274   3.152   5.335 -0.8482  1.1727 -0.5867
 2805TIP3    H229907   5.162   3.050   5.326 -1.7741  2.1643 -0.4250
 2806TIP3   OH229908   5.754   4.856  11.740 -0.3997 -0.2356  0.6916
 2806TIP3    H129909   5.681   4.821  11.791 -0.3160 -0.4082  0.6924
 2806TIP3    H229910   5.739   4.951  11.740 -0.2736 -0.2125  1.2337
 2807TIP3   OH229911   1.981   1.442   4.670  0.3866  0.1131 -0.5397
 2807TIP3    H129912   2.053   1.431   4.608 -1.1775  1.2093 -2.6100
 2807TIP3    H229913   2.005   1.518   4.723  0.1557  1.2937 -2.1114
 2808TIP3   OH229914   6.012   4.009  10.666  0.4346  0.1823  0.1403
 2808TIP3    H129915   5.948   3.939  10.679 -1.4947  1.5479 -1.6492
 2808TIP3    H229916   6.069   3.978  10.596 -0.7551  0.5898 -1.0323
 2809TIP3   OH229917   2.961   3.468  15.237  0.3612  0.2140  0.2017
 2809TIP3    H129918   2.963   3.498  15.328  0.0988 -1.7921  0.9038
 2809TIP3    H229919   2.884   3.411  15.233  0.1585  0.5884 -1.3859
 2810TIP3   OH229920   1.509   3.720   1.301  0.1858  0.3240 -0.4080
 2810TIP3    H129921   1.417   3.745   1.310 -0.5474 -2.9910  1.8453
 2810TIP3    H229922   1.546   3.734   1.388  1.1609 -0.8793 -0.6295
 2811TIP3   OH229923   3.260   6.003  11.451 -0.0848  0.1400 -0.3449
 2811TIP3    H129924   3.211   5.994  11.533  0.0852 -1.1064 -0.3824
 2811TIP3    H229925   3.217   5.943  11.390  2.0440 -1.6530 -0.1154
 2812TIP3   OH229926   0.250   0.756  15.648 -0.4157 -0.2076 -0.0279
 2812TIP3    H129927   0.201   0.823  15.697  0.3811  1.1821 -1.0907
 2812TIP3    H229928   0.300   0.709  15.715  0.1885  1.2578  0.5780
 2813TIP3   OH229929   4.148   1.191  14.144 -0.2758  0.8930 -0.3982
 2813TIP3    H129930   4.244   1.191  14.137 -0.3258 -0.6146 -1.3293
 2813TIP3    H229931   4.121   1.273  14.103  0.6989  2.0807  1.2883
 2814TIP3   OH229932   5.929   2.446   5.084 -0.6472 -0.1650  0.0658
 2814TIP3    H129933   6.020   2.455   5.113 -0.4693 -0.7255 -0.3269
 2814TIP3    H229934   5.913   2.352   5.084 -1.7927 -0.0011  1.8977
 2815TIP3   OH229935   1.186   5.081   5.296  0.3304  0.7323 -0.6109
 2815TIP3    H129936   1.218   5.078   5.206  2.7206  0.6596  0.2230
 2815TIP3    H229937   1.137   5.163   5.301  0.8087  1.0998 -1.7665
 2816TIP3   OH229938   6.796   3.514   1.288 -0.2710 -0.6744 -0.1627
 2816TIP3    H129939   6.770   3.588   1.345 -0.2489 -1.2397  0.5923
 2816TIP3    H229940   6.722   3.503   1.228 -0.5476 -0.4400  0.1330
 2817TIP3   OH229941   6.193   2.209  14.352  0.0873  0.0561  0.0583
 2817TIP3    H129942   6.148   2.125  14.364  0.7112 -0.2598  0.2303
 2817TIP3    H229943   6.262   2.208  14.418  0.6018  0.3581 -0.4753
 2818TIP3   OH229944   4.015   3.576   0.320  0.3095 -0.0431  0.3807
 2818TIP3    H129945   4.086   3.612   0.372 -0.9483  0.6667  1.6523
 2818TIP3    H229946   3.967   3.520   0.381 -0.5140 -0.1152 -0.3244
 2819TIP3   OH229947   6.010   6.662  12.310  0.0866  0.0324  0.0324
 2819TIP3    H129948   6.104   6.647  12.302 -0.1817 -0.7064 -2.4421
 2819TIP3    H229949   6.002   6.751  12.343  1.6720  0.6875 -1.2306
 2820TIP3   OH229950   1.840   5.223  17.143 -0.5391  0.0820 -0.0507
 2820TIP3    H129951   1.746   5.242  17.142 -0.7374 -0.7400  1.2548
 2820TIP3    H229952   1.847   5.140  17.190  0.8071 -0.0887 -0.5342
 2821TIP3   OH229953   0.638   5.611   0.746  0.2021  0.4216  0.3894
 2821TIP3    H129954   0.552   5.653   0.745  0.6958  1.4745  1.2368
 2821TIP3    H229955   0.674   5.630   0.659  0.0629  0.9926  0.4541
 2822TIP3   OH229956   0.402   3.770  15.476 -0.1419  0.4046  0.3656
 2822TIP3    H129957   0.344   3.825  15.423 -1.9054  0.1899  2.0533
 2822TIP3    H229958   0.404   3.686  15.430  1.2486  1.3189 -1.3185
 2823TIP3   OH229959   6.004   2.464  16.609  0.0096 -0.0569 -0.2004
 2823TIP3    H129960   6.087   2.504  16.582 -0.3539  0.4626 -0.5773
 2823TIP3    H229961   5.947   2.474  16.533 -0.0792 -1.3347 -0.3000
 2824TIP3   OH229962   6.132   0.272  13.274 -0.2182  0.1058 -0.3816
 2824TIP3    H129963   6.193   0.340  13.245 -0.7367 -0.1403 -2.1488
 2824TIP3    H229964   6.188   0.204  13.310  0.4585  0.5317 -0.6158
 2825TIP3   OH229965   2.803   5.882   2.327  0.1445 -0.1721 -0.3174
 2825TIP3    H129966   2.804   5.786   2.323  1.9729 -0.1276 -1.4308
 2825TIP3    H229967   2.752   5.909   2.251  0.4401 -0.2340 -0.5364
 2826TIP3   OH229968   5.140   3.228   5.050  0.0883  0.1003 -0.3600
 2826TIP3    H129969   5.090   3.295   5.096  0.5524  0.6788 -0.6972
 2826TIP3    H229970   5.162   3.267   4.965 -0.7612 -0.9602 -1.0771
 2827TIP3   OH229971   6.608   4.772   5.424  0.0272  0.0140 -0.3132
 2827TIP3    H129972   6.682   4.796   5.368  0.3959  0.1292  0.2208
 2827TIP3    H229973   6.546   4.844   5.414 -0.2910 -0.3732 -1.2380
 2828TIP3   OH229974   5.082   3.506   3.535 -0.3905 -0.6503  0.3087
 2828TIP3    H129975   5.132   3.452   3.597  0.7732  0.8517  0.7186
 2828TIP3    H229976   4.999   3.523   3.579  1.7916  3.4748  3.1777
 2829TIP3   OH229977   3.971   6.359   2.349  0.2660 -0.3517 -0.2444
 2829TIP3    H129978   3.907   6.356   2.279  0.8372  2.1425 -0.9067
 2829TIP3    H229979   4.056   6.355   2.305  0.6204 -0.5045  0.4309
 2830TIP3   OH229980   6.804   5.805  16.731 -0.3692  0.6000 -0.5335
 2830TIP3    H129981   6.787   5.787  16.639  0.2672  0.6059 -0.6534
 2830TIP3    H229982   6.768   5.892  16.747 -1.8276 -0.0214 -0.4055
 2831TIP3   OH229983   3.030   6.712   2.768 -0.4777 -0.0996  0.2230
 2831TIP3    H129984   2.945   6.669   2.760 -0.4929 -0.4648  2.2463
 2831TIP3    H229985   3.093   6.640   2.774 -0.2823  0.1602  1.3210
 2832TIP3   OH229986   2.095   5.008  15.847 -0.5776  0.0744  0.1924
 2832TIP3    H129987   2.155   4.940  15.817 -0.4885  0.9487 -1.6663
 2832TIP3    H229988   2.140   5.051  15.920  0.7500  0.2843 -0.7551
 2833TIP3   OH229989   0.963   2.395  17.132  0.3904  0.3613 -0.7578
 2833TIP3    H129990   0.889   2.456  17.140 -0.0123 -0.3402  1.1364
 2833TIP3    H229991   0.932   2.328  17.071 -0.0880  0.7070 -0.9043
 2834TIP3   OH229992   3.576   0.125   5.392 -0.0226  0.1924 -0.0448
 2834TIP3    H129993   3.552   0.190   5.457 -0.1011 -2.2703  2.4472
 2834TIP3    H229994   3.500   0.069   5.384  0.0840  0.2854 -2.0965
 2835TIP3   OH229995   3.911   1.831   4.842 -0.1378  0.1339  0.5100
 2835TIP3    H129996   3.870   1.794   4.763 -0.4494  1.7705 -0.1134
 2835TIP3    H229997   4.003   1.844   4.818  0.4689 -2.2106  1.4422
 2836TIP3   OH229998   2.209   3.621   3.778 -0.2717  0.4875  0.6389
 2836TIP3    H129999   2.294   3.657   3.752  1.1419 -1.4593  2.3748
 2836TIP3    H230000   2.178   3.575   3.701 -0.0334  1.6919 -0.1880
 2837TIP3   OH230001   2.709   3.310   5.612  0.0065 -0.5984 -0.3966
 2837TIP3    H130002   2.655   3.388   5.603  0.1662  0.0300  3.2064
 2837TIP3    H230003   2.792   3.342   5.648  0.0466 -2.3841  1.2198
 2838TIP3   OH230004   6.571   3.093   5.269  0.0892  0.0169  0.0672
 2838TIP3    H130005   6.532   3.180   5.279  0.3421  0.2035 -0.5684
 2838TIP3    H230006   6.594   3.067   5.358 -0.1190  0.5363  0.2772
 2839TIP3   OH230007   4.673   2.530   3.388 -0.0729 -0.3901 -0.4709
 2839TIP3    H130008   4.725   2.608   3.407  1.0575 -1.1584 -0.3484
 2839TIP3    H230009   4.616   2.556   3.316 -0.4596  0.8637  0.2707
 2840TIP3   OH230010   2.722   0.009   2.030 -0.4193 -0.0541  0.3823
 2840TIP3    H130011   2.658   0.080   2.031  0.7889  1.0481  0.8929
 2840TIP3    H230012   2.743  -0.003   1.937  0.5330  1.3286  0.4140
 2841TIP3   OH230013   3.541   4.479  14.614 -0.5686 -0.6101 -0.2526
 2841TIP3    H130014   3.522   4.482  14.707 -2.9363  0.3713 -0.7103
 2841TIP3    H230015   3.518   4.390  14.588  1.2845 -1.2658  0.3124
 2842TIP3   OH230016   3.715   2.688  15.503 -0.4306  0.0420 -0.0065
 2842TIP3    H130017   3.665   2.610  15.529  0.9318 -0.1298  2.2628
 2842TIP3    H230018   3.800   2.655  15.476 -1.0708  0.4520 -2.6809
 2843TIP3   OH230019   0.401   6.315  11.411  0.3624  0.0876 -0.2749
 2843TIP3    H130020   0.464   6.265  11.359 -0.0029 -0.2635 -0.3787
 2843TIP3    H230021   0.345   6.249  11.450 -1.0078  0.4857 -1.5344
 2844TIP3   OH230022   0.541   6.290  11.715 -0.1602 -0.2434  0.1429
 2844TIP3    H130023   0.619   6.249  11.680  1.4280  0.6001  2.5510
 2844TIP3    H230024   0.525   6.365  11.658  3.6293  2.3681  2.3500
 2845TIP3   OH230025   0.963   4.115   1.149 -0.2294  0.4884  0.3869
 2845TIP3    H130026   0.885   4.113   1.094 -0.2560 -0.3072  0.4469
 2845TIP3    H230027   1.031   4.152   1.093 -0.5328  0.7281  0.1800
 2846TIP3   OH230028   1.179   5.096   5.005  0.0982  0.3342  0.2634
 2846TIP3    H130029   1.085   5.106   5.024 -0.2846  1.1413 -1.8969
 2846TIP3    H230030   1.181   5.041   4.927  1.4147  0.9134 -0.1068
 2847TIP3   OH230031   0.242   2.141  17.095 -0.5788 -0.0682 -0.1842
 2847TIP3    H130032   0.159   2.126  17.050 -1.3417  3.7619 -0.2614
 2847TIP3    H230033   0.269   2.055  17.125 -4.6518 -1.4262 -0.0861
 2848TIP3   OH230034   1.278   2.516  16.777 -0.8058 -0.2186 -0.2969
 2848TIP3    H130035   1.361   2.536  16.733 -1.1051  1.4221 -0.1720
 2848TIP3    H230036   1.273   2.581  16.847 -2.8533  0.6290 -1.1860
 2849TIP3   OH230037   6.494   5.107  14.567 -0.9531 -0.0681  0.2878
 2849TIP3    H130038   6.566   5.113  14.504 -0.4858 -1.0630  0.7181
 2849TIP3    H230039   6.476   5.014  14.574 -2.1397  0.1623  0.3520
 2850TIP3   OH230040   1.788   0.289   5.122 -0.4440  0.1007 -0.0524
 2850TIP3    H130041   1.794   0.195   5.139 -1.1641  0.1793  0.6265
 2850TIP3    H230042   1.793   0.330   5.208  0.8564  0.7484 -0.4127
 2851TIP3   OH230043   4.234   3.428  13.890  0.0641 -0.2130  0.3586
 2851TIP3    H130044   4.172   3.358  13.869  0.7234 -1.1670  1.4939
 2851TIP3    H230045   4.243   3.478  13.809 -4.4093  1.7663  0.9185
 2852TIP3   OH230046   0.395   5.347  11.219 -0.4362 -0.5096 -0.2670
 2852TIP3    H130047   0.371   5.357  11.127 -2.5492 -0.0124  0.3292
 2852TIP3    H230048   0.406   5.437  11.250  2.3238 -0.6945 -0.5101
 2853TIP3   OH230049   1.739   5.843   4.257  0.1206  0.6991  0.2197
 2853TIP3    H130050   1.784   5.761   4.239 -2.3918 -0.7353  0.2403
 2853TIP3    H230051   1.795   5.888   4.320  1.9973 -0.5532 -0.5157
 2854TIP3   OH230052   5.090   4.910  16.294 -0.5002 -0.0741  0.1963
 2854TIP3    H130053   5.100   4.947  16.207  0.4411 -1.5185 -0.3345
 2854TIP3    H230054   5.165   4.942  16.343  0.1843 -1.0336 -0.1930
 2855TIP3   OH230055   0.973   1.517  11.913  0.1393  0.1970  0.1820
 2855TIP3    H130056   0.900   1.568  11.949  0.4375  1.1372 -0.5330
 2855TIP3    H230057   0.981   1.442  11.972 -1.0982  0.3355  0.5383
 2856TIP3   OH230058   1.341   6.530   6.050 -0.2147 -0.6977 -0.3389
 2856TIP3    H130059   1.257   6.486   6.059  0.2744 -1.4651  0.6422
 2856TIP3    H230060   1.401   6.478   6.103  0.1921  1.6754  1.6278
 2857TIP3   OH230061   4.768   0.353  16.166 -0.0968 -0.0284  0.2301
 2857TIP3    H130062   4.853   0.311  16.179 -0.3644 -0.4414  0.6329
 2857TIP3    H230063   4.758   0.359  16.071 -0.4423 -1.6368  0.1609
 2858TIP3   OH230064   3.589   6.119   3.278 -0.2912  0.3234 -0.4016
 2858TIP3    H130065   3.673   6.088   3.244 -0.0626 -0.5385  0.8999
 2858TIP3    H230066   3.529   6.046   3.264 -0.9434  1.1089 -1.7486
 2859TIP3   OH230067   4.166   5.209  14.794  0.4117  0.0007  0.2154
 2859TIP3    H130068   4.126   5.218  14.708 -0.0250  0.1314  0.4288
 2859TIP3    H230069   4.234   5.276  14.796 -0.8653  1.3184  0.6910
 2860TIP3   OH230070   6.210   0.326  16.844 -0.5894 -0.2928  0.7252
 2860TIP3    H130071   6.175   0.244  16.809 -0.6997 -0.8045  2.0007
 2860TIP3    H230072   6.305   0.314  16.841 -0.5731  0.0004 -0.1621
 2861TIP3   OH230073   3.425   1.640   1.851 -0.4489 -0.4853  0.5110
 2861TIP3    H130074   3.480   1.564   1.829  1.5388  0.7318  1.1283
 2861TIP3    H230075   3.487   1.713   1.858 -1.4600  0.1077  5.6580
 2862TIP3   OH230076   3.192   4.015   4.173  0.1311  0.3247  0.2868
 2862TIP3    H130077   3.187   3.991   4.081 -0.7334 -0.2963  0.4958
 2862TIP3    H230078   3.180   3.933   4.221 -0.7845  0.8479  0.9773
 2863TIP3   OH230079   1.804   5.158  15.810  0.5423 -0.0418  0.1606
 2863TIP3    H130080   1.849   5.214  15.746  2.1059 -2.2308 -0.7235
 2863TIP3    H230081   1.811   5.070  15.774 -1.9105 -0.8318  1.5042
 2864TIP3   OH230082   2.950   1.032   4.620  0.6746 -0.5909 -0.6175
 2864TIP3    H130083   2.931   0.976   4.544  0.5936 -1.0182 -0.2882
 2864TIP3    H230084   2.911   1.116   4.599 -1.5103 -1.4017 -0.0190
 2865TIP3   OH230085   6.548   0.275   1.413  0.0751  0.2860  0.3367
 2865TIP3    H130086   6.556   0.233   1.327  0.3713 -0.0678  0.5372
 2865TIP3    H230087   6.637   0.273   1.449 -0.3673 -1.0674  1.3718
 2866TIP3   OH230088   1.324   1.141   3.249 -0.2493 -0.2060  0.4079
 2866TIP3    H130089   1.295   1.104   3.333 -1.5159 -0.5840 -0.1806
 2866TIP3    H230090   1.325   1.236   3.264 -0.3869 -0.2746  0.8797
 2867TIP3   OH230091   4.677   6.140  14.283 -0.2728  0.1269  0.1441
 2867TIP3    H130092   4.770   6.125  14.267 -0.7035 -1.8362 -0.7153
 2867TIP3    H230093   4.669   6.235  14.294  1.5184  0.5569 -1.8758
 2868TIP3   OH230094   0.504   3.723  13.107  0.4744 -0.6362  0.2327
 2868TIP3    H130095   0.460   3.681  13.182 -0.6448 -1.3388 -0.7971
 2868TIP3    H230096   0.433   3.764  13.058  1.2780  0.3312 -0.1232
 2869TIP3   OH230097   1.989   6.049  11.254 -0.2161  0.2833 -0.3579
 2869TIP3    H130098   2.025   5.973  11.299 -0.4464  0.2145 -0.2946
 2869TIP3    H230099   2.023   6.124  11.303  0.2498  0.2293 -0.5957
 2870TIP3   OH230100   6.436   0.615   3.024 -0.4969 -0.2148 -0.2507
 2870TIP3    H130101   6.529   0.606   3.003 -0.6878 -0.4866 -0.9834
 2870TIP3    H230102   6.398   0.529   3.007 -1.5028  0.7363 -3.1450
 2871TIP3   OH230103   2.565   4.832  16.149  0.4502  0.3468  0.0712
 2871TIP3    H130104   2.554   4.812  16.242 -0.5516 -3.2588 -0.7514
 2871TIP3    H230105   2.480   4.864  16.120  0.3441  0.0322  0.0412
 2872TIP3   OH230106   4.288   5.739  16.362 -0.0965 -0.4480 -0.2076
 2872TIP3    H130107   4.339   5.816  16.339 -0.3039  0.0339  0.8969
 2872TIP3    H230108   4.258   5.756  16.452 -1.5992 -1.0438 -0.5864
 2873TIP3   OH230109   6.571   5.210  16.822  0.0768  0.4185 -0.2327
 2873TIP3    H130110   6.557   5.181  16.732  1.8403  1.0537 -0.7340
 2873TIP3    H230111   6.639   5.278  16.815  1.9724 -1.1767  1.8067
 2874TIP3   OH230112   3.717   0.419   3.142 -0.3492  0.3938  0.3072
 2874TIP3    H130113   3.623   0.415   3.157 -0.3051  1.7403  1.0164
 2874TIP3    H230114   3.755   0.407   3.229  0.1499 -0.5338 -0.0319
 2875TIP3   OH230115   0.597   3.035   6.482 -0.4402  0.9267  0.7987
 2875TIP3    H130116   0.623   3.115   6.529  1.3831  0.0542  1.3054
 2875TIP3    H230117   0.598   2.967   6.549  0.5445 -0.0103 -0.1575
 2876TIP3   OH230118   0.230   5.034   3.936  0.0232  0.0407  0.3064
 2876TIP3    H130119   0.264   4.947   3.956  0.2391 -0.6624 -2.8760
 2876TIP3    H230120   0.153   5.043   3.993  1.4354 -1.1698  2.4716
 2877TIP3   OH230121   5.861   5.108  11.179 -0.2176 -0.6366  0.4190
 2877TIP3    H130122   5.817   5.024  11.196 -1.0405 -0.3385 -0.2385
 2877TIP3    H230123   5.801   5.156  11.122  0.2382  0.4157  0.8087
 2878TIP3   OH230124   6.696   0.414  13.286  0.0593 -0.0183  0.0780
 2878TIP3    H130125   6.719   0.500  13.323 -0.2363 -1.2443  3.2504
 2878TIP3    H230126   6.610   0.428  13.246  0.2028  1.2858  0.2072
 2879TIP3   OH230127   2.246   5.595  16.589  0.0610 -0.2978  0.2276
 2879TIP3    H130128   2.264   5.638  16.673  1.8865 -0.3966 -0.0890
 2879TIP3    H230129   2.201   5.661  16.537  0.8834  0.5004  0.5130
 2880TIP3   OH230130   2.292   0.956   2.078 -0.1503 -0.0044 -0.4169
 2880TIP3    H130131   2.300   0.882   2.018 -0.8268 -1.3143  1.0615
 2880TIP3    H230132   2.219   0.932   2.136  0.2925  1.3533  0.7330
 2881TIP3   OH230133   5.972   1.649   0.029  0.2388  0.0285  0.1981
 2881TIP3    H130134   5.935   1.729   0.066  1.3031  0.9374 -0.6434
 2881TIP3    H230135   5.916   1.629  -0.046 -1.4271 -1.3540  1.7645
 2882TIP3   OH230136   4.442   5.283   4.660 -0.2932 -0.0846  0.0514
 2882TIP3    H130137   4.485   5.205   4.696  0.9244  0.6245  0.1595
 2882TIP3    H230138   4.489   5.301   4.579 -0.8470  0.2992 -0.1844
 2883TIP3   OH230139   3.237   5.241  12.579  0.4978  0.3694  0.4411
 2883TIP3    H130140   3.216   5.228  12.486 -0.7335  1.0954  0.5952
 2883TIP3    H230141   3.152   5.243  12.622  0.9839  1.4568  1.3849
 2884TIP3   OH230142   4.664   0.414   5.945  0.3232  0.7544  0.7006
 2884TIP3    H130143   4.633   0.333   5.904  2.6860 -1.1343  2.4909
 2884TIP3    H230144   4.585   0.455   5.980 -1.2887  0.7138 -2.6545
 2885TIP3   OH230145   1.128   5.169   4.153  0.0996 -0.8394  0.1405
 2885TIP3    H130146   1.087   5.255   4.146  0.5196 -0.7169 -0.8811
 2885TIP3    H230147   1.078   5.115   4.091  0.1598 -1.2093  0.4146
 2886TIP3   OH230148   3.789   4.647   0.959 -0.1301 -0.5732 -0.4149
 2886TIP3    H130149   3.876   4.680   0.936  0.2231 -1.0833  0.1743
 2886TIP3    H230150   3.801   4.553   0.969 -0.3776 -0.4335  1.3444
 2887TIP3   OH230151   6.115   1.685   0.741  0.0047 -0.0184  1.4775
 2887TIP3    H130152   6.195   1.725   0.708 -0.4349 -0.9880 -0.9121
 2887TIP3    H230153   6.145   1.610   0.792  0.6542  0.3385  1.6263
 2888TIP3   OH230154   2.632   1.428   3.400 -0.4722 -0.3441  0.0653
 2888TIP3    H130155   2.583   1.454   3.323 -1.6996 -1.4519  0.4590
 2888TIP3    H230156   2.646   1.509   3.449 -0.8899  0.1437 -0.6350
 2889TIP3   OH230157   0.763   5.347  17.240 -0.0818  0.1660  0.3551
 2889TIP3    H130158   0.771   5.366  17.334  0.7235 -0.2944  0.3786
 2889TIP3    H230159   0.799   5.259  17.230 -2.8090 -0.9773  0.0581
 2890TIP3   OH230160   1.643   4.152   2.614  0.0276 -0.5336  0.2296
 2890TIP3    H130161   1.670   4.157   2.523  0.2656 -0.6753  0.2926
 2890TIP3    H230162   1.672   4.066   2.643 -0.4410 -0.6684  0.3124
 2891TIP3   OH230163   5.018   1.038  15.478  0.2675  0.1303 -0.0037
 2891TIP3    H130164   5.065   1.047  15.395 -0.2101  0.3570 -0.2493
 2891TIP3    H230165   4.950   1.106  15.475  0.1279  0.0119  0.4862
 2892TIP3   OH230166   3.265   6.725   1.596 -0.3803  0.0179  0.4590
 2892TIP3    H130167   3.351   6.754   1.627  0.0162 -0.5779 -0.0824
 2892TIP3    H230168   3.283   6.650   1.540 -1.3656 -0.9832  1.4615
 2893TIP3   OH230169   4.981   3.382   6.342 -0.3773  0.1308 -1.2386
 2893TIP3    H130170   5.050   3.341   6.291 -1.4362 -2.3074 -0.7752
 2893TIP3    H230171   4.907   3.388   6.282 -1.6673 -2.8659 -0.0344
 2894TIP3   OH230172   1.019   0.910   5.934  0.4138  0.7860  0.1061
 2894TIP3    H130173   0.990   0.822   5.909  1.9931  0.5517 -0.9831
 2894TIP3    H230174   0.972   0.929   6.015 -1.1556 -0.4152 -0.4969
 2895TIP3   OH230175   4.743   1.146   0.059  0.0894 -0.2532  0.0813
 2895TIP3    H130176   4.684   1.136  -0.015 -0.7433  3.1779  0.1931
 2895TIP3    H230177   4.811   1.205   0.028  0.2469  0.4719  1.7467
 2896TIP3   OH230178   0.457   0.730   4.760  0.4552 -0.5305 -0.4392
 2896TIP3    H130179   0.451   0.635   4.751  1.3796 -0.7192  0.8883
 2896TIP3    H230180   0.445   0.747   4.853  1.6809  0.5415 -0.4607
 2897TIP3   OH230181   2.492   0.110  14.300 -0.3366  0.2843 -0.2479
 2897TIP3    H130182   2.472   0.067  14.217  2.2644 -0.3562 -0.5895
 2897TIP3    H230183   2.490   0.039  14.365 -0.4655  0.4386 -0.0816
 2898TIP3   OH230184   0.399   4.030   5.277  0.1957 -0.7207 -0.1955
 2898TIP3    H130185   0.494   4.031   5.270  0.1314  0.4913 -0.9565
 2898TIP3    H230186   0.377   3.938   5.292  1.4892 -0.9812  0.1712
 2899TIP3   OH230187   3.048   6.152  14.107  0.7548  0.5748  0.2876
 2899TIP3    H130188   3.075   6.207  14.180  0.2018 -0.0790  1.0073
 2899TIP3    H230189   2.953   6.140  14.121  0.5684  0.8207 -0.7873
 2900TIP3   OH230190   1.150   2.767  15.832  0.6318  0.0061 -0.4888
 2900TIP3    H130191   1.239   2.800  15.823  1.0540 -0.9400  0.0870
 2900TIP3    H230192   1.106   2.791  15.751  0.4958  3.2530  0.4948
 2901TIP3   OH230193   1.149   5.698   2.626 -0.1257 -0.1861 -0.2380
 2901TIP3    H130194   1.063   5.663   2.600  0.8892 -2.6732 -0.3916
 2901TIP3    H230195   1.189   5.727   2.544 -0.1062 -0.7186 -0.4227
 2902TIP3   OH230196   3.757   2.878  15.734 -0.3814  0.1334 -0.2308
 2902TIP3    H130197   3.779   2.833  15.653  2.8271  2.0849 -0.5104
 2902TIP3    H230198   3.726   2.964  15.706 -1.4610 -0.0056  0.5218
 2903TIP3   OH230199   6.412   3.573  16.352 -0.7275 -0.4800 -0.1255
 2903TIP3    H130200   6.317   3.587  16.355 -0.6618 -0.1863  0.7883
 2903TIP3    H230201   6.439   3.568  16.444  0.1311 -0.6694 -0.3767
 2904TIP3   OH230202   0.789   3.866  11.661  0.1477  0.8410 -0.2674
 2904TIP3    H130203   0.858   3.909  11.711  0.3131 -1.4842  1.5530
 2904TIP3    H230204   0.812   3.773  11.663 -2.8579  0.0607  0.0780
 2905TIP3   OH230205   2.699   0.091  13.233  0.3374  0.0952  0.7227
 2905TIP3    H130206   2.745   0.007  13.234 -0.7560 -0.5468 -0.6481
 2905TIP3    H230207   2.678   0.105  13.141  1.3563  2.3640  0.8055
 2906TIP3   OH230208   3.990   0.591   4.695 -0.2003  0.1277  0.1351
 2906TIP3    H130209   4.053   0.554   4.633  0.8325 -2.6326  2.6856
 2906TIP3    H230210   3.929   0.519   4.712 -1.4304  1.3715  1.0704
 2907TIP3   OH230211   5.875   2.056   1.640  0.5279 -0.5735 -0.2998
 2907TIP3    H130212   5.782   2.068   1.661  1.0337  1.6079  0.8819
 2907TIP3    H230213   5.881   2.079   1.547  0.1799  1.0934  0.0780
 2908TIP3   OH230214   0.317   1.564   5.765 -0.3346  0.3904 -0.0663
 2908TIP3    H130215   0.347   1.473   5.766 -1.4288  0.0142  1.2952
 2908TIP3    H230216   0.329   1.593   5.675  1.7535 -0.5151 -0.1083
 2909TIP3   OH230217   2.017   5.767  13.274 -0.1230  0.0595  0.5243
 2909TIP3    H130218   2.059   5.686  13.244 -1.3999 -0.5704  0.3960
 2909TIP3    H230219   2.071   5.837  13.237  0.2787 -0.7298 -0.4085
 2910TIP3   OH230220   3.239   1.322   4.190 -0.1722 -1.1807 -0.0713
 2910TIP3    H130221   3.329   1.290   4.197 -0.5405 -2.4407 -0.8720
 2910TIP3    H230222   3.197   1.261   4.129 -0.7275  1.2343 -2.1957
 2911TIP3   OH230223   3.520   3.080  11.945  0.3390 -0.1865  0.2993
 2911TIP3    H130224   3.480   2.994  11.957  0.8995 -0.5501 -0.3698
 2911TIP3    H230225   3.599   3.078  12.000  2.1711 -1.3550 -2.2519
 2912TIP3   OH230226   5.835   5.122  14.034  0.3991 -0.4944 -0.5391
 2912TIP3    H130227   5.875   5.056  14.090 -1.0306  1.1784  2.5852
 2912TIP3    H230228   5.741   5.102  14.037  0.3658 -0.7393 -2.8423
 2913TIP3   OH230229   5.003   4.038   2.188 -0.4027 -0.3232  0.1931
 2913TIP3    H130230   4.971   4.115   2.235 -2.0094 -1.0421  0.3277
 2913TIP3    H230231   5.073   4.071   2.132  0.1983  0.9047  1.6213
 2914TIP3   OH230232   4.231   2.138  17.089  0.6439  0.0729 -0.5344
 2914TIP3    H130233   4.306   2.123  17.030 -0.0481  1.4497 -1.8159
 2914TIP3    H230234   4.270   2.178  17.167  1.2798  0.6201 -1.1189
 2915TIP3   OH230235   3.739   2.989   1.692 -0.0592 -0.3245  0.3834
 2915TIP3    H130236   3.827   3.024   1.680  0.4651 -1.6336  0.3291
 2915TIP3    H230237   3.753   2.900   1.725 -1.3525 -0.7131 -0.0933
 2916TIP3   OH230238   5.202   5.550   3.106  0.0966 -0.6563 -0.4452
 2916TIP3    H130239   5.139   5.621   3.103 -0.0779 -0.6460  2.0630
 2916TIP3    H230240   5.154   5.474   3.073 -0.4261 -0.1045 -0.9621
 2917TIP3   OH230241   1.115   2.553  12.096 -0.1460  0.0225 -0.0306
 2917TIP3    H130242   1.078   2.469  12.120  1.2944 -1.6093 -3.1271
 2917TIP3    H230243   1.210   2.542  12.108  0.0308  1.3096 -0.1393
 2918TIP3   OH230244   5.336   2.065   3.385 -0.3254 -0.4511  0.2967
 2918TIP3    H130245   5.311   2.102   3.300  0.3015 -1.7108 -0.4541
 2918TIP3    H230246   5.257   2.073   3.439 -0.1717  2.0819  0.2267
 2919TIP3   OH230247   0.989   4.621  13.945  0.7314  0.3490  0.3898
 2919TIP3    H130248   0.973   4.668  14.027 -0.7619 -1.5451  1.2226
 2919TIP3    H230249   0.951   4.678  13.878  0.2339  1.0120  1.2109
 2920TIP3   OH230250   4.720   1.058  11.812 -1.3448 -0.4371  0.6649
 2920TIP3    H130251   4.724   0.966  11.841  0.9528 -0.8292 -0.7728
 2920TIP3    H230252   4.650   1.059  11.746 -0.1270 -1.5815 -0.6824
 2921TIP3   OH230253   3.937   2.111  16.150 -0.5282  0.0597 -0.7164
 2921TIP3    H130254   3.989   2.190  16.167 -0.4345 -0.0192 -0.6386
 2921TIP3    H230255   3.847   2.143  16.142 -0.4093  0.2653 -1.3237
 2922TIP3   OH230256   0.294   3.167  11.434  0.1512  0.6170 -1.1200
 2922TIP3    H130257   0.354   3.241  11.433 -0.3300  1.0132 -1.0966
 2922TIP3    H230258   0.207   3.207  11.433 -0.1123  0.0437 -1.7877
 2923TIP3   OH230259   6.584   2.960  11.475  0.0078  0.4442  0.1380
 2923TIP3    H130260   6.649   2.918  11.531 -0.6460 -0.7368  0.0208
 2923TIP3    H230261   6.633   2.985  11.396 -0.1057 -2.2843 -0.8222
 2924TIP3   OH230262   1.716   1.401  12.334 -0.1027  0.0325  1.0724
 2924TIP3    H130263   1.720   1.489  12.296 -0.1280 -0.0651  0.8405
 2924TIP3    H230264   1.627   1.394  12.369 -1.4362 -1.2869 -2.3325
 2925TIP3   OH230265   5.720   1.025   0.943  0.0788  0.4783  0.4023
 2925TIP3    H130266   5.778   0.996   1.013  2.5474 -0.2315 -1.8531
 2925TIP3    H230267   5.661   0.951   0.929  0.9858 -0.2393  0.2886
 2926TIP3   OH230268   5.713   4.146  13.688  0.3269  0.5527 -0.2890
 2926TIP3    H130269   5.688   4.153  13.780 -0.0537 -0.9117 -0.2703
 2926TIP3    H230270   5.630   4.146  13.640  0.5204  1.2303 -0.6378
 2927TIP3   OH230271   5.991   4.342  16.238  0.0639 -0.2156 -0.0830
 2927TIP3    H130272   5.992   4.384  16.324  1.3358  1.8925 -1.0810
 2927TIP3    H230273   5.938   4.263  16.250 -1.6615  1.2163  2.0598
 2928TIP3   OH230274   2.535   1.977  11.513 -0.6258 -0.2321 -0.3470
 2928TIP3    H130275   2.559   1.924  11.589  1.6527  1.2330 -0.0030
 2928TIP3    H230276   2.510   1.913  11.446 -2.2275 -1.5540  1.4477
 2929TIP3   OH230277   4.972   2.653   3.901 -0.2166 -0.2898  0.2897
 2929TIP3    H130278   4.922   2.735   3.906  1.3842  0.8085 -1.0195
 2929TIP3    H230279   5.045   2.667   3.962  0.3820 -0.5134 -0.3729
 2930TIP3   OH230280   0.635   5.044  15.382 -0.2866  0.8020 -0.8082
 2930TIP3    H130281   0.649   5.124  15.434 -0.4298 -0.2000  0.8126
 2930TIP3    H230282   0.583   4.987  15.439  0.1268 -0.5979 -1.8020
 2931TIP3   OH230283   6.149   1.204  14.035  0.6524 -0.1610 -0.1892
 2931TIP3    H130284   6.054   1.197  14.032  0.6393  0.1800 -0.7209
 2931TIP3    H230285   6.172   1.248  13.953  1.2503 -0.0611  0.0310
 2932TIP3   OH230286   4.803   2.267  14.881 -0.2624 -0.5268 -0.4176
 2932TIP3    H130287   4.853   2.288  14.802  0.8119 -0.8024  0.1884
 2932TIP3    H230288   4.859   2.294  14.954 -2.1741  1.8137  0.2440
 2933TIP3   OH230289   2.618   6.224   5.203  0.1078  0.2263 -0.2587
 2933TIP3    H130290   2.601   6.192   5.292  1.9534  2.7955  1.0706
 2933TIP3    H230291   2.558   6.297   5.192 -0.1684 -0.1368 -1.1602
 2934TIP3   OH230292   4.030   6.723   4.879 -0.1238 -0.5801 -0.4369
 2934TIP3    H130293   4.048   6.730   4.785  1.3706 -0.0355 -0.1361
 2934TIP3    H230294   4.116   6.731   4.920 -0.7650 -0.7954  0.9885
 2935TIP3   OH230295   4.283   5.732  17.236  0.4419  0.1616 -0.0829
 2935TIP3    H130296   4.228   5.808  17.255 -0.4319 -0.1059 -1.5420
 2935TIP3    H230297   4.367   5.770  17.208  0.1308  0.5735 -0.4551
 2936TIP3   OH230298   3.384   2.277  13.983 -0.3252  0.5031 -0.4802
 2936TIP3    H130299   3.475   2.306  13.998 -0.4376  0.2140  0.7745
 2936TIP3    H230300   3.393   2.191  13.942 -0.0293  1.0814 -1.6863
 2937TIP3   OH230301   4.089   3.243   4.604 -0.3592 -0.3505 -0.4850
 2937TIP3    H130302   4.153   3.231   4.533 -0.0147  1.6548 -0.5676
 2937TIP3    H230303   4.070   3.337   4.602 -0.8054 -0.3721  1.7038
 2938TIP3   OH230304   1.776   6.491  15.230 -0.1547 -0.6282  0.3436
 2938TIP3    H130305   1.710   6.520  15.167 -1.5657 -1.0811  1.5894
 2938TIP3    H230306   1.788   6.398  15.212 -0.1510 -0.6359  0.3852
 2939TIP3   OH230307   0.476   2.497   0.061  0.0536  0.0868 -0.8379
 2939TIP3    H130308   0.496   2.427  -0.002 -2.7248  0.0702 -1.7511
 2939TIP3    H230309   0.423   2.559   0.012  0.9772  1.9533  0.4824
 2940TIP3   OH230310   0.737   3.341  16.999  0.2197  0.0076 -0.6549
 2940TIP3    H130311   0.682   3.311  17.071  0.5332 -0.3942 -0.5796
 2940TIP3    H230312   0.731   3.436  17.002  1.3139  0.0420  0.7554
 2941TIP3   OH230313   5.397   3.240  14.039 -0.3487  0.2859  0.4125
 2941TIP3    H130314   5.339   3.165  14.028 -1.9465  1.6651 -0.9349
 2941TIP3    H230315   5.357   3.291  14.109 -0.1905  0.7014  0.2051
 2942TIP3   OH230316   2.050   2.252   5.623  0.5082 -0.3590 -0.4789
 2942TIP3    H130317   2.119   2.188   5.604  1.6794  0.4627  0.8585
 2942TIP3    H230318   2.024   2.233   5.713 -0.3759 -0.0673 -0.6680
 2943TIP3   OH230319   1.746   2.188  13.532  0.2126 -0.6739 -0.4846
 2943TIP3    H130320   1.835   2.221  13.546  1.0027 -2.2174 -1.7555
 2943TIP3    H230321   1.724   2.218  13.444 -0.5164 -0.3522 -0.1946
 2944TIP3   OH230322   5.812   4.705  13.014  0.2901  0.2284  0.2995
 2944TIP3    H130323   5.752   4.695  12.940  0.7827 -0.6293  0.0129
 2944TIP3    H230324   5.771   4.656  13.084  0.8535 -0.6933 -0.0143
 2945TIP3   OH230325   3.634   5.231   4.072  0.0048  0.5378  0.6235
 2945TIP3    H130326   3.587   5.270   4.146 -0.8430 -0.9133  0.8626
 2945TIP3    H230327   3.710   5.189   4.112 -0.4329 -0.2128  0.6771
 2946TIP3   OH230328   6.384   1.266  11.682 -1.2010  0.0861 -0.0524
 2946TIP3    H130329   6.311   1.218  11.644 -0.3426 -0.2734 -1.2764
 2946TIP3    H230330   6.462   1.224  11.646 -0.3919  0.7895  0.8353
 2947TIP3   OH230331   2.091   6.272  11.403  0.1084 -0.3174  0.2705
 2947TIP3    H130332   2.114   6.359  11.370  2.3029 -0.6458  0.8187
 2947TIP3    H230333   2.116   6.274  11.495  1.4069 -1.9376 -0.0276
 2948TIP3   OH230334   1.447   4.483  14.011  0.9559  0.0086 -0.4721
 2948TIP3    H130335   1.489   4.446  13.933  0.3635 -1.4769 -0.1148
 2948TIP3    H230336   1.365   4.434  14.019 -0.3633  2.1182 -0.5558
 2949TIP3   OH230337   5.234   1.153  12.156 -0.4854  0.3519  0.0740
 2949TIP3    H130338   5.206   1.243  12.138  1.0520  0.9427  0.5561
 2949TIP3    H230339   5.226   1.108  12.072 -2.4887  0.5929  0.1081
 2950TIP3   OH230340   1.037   0.252  15.304  0.4255 -0.4435 -0.2737
 2950TIP3    H130341   0.990   0.208  15.374 -0.9564 -1.7480 -1.9963
 2950TIP3    H230342   1.071   0.332  15.345 -1.8119 -0.3220  1.4196
 2951TIP3   OH230343   3.912   3.227   3.835 -0.0583 -0.1431  1.0107
 2951TIP3    H130344   3.945   3.155   3.781  3.1993  2.9352 -1.3119
 2951TIP3    H230345   3.849   3.272   3.779 -1.5731 -0.6772  2.2202
 2952TIP3   OH230346   5.480   1.013   0.533 -0.6701 -0.2221  0.7174
 2952TIP3    H130347   5.533   0.981   0.606  2.2406 -0.6703 -1.4922
 2952TIP3    H230348   5.521   1.096   0.509 -2.1323  0.3415  0.1339
 2953TIP3   OH230349   2.915   5.170   2.479  0.1300  0.4593  0.1808
 2953TIP3    H130350   2.840   5.136   2.429  1.3550 -0.4927 -1.0571
 2953TIP3    H230351   2.878   5.239   2.534 -1.6878 -0.1203 -0.2804
 2954TIP3   OH230352   2.229   3.553   0.935 -0.1797 -0.2352  0.1470
 2954TIP3    H130353   2.162   3.487   0.952  0.1352 -0.4883  0.4018
 2954TIP3    H230354   2.179   3.634   0.923 -0.5222 -0.3910  0.4870
 2955TIP3   OH230355   6.153   4.187  11.524 -0.1293  0.0452  0.0536
 2955TIP3    H130356   6.122   4.266  11.567 -0.1690  0.4909 -0.7977
 2955TIP3    H230357   6.082   4.123  11.537 -1.3170  0.9789 -1.6572
 2956TIP3   OH230358   3.269   0.957  12.563 -0.6506  0.2060 -0.0142
 2956TIP3    H130359   3.184   0.925  12.592 -1.5356  0.4731 -2.1878
 2956TIP3    H230360   3.306   1.001  12.640 -2.9539  1.0409  0.6559
 2957TIP3   OH230361   0.293   4.822   2.594 -0.7734 -0.0277  0.0420
 2957TIP3    H130362   0.278   4.851   2.503  0.1706 -1.5461 -0.6101
 2957TIP3    H230363   0.388   4.809   2.599 -0.7534  0.6059  1.4395
 2958TIP3   OH230364   0.919   3.756   4.950 -0.2166  0.3345  0.1805
 2958TIP3    H130365   0.904   3.664   4.968 -2.3832  0.3213 -1.4657
 2958TIP3    H230366   0.947   3.758   4.858 -0.6776  1.3425  0.0489
 2959TIP3   OH230367   3.874   0.961   3.408 -0.0804  0.0456  0.0554
 2959TIP3    H130368   3.817   1.033   3.383  0.2395 -0.0098 -0.8555
 2959TIP3    H230369   3.859   0.894   3.342  1.1672  0.0994 -0.2980
 2960TIP3   OH230370   3.699   6.808   2.125  0.2299 -0.0826  0.1698
 2960TIP3    H130371   3.693   6.777   2.215 -0.2842 -0.2943  0.0626
 2960TIP3    H230372   3.790   6.792   2.100  0.9213  1.8414  1.3360
 2961TIP3   OH230373   3.452   4.041  14.250 -0.3643 -0.3947 -0.6153
 2961TIP3    H130374   3.402   3.960  14.249 -0.3813 -0.3906  0.0226
 2961TIP3    H230375   3.534   4.019  14.206 -0.5972 -0.6098 -0.9429
 2962TIP3   OH230376   5.309   0.262   0.419  0.1982 -0.4384 -0.2685
 2962TIP3    H130377   5.379   0.306   0.371 -0.8368  1.2613 -0.2749
 2962TIP3    H230378   5.348   0.181   0.450  1.7432 -0.1840 -1.4922
 2963TIP3   OH230379   2.487   4.231   4.613  0.6386 -0.5273  0.4167
 2963TIP3    H130380   2.414   4.228   4.676  1.7700 -1.3502  1.7335
 2963TIP3    H230381   2.550   4.167   4.648  0.4990 -2.3618 -2.5671
 2964TIP3   OH230382   2.703   6.530  15.278 -0.1268  0.4274  0.1172
 2964TIP3    H130383   2.787   6.571  15.258  1.2713 -1.9504  0.8905
 2964TIP3    H230384   2.648   6.550  15.202  1.7711  0.3339 -1.3178
 2965TIP3   OH230385   3.115   0.535   1.242  0.4491  0.0316  0.6989
 2965TIP3    H130386   3.157   0.555   1.159  1.0302 -0.0264  0.9785
 2965TIP3    H230387   3.168   0.581   1.308 -1.3619  2.0453  0.8300
 2966TIP3   OH230388   5.569   0.389  16.652  1.1105  0.0107  0.0526
 2966TIP3    H130389   5.619   0.469  16.665  0.2548  0.7277 -1.0023
 2966TIP3    H230390   5.507   0.387  16.726  0.6928  0.6677 -0.2707
 2967TIP3   OH230391   1.666   0.714  13.785  0.0989 -0.2865  0.3760
 2967TIP3    H130392   1.676   0.632  13.834 -0.0853 -0.1863  0.5811
 2967TIP3    H230393   1.752   0.728  13.744  0.2586 -0.3602  0.6847
 2968TIP3   OH230394   3.501   3.521   4.202 -0.4300 -0.2343 -0.2478
 2968TIP3    H130395   3.581   3.517   4.254 -0.8377  0.4243  0.4430
 2968TIP3    H230396   3.438   3.467   4.250 -0.3110 -1.0076 -0.9542
 2969TIP3   OH230397   1.647   0.075   1.755  0.6657 -0.7817 -0.6798
 2969TIP3    H130398   1.568   0.082   1.702 -0.0211 -0.8588  0.3165
 2969TIP3    H230399   1.719   0.090   1.693 -0.1353 -0.3656 -1.5242
 2970TIP3   OH230400   5.278   5.879   1.448 -0.1596  0.4448 -0.3607
 2970TIP3    H130401   5.322   5.795   1.462  1.0416  1.1327  0.0913
 2970TIP3    H230402   5.274   5.919   1.535 -0.5386  0.9376 -0.5998
 2971TIP3   OH230403   6.213   4.147  15.462  0.3161 -0.1948 -0.3935
 2971TIP3    H130404   6.262   4.103  15.392  1.2792  2.0455 -1.1564
 2971TIP3    H230405   6.272   4.145  15.537  1.0351  1.2720 -0.9123
 2972TIP3   OH230406   5.459   3.352  11.070 -0.4506 -0.3685 -0.2857
 2972TIP3    H130407   5.539   3.399  11.093 -0.2501  0.8890 -3.3352
 2972TIP3    H230408   5.398   3.420  11.041 -2.1922 -1.4527  0.7342
 2973TIP3   OH230409   2.569   4.618   1.778  0.2672 -0.4625 -0.4460
 2973TIP3    H130410   2.568   4.703   1.821 -1.6348 -0.8824  0.4110
 2973TIP3    H230411   2.648   4.576   1.810  0.4191  0.3951  0.3249
 2974TIP3   OH230412   0.010   2.990  13.776 -0.1254 -0.1646  0.0187
 2974TIP3    H130413  -0.059   3.056  13.775  1.6314  1.6811 -2.0068
 2974TIP3    H230414  -0.015   2.929  13.707  1.2989  1.6367 -2.1367
 2975TIP3   OH230415   4.163   0.221  15.941  0.3754 -0.4476  0.3024
 2975TIP3    H130416   4.208   0.297  15.903  1.1993 -0.6245  0.9188
 2975TIP3    H230417   4.170   0.234  16.035  1.7740 -2.0252  0.4249
 2976TIP3   OH230418   4.111   0.388   1.191  0.1862  0.6969  0.2675
 2976TIP3    H130419   4.158   0.342   1.121 -0.9385 -1.5239  0.9249
 2976TIP3    H230420   4.173   0.390   1.264 -0.1147 -0.6763  0.5625
 2977TIP3   OH230421   0.646   2.666  12.033  0.2869  0.0583  0.2486
 2977TIP3    H130422   0.658   2.673  11.938  0.0598 -3.0176 -0.0640
 2977TIP3    H230423   0.676   2.750  12.067 -0.2063  1.4594 -2.5943
 2978TIP3   OH230424   0.828   3.885   2.361 -0.2908 -0.3965  0.0384
 2978TIP3    H130425   0.831   3.913   2.269  0.2839 -0.0857  0.1535
 2978TIP3    H230426   0.813   3.790   2.357  0.5846 -0.5152 -0.3836
 2979TIP3   OH230427   3.811   5.851   4.685 -0.2018  0.3513 -0.1829
 2979TIP3    H130428   3.860   5.931   4.704 -0.9900  0.9963 -0.7615
 2979TIP3    H230429   3.729   5.861   4.734 -0.7000  0.3427 -1.0013
 2980TIP3   OH230430   0.115   4.054   1.607 -0.7526  0.1162 -0.1831
 2980TIP3    H130431   0.020   4.049   1.599 -0.8999  2.8501 -0.5530
 2980TIP3    H230432   0.133   4.145   1.630  1.9146  0.3319 -2.7438
 2981TIP3   OH230433   5.318   1.529   3.871 -0.1069 -0.4990 -0.2907
 2981TIP3    H130434   5.402   1.512   3.829 -0.1920 -0.8480 -0.3237
 2981TIP3    H230435   5.258   1.467   3.829 -0.6908  0.7230 -1.3011
 2982TIP3   OH230436   4.063   5.988  14.190  0.0853 -0.1321 -0.5578
 2982TIP3    H130437   4.114   5.952  14.263 -0.9359  0.3407  0.3980
 2982TIP3    H230438   4.063   6.082  14.206 -1.5709 -0.1730 -0.2161
 2983TIP3   OH230439   4.776   5.627  14.537  0.1738  0.1726 -0.0737
 2983TIP3    H130440   4.741   5.716  14.542  0.0028  0.0768  0.4486
 2983TIP3    H230441   4.746   5.594  14.453  0.4854  0.7144 -0.3992
 2984TIP3   OH230442   1.605   6.384   3.543 -0.3023  0.3683 -0.3666
 2984TIP3    H130443   1.566   6.457   3.496 -0.4784  0.1088 -0.6226
 2984TIP3    H230444   1.546   6.367   3.617  0.5861  1.5446  0.6456
 2985TIP3   OH230445   0.717   1.686  15.556 -0.2333  0.2203  0.0022
 2985TIP3    H130446   0.683   1.598  15.573  0.3889 -0.2464 -1.0982
 2985TIP3    H230447   0.652   1.725  15.497  1.0285 -0.6300 -2.0077
 2986TIP3   OH230448   5.445   3.703   1.320 -0.5499 -0.2138 -0.2057
 2986TIP3    H130449   5.422   3.796   1.317 -0.6012 -0.2393 -0.5910
 2986TIP3    H230450   5.364   3.658   1.294 -1.0539 -0.4428  1.6314
 2987TIP3   OH230451   6.334   2.386  13.655 -0.4065 -0.1073 -0.2439
 2987TIP3    H130452   6.321   2.480  13.665 -1.3463 -0.3157  0.5305
 2987TIP3    H230453   6.391   2.361  13.728  0.7474  0.0337 -1.0720
 2988TIP3   OH230454   1.080   5.769   4.503  0.0799 -0.1063  0.0437
 2988TIP3    H130455   0.992   5.806   4.494 -0.8720 -1.3190  3.4735
 2988TIP3    H230456   1.065   5.675   4.512  1.7453 -0.3515  0.2965
 2989TIP3   OH230457   2.117   5.487  15.244 -0.1927 -0.3668  0.3336
 2989TIP3    H130458   2.177   5.515  15.175 -1.0576 -0.4206 -0.4618
 2989TIP3    H230459   2.169   5.430  15.300  0.7528  0.3792  0.2138
 2990TIP3   OH230460   6.052   2.065  14.034 -0.4180 -0.0234 -0.0291
 2990TIP3    H130461   5.979   2.120  14.007 -0.9589 -0.7675 -0.0858
 2990TIP3    H230462   6.122   2.127  14.054 -0.7019  0.6443 -1.0397
 2991TIP3   OH230463   2.566   6.600  15.688 -0.3575  0.7547 -0.0338
 2991TIP3    H130464   2.499   6.599  15.757  1.0941  3.0145  1.4581
 2991TIP3    H230465   2.637   6.652  15.724  0.6805  1.5264 -3.0489
 2992TIP3   OH230466   1.135   5.922   5.032  0.0227  0.3577  0.5423
 2992TIP3    H130467   1.058   5.978   5.037 -0.4092 -0.3362  1.6618
 2992TIP3    H230468   1.121   5.870   4.952 -1.0295 -0.2962  1.1442
 2993TIP3   OH230469   0.304   4.413  12.026  0.4630 -0.2143  0.0633
 2993TIP3    H130470   0.244   4.488  12.027 -0.9628 -1.3182 -0.1690
 2993TIP3    H230471   0.260   4.346  12.079  1.6628 -0.9313  0.1768
 2994TIP3   OH230472   6.227   3.841  13.916 -0.7876 -0.1505  0.0360
 2994TIP3    H130473   6.249   3.823  13.824  1.5864 -0.4164  0.6128
 2994TIP3    H230474   6.203   3.756  13.952 -2.8556  0.1343 -0.5916
 2995TIP3   OH230475   4.873   6.772   1.990 -0.6889  0.6471  0.5480
 2995TIP3    H130476   4.897   6.857   1.954 -0.3828  0.1614 -0.4113
 2995TIP3    H230477   4.949   6.717   1.974 -1.6806 -0.3862 -0.7733
 2996TIP3   OH230478   4.295   4.599   0.375  0.5560 -0.0134  1.0747
 2996TIP3    H130479   4.379   4.555   0.362  0.5685  0.5564 -1.0989
 2996TIP3    H230480   4.318   4.687   0.404  0.8219  0.6202 -0.9268
 2997TIP3   OH230481   6.617   5.363   5.403  0.4040  0.3570  0.4350
 2997TIP3    H130482   6.576   5.423   5.466  1.0334  0.1252  1.0662
 2997TIP3    H230483   6.568   5.378   5.322  0.0707  1.1974  0.7744
 2998TIP3   OH230484   3.125   2.892  14.640 -0.2993  0.1052  0.5019
 2998TIP3    H130485   3.033   2.888  14.612  0.1168 -2.2058 -0.6133
 2998TIP3    H230486   3.172   2.917  14.561  0.2937 -1.1824  0.4371
 2999TIP3   OH230487   5.354   0.882  13.193  0.0987  0.1773 -0.0083
 2999TIP3    H130488   5.287   0.886  13.125  0.3459  3.3569 -0.1231
 2999TIP3    H230489   5.312   0.920  13.270  0.8605 -0.4614  0.7302
 3000TIP3   OH230490   0.063   0.667   2.717 -0.1831  0.5760  0.0654
 3000TIP3    H130491   0.069   0.753   2.759  2.2653  0.8016 -0.6760
 3000TIP3    H230492   0.125   0.612   2.766 -1.2692 -0.6138  0.1402
 3001TIP3   OH230493   0.817   0.584  13.645  0.4299  0.3184 -0.7726
 3001TIP3    H130494   0.895   0.622  13.684 -0.9504  0.6356  1.7979
 3001TIP3    H230495   0.763   0.659  13.620 -0.4264  0.1081  0.3906
 3002TIP3   OH230496   3.411   0.619  14.175  0.1940 -0.3055  0.2961
 3002TIP3    H130497   3.335   0.610  14.233 -0.4550 -0.5692 -0.5881
 3002TIP3    H230498   3.462   0.691  14.214 -0.0850 -0.6666  1.3501
 3003TIP3   OH230499   3.398   5.099   0.147  0.6859  0.3980 -0.4200
 3003TIP3    H130500   3.331   5.147   0.098  0.4259  0.9943  0.4901
 3003TIP3    H230501   3.402   5.144   0.232  1.6857 -0.1174 -0.1825
 3004TIP3   OH230502   1.351   3.188   1.946 -0.0862 -0.2380 -0.4695
 3004TIP3    H130503   1.306   3.171   2.029 -0.7407 -0.8717 -0.9470
 3004TIP3    H230504   1.429   3.238   1.971 -0.0330 -0.8280  0.5837
 3005TIP3   OH230505   1.943   1.073  16.536  0.3128  0.0896 -0.5404
 3005TIP3    H130506   1.861   1.033  16.507  0.4253 -1.0197  0.6362
 3005TIP3    H230507   1.975   1.119  16.459  0.5959 -2.7753 -2.2280
 3006TIP3   OH230508   1.387   2.425  12.973 -0.5579  0.7395 -0.5981
 3006TIP3    H130509   1.481   2.434  12.964  0.0624  0.4271  4.1972
 3006TIP3    H230510   1.370   2.333  12.952  0.2830  0.6649 -0.9678
 3007TIP3   OH230511   6.279   0.801   3.425  0.1421 -0.2090  0.0605
 3007TIP3    H130512   6.244   0.848   3.501 -1.3668 -1.8310  0.3858
 3007TIP3    H230513   6.203   0.759   3.385  1.2280 -1.0207 -1.1907
 3008TIP3   OH230514   2.736   5.848   0.933  0.2217 -0.2693 -0.4753
 3008TIP3    H130515   2.826   5.821   0.917 -0.3286 -1.4840 -1.6868
 3008TIP3    H230516   2.716   5.813   1.020  0.2016 -2.0185 -1.1580
 3009TIP3   OH230517   1.597   1.362  16.043  0.7233 -0.2045  0.3635
 3009TIP3    H130518   1.682   1.321  16.030  1.1144  1.3617 -2.1834
 3009TIP3    H230519   1.612   1.430  16.109  0.6850 -2.0988  2.4027
 3010TIP3   OH230520   6.352   2.594   0.324  0.3573 -0.4717 -0.8664
 3010TIP3    H130521   6.264   2.601   0.362  0.5622 -2.1891 -0.0527
 3010TIP3    H230522   6.408   2.640   0.386  0.4842 -2.0554  0.2002
 3011TIP3   OH230523   3.319   4.815  11.670 -0.3026  0.0368 -0.3223
 3011TIP3    H130524   3.265   4.736  11.664 -0.4566  0.1235 -0.0820
 3011TIP3    H230525   3.311   4.856  11.584 -2.0285  0.9694  0.2635
 3012TIP3   OH230526   4.668   5.807   3.125  0.8673 -0.7437  0.0211
 3012TIP3    H130527   4.638   5.895   3.101 -1.5850 -1.9335 -1.4679
 3012TIP3    H230528   4.751   5.797   3.077  1.4683  0.9495  0.6581
 3013TIP3   OH230529   2.399   4.327   4.238  0.0003  0.0475  0.3516
 3013TIP3    H130530   2.431   4.236   4.239  1.1884  0.4196 -1.6203
 3013TIP3    H230531   2.438   4.367   4.316 -0.1546 -0.9938  0.9779
 3014TIP3   OH230532   0.095   6.790  16.745  0.3023  0.2452  0.4547
 3014TIP3    H130533   0.122   6.856  16.681  0.4640 -0.1916  0.0679
 3014TIP3    H230534   0.045   6.727  16.693 -0.6660  0.5558  0.9873
 3015TIP3   OH230535   3.217   4.573  15.636 -0.6065  0.7663 -0.1674
 3015TIP3    H130536   3.191   4.647  15.580  0.0967  1.2295  0.1025
 3015TIP3    H230537   3.144   4.560  15.695 -1.0902  0.6943 -0.7720
 3016TIP3   OH230538   5.149   6.625  15.237 -0.0125 -0.1922 -0.0385
 3016TIP3    H130539   5.211   6.611  15.166  0.9374 -0.7514  0.8771
 3016TIP3    H230540   5.064   6.636  15.194  0.4851 -0.8791 -1.2228
 3017TIP3   OH230541   4.190   0.724  12.766 -0.4530  0.3484  0.4206
 3017TIP3    H130542   4.096   0.728  12.748 -0.6718  1.6174  1.7558
 3017TIP3    H230543   4.197   0.679  12.850  0.0606  1.4806  0.9831
 3018TIP3   OH230544   3.378   6.737  14.557  0.0136  0.4688  0.0851
 3018TIP3    H130545   3.384   6.828  14.525 -0.3035  0.0746 -1.1199
 3018TIP3    H230546   3.356   6.686  14.479  1.1238 -0.7795  0.5839
 3019TIP3   OH230547   2.102   0.814   1.703 -0.1489 -0.2428 -0.1535
 3019TIP3    H130548   2.047   0.892   1.703 -0.5899 -0.5157 -2.1105
 3019TIP3    H230549   2.131   0.806   1.612  1.6783 -1.1223  0.4728
 3020TIP3   OH230550   2.489   4.731  14.567 -0.1635  0.1648  0.3930
 3020TIP3    H130551   2.404   4.687  14.568 -0.0599 -0.0016  1.5204
 3020TIP3    H230552   2.478   4.803  14.504 -1.6336  1.1079  1.6984
 3021TIP3   OH230553   2.182   6.504  12.068 -0.4735  0.4493 -0.0517
 3021TIP3    H130554   2.241   6.510  12.143 -0.9784 -0.0424  0.3927
 3021TIP3    H230555   2.100   6.543  12.098 -0.5037  0.7586 -0.5279
 3022TIP3   OH230556   0.387   3.392   4.454 -0.7486  0.4478 -0.0367
 3022TIP3    H130557   0.443   3.445   4.511 -0.2492 -1.1290  0.9667
 3022TIP3    H230558   0.432   3.391   4.370 -0.5083  1.1818  0.0769
 3023TIP3   OH230559   4.997   2.320   6.067 -0.2285  0.2178 -0.0230
 3023TIP3    H130560   4.904   2.296   6.061  0.3269 -1.7221 -1.2854
 3023TIP3    H230561   5.004   2.367   6.149 -2.2036 -0.2828  0.4658
 3024TIP3   OH230562   6.191   1.467   5.762  0.3542  0.0028  0.4551
 3024TIP3    H130563   6.249   1.417   5.821  2.2528 -0.2179 -1.5474
 3024TIP3    H230564   6.111   1.480   5.814  1.9527 -0.1749  3.0868
 3025TIP3   OH230565   4.822   3.594   3.126  0.7245 -1.1112  0.5114
 3025TIP3    H130566   4.898   3.601   3.184  1.7048 -2.7586 -0.5317
 3025TIP3    H230567   4.752   3.560   3.183  0.5511  0.9728  1.6134
 3026TIP3   OH230568   5.339   1.883  11.726  0.1736 -0.3011  0.1240
 3026TIP3    H130569   5.421   1.851  11.690 -0.3331 -0.6843 -0.7106
 3026TIP3    H230570   5.325   1.831  11.805 -1.1155 -2.8500 -1.7075
 3027TIP3   OH230571   5.251   6.451  16.659  0.1417  0.5749 -0.8951
 3027TIP3    H130572   5.212   6.451  16.571  0.9139  1.6327 -1.2415
 3027TIP3    H230573   5.210   6.525  16.703  1.5659  1.5698 -1.1927
 3028TIP3   OH230574   4.558   0.474  14.217  0.3274 -0.1976 -0.1195
 3028TIP3    H130575   4.541   0.392  14.263  0.9473 -0.9745 -1.2658
 3028TIP3    H230576   4.643   0.503  14.252  0.6804 -0.6597 -0.5991
 3029TIP3   OH230577   5.575   6.724  14.478  0.6143 -0.4146 -0.0088
 3029TIP3    H130578   5.606   6.747  14.390  1.0120  0.4502  0.3558
 3029TIP3    H230579   5.485   6.693  14.463 -0.9023  3.7550 -0.2787
 3030TIP3   OH230580   2.271   2.080  16.100 -0.0523  0.2106  0.0658
 3030TIP3    H130581   2.300   2.159  16.145 -0.8808  0.6142 -0.1017
 3030TIP3    H230582   2.190   2.055  16.144 -0.2246 -0.0802 -0.4104
 3031TIP3   OH230583   0.924   2.172   3.623 -0.2580  0.1220 -0.1888
 3031TIP3    H130584   0.838   2.146   3.592 -0.6788  0.2551  0.8496
 3031TIP3    H230585   0.932   2.130   3.709  0.1674  1.1990  0.3028
 3032TIP3   OH230586   1.142   1.894   3.716 -0.0707  0.5768  0.2882
 3032TIP3    H130587   1.222   1.941   3.696 -0.2167  0.7733  0.1624
 3032TIP3    H230588   1.144   1.816   3.661  0.7659 -0.2008  1.3965
 3033TIP3   OH230589   2.710   1.257  11.167  0.2529  0.2271 -0.6255
 3033TIP3    H130590   2.790   1.304  11.145 -0.0316  0.5985 -0.8882
 3033TIP3    H230591   2.646   1.287  11.101 -0.1585  0.1064 -0.2827
 3034TIP3   OH230592   1.068   5.202  11.426 -0.1858  0.2329 -0.2445
 3034TIP3    H130593   1.066   5.296  11.445 -1.1843  0.6440 -2.1464
 3034TIP3    H230594   1.032   5.160  11.504 -0.7207  1.5249  0.2115
 3035TIP3   OH230595   5.036   6.342   3.139  0.7284 -0.1998 -0.0040
 3035TIP3    H130596   5.041   6.247   3.134 -1.8250 -0.4551  1.4104
 3035TIP3    H230597   5.035   6.361   3.233  0.6253  1.1966 -0.2792
 3036TIP3   OH230598   5.000   5.505  13.243  0.3007  0.9520 -0.1181
 3036TIP3    H130599   4.908   5.488  13.262  0.1970  0.6824 -0.8567
 3036TIP3    H230600   5.020   5.450  13.168  2.1549 -2.0478  2.4388
 3037TIP3   OH230601   6.619   6.010  14.889  0.3154  0.5163 -0.2700
 3037TIP3    H130602   6.542   5.982  14.939  0.8821  1.6882  1.3291
 3037TIP3    H230603   6.647   5.932  14.841 -1.0395 -0.2895  0.2326
 3038TIP3   OH230604   4.576   0.127  13.057  0.0090  0.1584  0.8259
 3038TIP3    H130605   4.665   0.119  13.091 -0.0920 -2.7440  0.4913
 3038TIP3    H230606   4.580   0.087  12.970 -1.6214  0.0325  0.7984
 3039TIP3   OH230607   6.076   3.065  14.124 -0.1665 -0.0747  0.0257
 3039TIP3    H130608   5.995   3.026  14.157  0.3855 -0.6546  0.6986
 3039TIP3    H230609   6.145   3.027  14.178  0.4310  1.4039  0.3136
 3040TIP3   OH230610   1.344   6.483  11.700 -0.5188 -0.4396  0.3230
 3040TIP3    H130611   1.425   6.530  11.719 -1.2907  0.2932  1.8274
 3040TIP3    H230612   1.365   6.430  11.623  0.2512  2.5727 -1.6076
 3041TIP3   OH230613   6.368   1.012  13.418 -0.3878  0.1748  0.1341
 3041TIP3    H130614   6.358   1.076  13.488 -0.9345  1.9799 -1.5494
 3041TIP3    H230615   6.453   1.032  13.379 -0.5909 -0.0543 -0.4399
 3042TIP3   OH230616   0.726   0.009   3.781  0.2242  0.4425  0.0988
 3042TIP3    H130617   0.783   0.025   3.706  0.3729  1.5736  0.4369
 3042TIP3    H230618   0.669   0.086   3.785 -1.5176 -0.7861 -0.3818
 3043TIP3   OH230619   4.815   5.113   0.397  0.4296 -0.1683 -0.4734
 3043TIP3    H130620   4.768   5.034   0.424 -0.4971  0.4725 -0.1916
 3043TIP3    H230621   4.900   5.106   0.441  0.1818 -0.7837 -0.0821
 3044TIP3   OH230622   1.654   0.702   1.117  0.5097 -0.4197  0.3498
 3044TIP3    H130623   1.662   0.722   1.211 -2.0260 -0.2520  0.5503
 3044TIP3    H230624   1.605   0.620   1.114  1.1008 -0.7430 -0.8412
 3045TIP3   OH230625   1.867   4.242  11.824 -0.0183  0.6359  0.2483
 3045TIP3    H130626   1.878   4.280  11.737 -1.3565  2.5224  0.8585
 3045TIP3    H230627   1.856   4.318  11.881 -1.1922 -0.6518  1.7648
 3046TIP3   OH230628   0.284   4.246  15.241 -0.2131  0.6802 -0.4488
 3046TIP3    H130629   0.210   4.305  15.228  2.0403  4.1289  1.7826
 3046TIP3    H230630   0.317   4.229  15.152 -1.2690  2.2740 -1.1564
 3047TIP3   OH230631   0.349   2.858   5.776  0.1365  0.0145  0.2493
 3047TIP3    H130632   0.339   2.859   5.681 -0.4564  0.9764  0.3071
 3047TIP3    H230633   0.440   2.830   5.791 -0.0510 -1.0519 -0.5600
 3048TIP3   OH230634   6.416   3.235   2.274  0.2805 -0.3781  0.2191
 3048TIP3    H130635   6.362   3.287   2.333  0.2685  0.1850 -0.2807
 3048TIP3    H230636   6.406   3.278   2.189  2.2128  0.2537  0.3044
 3049TIP3   OH230637   3.172   1.189   3.423  0.3428  0.0821  0.1791
 3049TIP3    H130638   3.160   1.167   3.330  0.7411  0.2281  0.0932
 3049TIP3    H230639   3.254   1.146   3.447  0.0679 -0.2342  0.5551
 3050TIP3   OH230640   0.213   0.950  17.146  0.2044  0.2536  0.1149
 3050TIP3    H130641   0.297   0.978  17.109  1.3082  1.3672  3.3232
 3050TIP3    H230642   0.160   1.029  17.146 -0.2787 -0.0698 -0.3737
 3051TIP3   OH230643   2.912   0.841  10.722  0.1765 -0.2558  0.0128
 3051TIP3    H130644   2.876   0.924  10.691  0.4227 -0.9204 -2.0985
 3051TIP3    H230645   2.837   0.781  10.724  0.8038 -1.2379 -2.9820
 3052TIP3   OH230646   6.471   1.315  16.760 -0.2895 -0.5730 -0.2569
 3052TIP3    H130647   6.507   1.404  16.760 -0.9225 -0.3078 -0.1210
 3052TIP3    H230648   6.508   1.274  16.838 -2.5525  0.6587  1.5224
 3053TIP3   OH230649   1.561   2.324   4.669 -0.1466 -0.1576 -0.2654
 3053TIP3    H130650   1.487   2.352   4.724  0.7443  0.1493  0.7883
 3053TIP3    H230651   1.531   2.242   4.629 -0.4961 -0.8204  1.3292
 3054TIP3   OH230652   6.280   5.881  14.088 -0.3094  0.0110  0.2652
 3054TIP3    H130653   6.337   5.810  14.117 -0.8266 -0.6329 -0.2501
 3054TIP3    H230654   6.191   5.848  14.104 -0.5570  0.4269 -0.2329
 3055TIP3   OH230655   0.700   1.277  11.618  0.0890 -0.4001  0.2247
 3055TIP3    H130656   0.678   1.357  11.666  0.6873 -0.6150  0.8783
 3055TIP3    H230657   0.741   1.308  11.537 -1.6944 -0.0213 -0.5457
 3056TIP3   OH230658   2.746   0.026  12.710  0.2478 -0.2854  0.0916
 3056TIP3    H130659   2.795   0.009  12.629  0.2962 -1.4517  0.3555
 3056TIP3    H230660   2.670  -0.031  12.704  0.8773 -1.3158  1.4236
 3057TIP3   OH230661   3.596   0.020   3.419 -1.2669  0.0490 -0.4521
 3057TIP3    H130662   3.583  -0.062   3.371 -0.1569 -0.6585  0.4369
 3057TIP3    H230663   3.551   0.006   3.502 -2.5939  1.0187 -0.9733
 3058TIP3   OH230664   5.224   4.911  15.486  0.1310  0.1840 -0.5654
 3058TIP3    H130665   5.132   4.929  15.466 -0.5831 -0.7364  1.7377
 3058TIP3    H230666   5.224   4.823  15.524  1.5334  1.2993  2.1841
 3059TIP3   OH230667   1.376   3.992  16.146 -0.4346  0.0786  0.2464
 3059TIP3    H130668   1.412   4.059  16.087  1.1191 -2.1027 -1.3730
 3059TIP3    H230669   1.432   3.995  16.223  0.2571 -0.0308 -0.2487
 3060TIP3   OH230670   0.062   4.369  14.802 -0.1006  0.7397  0.5298
 3060TIP3    H130671   0.028   4.361  14.713  1.3026 -1.9642  0.1818
 3060TIP3    H230672   0.124   4.443  14.798  0.7213 -0.0126 -0.9933
 3061TIP3   OH230673   1.892   0.525   2.024 -0.0809  0.0243  0.3207
 3061TIP3    H130674   1.904   0.607   2.072 -3.2381  0.4874  0.4102
 3061TIP3    H230675   1.842   0.469   2.084  1.1652 -1.6155 -0.1282
 3062TIP3   OH230676   3.275   5.418  14.400  0.2430  0.3832  0.0938
 3062TIP3    H130677   3.270   5.467  14.317  0.1058  0.8989  0.4014
 3062TIP3    H230678   3.196   5.444  14.447 -0.3898 -0.9817 -0.1901
 3063TIP3   OH230679   6.538   2.934   6.280  0.3682 -0.0998 -0.0973
 3063TIP3    H130680   6.532   3.005   6.344  1.9932  0.1857 -0.2502
 3063TIP3    H230681   6.465   2.876   6.302  0.4179  0.4150  1.4951
 3064TIP3   OH230682   6.294   6.675   4.837  0.7550  0.0236  0.4083
 3064TIP3    H130683   6.356   6.720   4.894 -1.5098  1.1990  2.0132
 3064TIP3    H230684   6.266   6.598   4.887 -2.4026  1.8772  1.6373
 3065TIP3   OH230685   0.773   0.000  13.245  0.2212  0.3733 -0.2665
 3065TIP3    H130686   0.844  -0.033  13.191  0.9379  2.5014 -0.6880
 3065TIP3    H230687   0.694  -0.020  13.196  0.6020 -0.8523 -0.4019
 3066TIP3   OH230688   5.944   1.947   4.949 -0.3508 -0.0846  0.1927
 3066TIP3    H130689   6.006   1.939   4.877  0.3687  0.6522  0.7133
 3066TIP3    H230690   5.859   1.928   4.910  0.1984 -1.0739 -0.5381
 3067TIP3   OH230691   2.657   6.121  17.161  0.1554  0.1423 -0.4370
 3067TIP3    H130692   2.713   6.067  17.105 -0.3679  1.3888 -2.1991
 3067TIP3    H230693   2.698   6.118  17.247  1.1772 -1.5076 -0.9730
 3068TIP3   OH230694   6.329   0.352   5.984  0.1853  0.4600 -0.0245
 3068TIP3    H130695   6.343   0.393   5.898 -0.9150  0.2483 -0.3038
 3068TIP3    H230696   6.248   0.303   5.975  0.5453 -0.3265  0.8638
 3069TIP3   OH230697   5.395   1.229  13.101 -0.1575 -0.8024 -0.1396
 3069TIP3    H130698   5.366   1.164  13.164  0.3076  1.1219  2.1277
 3069TIP3    H230699   5.348   1.309  13.125  1.0989  0.3259 -1.3370
 3070TIP3   OH230700   6.100   3.370  15.403  0.1301 -0.0182 -0.3966
 3070TIP3    H130701   6.070   3.329  15.483  1.2452 -1.1556 -0.5444
 3070TIP3    H230702   6.049   3.330  15.333 -2.6484  2.7810 -0.0716
 3071TIP3   OH230703   5.962   0.744  13.730  0.0401  0.2817  0.0682
 3071TIP3    H130704   6.007   0.731  13.814  0.3140 -1.7608 -0.3690
 3071TIP3    H230705   5.965   0.659  13.687  0.4636  1.4553 -2.3226
 3072TIP3   OH230706   5.237   5.094   3.913  0.2140 -0.0718  0.3890
 3072TIP3    H130707   5.210   5.002   3.904 -1.2086  0.2405  1.2973
 3072TIP3    H230708   5.326   5.090   3.947  0.9474 -1.1200 -1.5294
 3073TIP3   OH230709   3.795   1.064  15.339  0.1343 -0.0338  0.0445
 3073TIP3    H130710   3.827   1.023  15.420 -0.6626  0.3723  0.5658
 3073TIP3    H230711   3.830   1.009  15.269  0.1781 -0.8362  0.6948
 3074TIP3   OH230712   3.226   4.590   6.279 -0.3186  0.5388 -0.5443
 3074TIP3    H130713   3.286   4.637   6.222 -0.8934  0.7058 -1.0057
 3074TIP3    H230714   3.185   4.524   6.223  1.2387 -1.2192  0.3178
 3075TIP3   OH230715   3.972   0.903  12.010  0.2123 -0.4959  0.6383
 3075TIP3    H130716   3.982   0.870  12.099 -1.3057  1.2918  1.5120
 3075TIP3    H230717   3.879   0.925  12.003  0.6605  1.0978 -0.7361
 3076TIP3   OH230718   0.869   2.868   4.074 -0.1832 -0.1441 -0.1686
 3076TIP3    H130719   0.914   2.847   3.993  0.6885  1.3142 -0.0609
 3076TIP3    H230720   0.923   2.827   4.142  0.1868  0.3534 -0.1609
 3077TIP3   OH230721   6.329   5.868  13.000  0.5731 -0.0114  0.5812
 3077TIP3    H130722   6.403   5.925  13.021 -0.3424  1.0569  0.9491
 3077TIP3    H230723   6.319   5.812  13.077  0.5200  0.3522  0.8364
 3078TIP3   OH230724   6.550   2.389   3.616  0.5565  0.4407 -0.0210
 3078TIP3    H130725   6.564   2.321   3.550 -0.4318 -0.2959  0.5079
 3078TIP3    H230726   6.477   2.441   3.581 -1.0041 -0.8893  1.1935
 3079TIP3   OH230727   4.368   6.736   2.369 -0.2227  0.2070  0.1746
 3079TIP3    H130728   4.385   6.810   2.311  1.8676 -0.3462  0.0435
 3079TIP3    H230729   4.455   6.707   2.397 -1.0522 -1.7045  0.8358
 3080TIP3   OH230730   0.739   5.504  13.974  0.1329 -0.9416  0.0087
 3080TIP3    H130731   0.809   5.478  13.914 -0.2996  0.2918 -1.0480
 3080TIP3    H230732   0.778   5.498  14.061  1.5426 -0.3321 -0.5724
 3081TIP3   OH230733   2.340   5.890   3.720  0.3339  0.3925 -0.3184
 3081TIP3    H130734   2.272   5.890   3.787 -0.7276 -0.3565 -1.3751
 3081TIP3    H230735   2.366   5.982   3.711 -0.9007  0.7476 -0.2591
 3082TIP3   OH230736   6.276   6.276   6.444 -0.5414 -0.5326  0.1536
 3082TIP3    H130737   6.192   6.248   6.408  0.4740 -0.9502 -1.9593
 3082TIP3    H230738   6.286   6.367   6.414 -0.9779  0.0704  1.7893
 3083TIP3   OH230739   6.637   4.885  11.764 -0.0503 -0.5403 -0.2721
 3083TIP3    H130740   6.693   4.899  11.688 -0.3174 -0.6690 -0.4952
 3083TIP3    H230741   6.565   4.832  11.731 -1.1855  1.0314 -0.3858
 3084TIP3   OH230742   4.194   6.447  12.132  0.1058  0.1013 -0.4836
 3084TIP3    H130743   4.201   6.402  12.216 -1.7542 -0.6939 -0.7420
 3084TIP3    H230744   4.285   6.456  12.103  0.7049 -0.5224  1.1319
 3085TIP3   OH230745   3.513   6.266   5.264 -0.4323  0.0510 -0.1493
 3085TIP3    H130746   3.573   6.333   5.231 -0.0884 -0.9973 -1.6892
 3085TIP3    H230747   3.561   6.223   5.335  0.1080  0.1284 -0.4637
 3086TIP3   OH230748   1.974   5.592  10.554 -0.2241 -0.0432  0.4425
 3086TIP3    H130749   1.879   5.578  10.558 -0.1895 -0.4219 -0.0825
 3086TIP3    H230750   2.004   5.537  10.482  0.1244  1.5624 -0.6663
 3087TIP3   OH230751   1.766   2.890   6.990 -0.0584  0.1437  0.8878
 3087TIP3    H130752   1.750   2.843   6.908 -0.6412  0.0769  1.0387
 3087TIP3    H230753   1.686   2.939   7.005  0.4211  0.9234  0.9114
 3088TIP3   OH230754   5.314   2.330   1.854 -0.1691  0.1225 -0.2867
 3088TIP3    H130755   5.227   2.305   1.825  0.5437  0.3606 -2.7607
 3088TIP3    H230756   5.301   2.404   1.912 -1.5584  0.8493 -1.5007
 3089TIP3   OH230757   0.056   4.869   0.774 -0.1232 -0.5028  0.2668
 3089TIP3    H130758   0.032   4.823   0.694 -0.3702 -0.2591  0.1994
 3089TIP3    H230759   0.128   4.818   0.811 -1.8938 -2.2343  1.3861
 3090TIP3   OH230760   1.291   5.083   0.105 -0.3747 -0.6363 -0.2810
 3090TIP3    H130761   1.386   5.083   0.100 -0.2932 -1.4093  1.0029
 3090TIP3    H230762   1.269   4.996   0.138 -1.5381 -0.5103 -0.6961
 3091TIP3   OH230763   3.935   2.465  10.816 -0.5592  0.3339  0.1158
 3091TIP3    H130764   3.954   2.410  10.740 -1.5690 -0.7973  0.6708
 3091TIP3    H230765   3.982   2.547  10.799  0.6306 -0.5525 -0.9002
 3092TIP3   OH230766   1.072   4.775  16.061 -0.2006  0.0110  0.1444
 3092TIP3    H130767   1.005   4.794  15.995 -0.7173  0.3840  0.7759
 3092TIP3    H230768   1.155   4.794  16.018 -0.5548  0.5836 -0.2837
 3093TIP3   OH230769   3.415   3.172   3.141  0.4196  0.8256 -0.3820
 3093TIP3    H130770   3.403   3.105   3.207  0.9900 -0.8634 -1.9487
 3093TIP3    H230771   3.510   3.185   3.136  0.4037  0.7435 -1.0394
 3094TIP3   OH230772   2.052   3.416   0.140 -0.1272 -0.1001 -0.8750
 3094TIP3    H130773   1.972   3.368   0.120 -0.1957 -0.7109  0.8098
 3094TIP3    H230774   2.097   3.363   0.206  1.6174  0.2868 -1.7200
 3095TIP3   OH230775   4.256   5.409   1.226  0.2855  0.1069  0.1149
 3095TIP3    H130776   4.217   5.391   1.141  1.2112 -0.7414 -0.1263
 3095TIP3    H230777   4.199   5.363   1.288  0.0403  0.1231 -0.0960
 3096TIP3   OH230778   4.222   0.152   2.790  0.0287  0.1137  0.2136
 3096TIP3    H130779   4.206   0.188   2.703 -1.8081  0.3257  0.6264
 3096TIP3    H230780   4.152   0.089   2.804 -0.3994  0.9354  1.9904
 3097TIP3   OH230781   2.794   0.964  14.510 -0.0048 -0.4107 -0.1405
 3097TIP3    H130782   2.860   1.020  14.469 -1.4157  1.5362  0.1937
 3097TIP3    H230783   2.819   0.961  14.602  1.1308 -1.8793 -0.4801
 3098TIP3   OH230784   1.952   6.443  13.048 -0.4901 -0.1557 -0.0280
 3098TIP3    H130785   1.933   6.534  13.070 -1.3445 -0.6116  1.2024
 3098TIP3    H230786   1.885   6.417  12.986 -1.4225 -0.5195  1.1181
 3099TIP3   OH230787   2.831   2.818  12.320  0.0429  0.2585  0.0164
 3099TIP3    H130788   2.761   2.882  12.309 -0.8384 -0.7448 -0.2994
 3099TIP3    H230789   2.869   2.839  12.406 -1.3285  0.1580  0.6560
 3100TIP3   OH230790   6.544   5.882   5.013  0.1581 -0.6838  0.4437
 3100TIP3    H130791   6.524   5.966   4.971 -0.4898 -0.5365  1.0456
 3100TIP3    H230792   6.639   5.883   5.025  0.4407 -0.9900 -1.5869
 3101TIP3   OH230793   5.862   5.997  15.952 -0.9015 -0.3996  0.5517
 3101TIP3    H130794   5.823   6.045  15.879 -1.0090 -1.6177 -0.2044
 3101TIP3    H230795   5.855   5.905  15.927  2.6367 -0.6516  0.2964
 3102TIP3   OH230796   1.776   6.718  11.519 -0.2222  0.5669 -0.2218
 3102TIP3    H130797   1.865   6.697  11.490  0.0187  1.1890  0.0465
 3102TIP3    H230798   1.788   6.782  11.590 -0.8663  0.3163  0.1230
 3103TIP3   OH230799   5.358   0.750   3.935  0.5326  0.0940 -0.2699
 3103TIP3    H130800   5.354   0.666   3.980  0.0595  0.7660  0.9452
 3103TIP3    H230801   5.267   0.781   3.932  0.7129  0.6032 -0.6355
 3104TIP3   OH230802   6.190   0.947  15.229 -0.0591  0.1733  0.1288
 3104TIP3    H130803   6.150   1.031  15.208 -2.7587 -0.9607  0.4269
 3104TIP3    H230804   6.148   0.920  15.311  1.3936 -1.0498  0.4940
 3105TIP3   OH230805   3.568   2.717  15.841  0.2493 -0.2997 -0.0368
 3105TIP3    H130806   3.509   2.677  15.778 -1.8066  1.1512  0.9033
 3105TIP3    H230807   3.644   2.744  15.789 -1.2533  0.5693 -1.8367
 3106TIP3   OH230808   3.656   6.351   3.831 -0.0348  0.9945  0.6960
 3106TIP3    H130809   3.687   6.275   3.782  1.7303  1.3772  1.1680
 3106TIP3    H230810   3.688   6.426   3.780 -0.7051  1.4138  0.8831
 3107TIP3   OH230811   6.008   2.962  16.077  0.2077  0.3712  0.2202
 3107TIP3    H130812   6.087   2.986  16.029 -0.1178  1.9356  0.4380
 3107TIP3    H230813   5.941   2.953  16.010  0.3966 -0.2882  0.1062
 3108TIP3   OH230814   3.131   2.861   4.834 -0.5527  0.3993  0.0590
 3108TIP3    H130815   3.184   2.935   4.804  1.3703 -0.9785 -0.0411
 3108TIP3    H230816   3.109   2.882   4.924  1.3762  0.3586  0.5603
 3109TIP3   OH230817   0.286   1.188   1.867 -0.2190 -0.4254 -0.2041
 3109TIP3    H130818   0.277   1.283   1.859  1.7236 -0.2913 -1.2061
 3109TIP3    H230819   0.362   1.167   1.813  0.8934 -2.2369  1.9622
 3110TIP3   OH230820   5.676   1.306  13.180 -0.3266 -0.2085 -0.1536
 3110TIP3    H130821   5.603   1.330  13.122 -0.2744 -1.4243 -0.7493
 3110TIP3    H230822   5.638   1.242  13.240 -0.1347  0.3293  0.5492
 3111TIP3   OH230823   3.073   0.712  15.801 -0.1709  0.2299 -0.0951
 3111TIP3    H130824   3.074   0.805  15.780  0.9921 -0.1347 -1.7986
 3111TIP3    H230825   3.155   0.678  15.765  0.9924 -0.8645  3.3887
 3112TIP3   OH230826   3.658   0.005  10.940  0.0683  0.2038  0.2540
 3112TIP3    H130827   3.686   0.076  10.881 -0.9001  1.9811  1.8579
 3112TIP3    H230828   3.567  -0.011  10.917  0.3270 -0.6512 -0.2040
 3113TIP3   OH230829   3.372   1.649  11.674  0.6412 -0.4329 -1.0339
 3113TIP3    H130830   3.305   1.691  11.621 -0.1833  0.9991  1.1150
 3113TIP3    H230831   3.429   1.720  11.703  1.5466 -1.3048 -0.6129
 3114TIP3   OH230832   6.229   6.140  14.156 -0.2286  0.4629 -0.1580
 3114TIP3    H130833   6.318   6.176  14.152  0.5862 -1.1915  2.1357
 3114TIP3    H230834   6.238   6.051  14.124 -1.0581  0.2944  0.0668
 3115TIP3   OH230835   4.436   2.209  16.937  0.4506  0.2189 -0.1023
 3115TIP3    H130836   4.369   2.257  16.889 -0.3949 -0.2463  0.5850
 3115TIP3    H230837   4.505   2.273  16.954  0.4813  0.5432 -1.3793
 3116TIP3   OH230838   4.596   5.575  11.065  0.1596  0.1279  0.1278
 3116TIP3    H130839   4.544   5.536  10.994  0.8991 -3.1580  1.3088
 3116TIP3    H230840   4.679   5.598  11.023 -0.8014  1.8548 -0.9031
 3117TIP3   OH230841   5.199   5.339  16.185 -0.2707 -0.2083  0.1406
 3117TIP3    H130842   5.114   5.324  16.143 -0.7424  2.8301 -0.0647
 3117TIP3    H230843   5.186   5.308  16.275 -1.6584  0.3617  0.1532
 3118TIP3   OH230844   1.125   5.398  13.574  0.1124  0.4022  0.1395
 3118TIP3    H130845   1.138   5.339  13.500  0.4840  0.0767  0.4552
 3118TIP3    H230846   1.192   5.465  13.562 -0.0748  0.5581 -0.0265
 3119TIP3   OH230847   0.223   6.085  15.675 -0.0177 -0.0018 -0.4302
 3119TIP3    H130848   0.161   6.021  15.640 -0.9858  1.0101 -0.6414
 3119TIP3    H230849   0.170   6.165  15.683  0.9293  0.5142  0.6724
 3120TIP3   OH230850   1.493   5.367   4.611  0.3827  0.2346 -0.3922
 3120TIP3    H130851   1.489   5.276   4.640 -0.0389 -0.2737 -1.9780
 3120TIP3    H230852   1.411   5.381   4.563  0.9955  1.0667 -1.2191
 3121TIP3   OH230853   2.220   3.923   0.345  0.3919  0.4685 -0.5620
 3121TIP3    H130854   2.310   3.927   0.312  0.1709 -0.5391 -1.3241
 3121TIP3    H230855   2.229   3.894   0.436  0.7834 -0.9020 -1.0146
 3122TIP3   OH230856   3.059   1.447   6.058 -0.2227 -0.1268  0.1567
 3122TIP3    H130857   2.976   1.411   6.027  0.4678 -1.1889 -0.4918
 3122TIP3    H230858   3.062   1.424   6.151 -1.0585  0.6995  0.3969
 3123TIP3   OH230859   1.756   3.658   1.080 -0.5153 -0.1715 -0.2851
 3123TIP3    H130860   1.702   3.614   1.014  0.2232 -1.1413 -0.2481
 3123TIP3    H230861   1.816   3.591   1.112 -0.4106  0.4587  0.9022
 3124TIP3   OH230862   6.544   5.574  11.245  0.2331 -0.2605 -0.0595
 3124TIP3    H130863   6.471   5.519  11.220 -0.6753  1.1312 -0.5015
 3124TIP3    H230864   6.592   5.590  11.164 -0.1230  0.4957 -0.1217
 3125TIP3   OH230865   4.122   3.182  12.137  0.0795  0.0427 -0.0293
 3125TIP3    H130866   4.083   3.141  12.060  0.4118  1.5722 -1.0344
 3125TIP3    H230867   4.193   3.236  12.102  0.4965  0.4294  1.3902
 3126TIP3   OH230868   1.303   1.724  16.199 -0.0152 -0.5152  0.7705
 3126TIP3    H130869   1.343   1.767  16.123 -2.1274  1.9504  0.9557
 3126TIP3    H230870   1.375   1.712  16.260  1.4636 -1.3004 -1.0642
 3127TIP3   OH230871   4.851   4.292   1.986 -0.3999 -0.0062 -0.2396
 3127TIP3    H130872   4.922   4.346   1.953 -1.5951  1.2438 -0.8472
 3127TIP3    H230873   4.772   4.342   1.967 -1.7311 -2.8705 -2.6777
 3128TIP3   OH230874   3.579   4.714   1.162  0.0092  0.1424  0.5300
 3128TIP3    H130875   3.660   4.704   1.113  0.8816  0.4706  1.8806
 3128TIP3    H230876   3.533   4.786   1.120  0.7339  0.3915  0.1710
 3129TIP3   OH230877   1.559   2.508  12.442  0.0176 -0.0732  0.4314
 3129TIP3    H130878   1.468   2.498  12.415  0.3988 -0.4709 -0.7233
 3129TIP3    H230879   1.608   2.449  12.385  0.8715 -0.8075  1.8780
 3130TIP3   OH230880   4.266   5.841   3.214  0.6210  0.6005  0.1138
 3130TIP3    H130881   4.298   5.815   3.128 -0.6356 -0.2791 -0.0819
 3130TIP3    H230882   4.230   5.762   3.252 -0.9285  1.4831  0.5229
 3131TIP3   OH230883   1.751   1.702  14.500  0.1067  0.2621 -0.1042
 3131TIP3    H130884   1.685   1.661  14.556 -0.2979  1.2233  0.1311
 3131TIP3    H230885   1.809   1.630  14.475  1.8165  0.2625  3.6597
 3132TIP3   OH230886   2.336   4.180   5.412 -0.4657 -0.5513 -0.1575
 3132TIP3    H130887   2.394   4.247   5.449 -0.8318 -0.6004  0.5226
 3132TIP3    H230888   2.263   4.175   5.474 -1.5080 -0.0424 -1.3311
 3133TIP3   OH230889   5.951   3.843  13.334 -0.3384  0.2314  0.3043
 3133TIP3    H130890   5.888   3.777  13.305  0.3076 -0.7943  1.1429
 3133TIP3    H230891   6.016   3.847  13.264 -0.9034  0.6871 -0.1905
 3134TIP3   OH230892   0.428   6.236   1.073  0.7800 -0.7237  0.2688
 3134TIP3    H130893   0.456   6.213   1.162  0.6172 -1.1306  0.2175
 3134TIP3    H230894   0.484   6.183   1.017  0.7180 -0.6453  0.1345
 3135TIP3   OH230895   3.833   6.036  16.718 -0.5561 -0.2984  0.0265
 3135TIP3    H130896   3.809   6.000  16.804 -1.3165  0.1210 -0.0109
 3135TIP3    H230897   3.769   5.999  16.658 -0.6303  0.1996 -0.2019
 3136TIP3   OH230898   1.420   0.327  10.647 -0.2283 -0.1706 -0.2315
 3136TIP3    H130899   1.410   0.354  10.556  1.1996  0.4654 -0.2208
 3136TIP3    H230900   1.441   0.234  10.642  2.3880  0.4075 -0.7306
 3137TIP3   OH230901   5.641   5.741  13.599  0.5238 -0.2922  0.0740
 3137TIP3    H130902   5.615   5.653  13.626  1.0386 -0.4922 -0.0873
 3137TIP3    H230903   5.568   5.772  13.545  0.2739 -0.5598  0.2581
 3138TIP3   OH230904   2.004   3.758  14.668 -0.5201 -0.0963 -0.3177
 3138TIP3    H130905   2.000   3.820  14.595  0.5118  0.2436 -0.0847
 3138TIP3    H230906   1.994   3.672  14.627 -0.9853  0.1566 -0.7460
 3139TIP3   OH230907   1.806   3.045   5.174 -0.3885 -0.1416  0.2152
 3139TIP3    H130908   1.853   2.967   5.146 -2.8818 -2.3473  1.9580
 3139TIP3    H230909   1.716   3.016   5.189 -2.1370  3.7136 -1.9417
 3140TIP3   OH230910   3.019   2.407  11.097 -0.4996 -0.1570  0.0999
 3140TIP3    H130911   3.059   2.333  11.051  0.2547  0.2185  0.1577
 3140TIP3    H230912   2.984   2.462  11.027 -1.4435 -0.7711  0.0687
 3141TIP3   OH230913   0.258   5.901   2.788  0.1864  0.3968  0.2870
 3141TIP3    H130914   0.229   5.966   2.724 -1.2673 -1.8238 -1.3663
 3141TIP3    H230915   0.195   5.909   2.860  0.7699  1.6654  0.6780
 3142TIP3   OH230916   2.766   4.476   2.605  0.9635  0.4707  0.0492
 3142TIP3    H130917   2.826   4.515   2.541  0.3279  1.3424 -0.0273
 3142TIP3    H230918   2.770   4.535   2.680  1.8242 -0.6373  0.8807
 3143TIP3   OH230919   1.498   3.533   4.321  0.2824  0.1945 -0.3776
 3143TIP3    H130920   1.546   3.601   4.274  0.7671  0.1752  0.0825
 3143TIP3    H230921   1.565   3.470   4.347 -0.4382 -1.5816 -2.6718
 3144TIP3   OH230922   4.789   4.362   1.586  0.9691 -0.6050  0.3975
 3144TIP3    H130923   4.703   4.391   1.618  0.2730 -0.5298 -1.4873
 3144TIP3    H230924   4.852   4.410   1.640 -0.1618 -0.3308  1.5012
 3145TIP3   OH230925   3.490   4.547  15.690 -0.7176 -0.8057 -0.0675
 3145TIP3    H130926   3.398   4.559  15.667 -0.3667  2.7398  0.1297
 3145TIP3    H230927   3.504   4.606  15.764  1.4791 -2.0959  0.5756
 3146TIP3   OH230928   6.518   3.680  10.691  1.0323 -0.0082 -0.0012
 3146TIP3    H130929   6.579   3.748  10.661  1.8755 -0.6536  0.2074
 3146TIP3    H230930   6.574   3.616  10.735  0.1203 -0.3457  0.6757
 3147TIP3   OH230931   3.066   0.059   1.467  0.6557 -0.7048  0.1625
 3147TIP3    H130932   3.072   0.154   1.454  0.7713 -0.7691 -0.2484
 3147TIP3    H230933   3.157   0.030   1.476  0.5819 -0.6599  1.1399
 3148TIP3   OH230934   4.829   3.175   1.094 -0.4916 -0.4541  0.3259
 3148TIP3    H130935   4.845   3.214   1.008  1.8256 -0.7893  0.5523
 3148TIP3    H230936   4.749   3.217   1.125 -1.0609  0.0637 -1.7554
 3149TIP3   OH230937   1.507   2.736   2.275  0.6945  0.0811 -0.0058
 3149TIP3    H130938   1.520   2.641   2.277  0.9849  0.1412  2.4394
 3149TIP3    H230939   1.506   2.762   2.367  0.8404  2.4914 -0.6519
 3150TIP3   OH230940   5.767   5.947  17.262 -0.0530  0.7579  0.2626
 3150TIP3    H130941   5.725   6.009  17.321  1.6499  1.5131  0.7140
 3150TIP3    H230942   5.821   6.002  17.205 -1.1151 -0.0143 -1.5657
 3151TIP3   OH230943   5.564   3.039   3.908 -0.4366  0.3879 -0.2426
 3151TIP3    H130944   5.503   3.029   3.835 -0.2831  0.5089 -0.3883
 3151TIP3    H230945   5.509   3.031   3.986 -0.6508  0.5886 -0.3733
 3152TIP3   OH230946   5.648   4.297  11.794  0.3845 -0.0288 -0.4057
 3152TIP3    H130947   5.724   4.332  11.841  0.5780 -0.6071 -0.2843
 3152TIP3    H230948   5.683   4.267  11.710 -0.0306  1.3605 -1.0858
 3153TIP3   OH230949   0.182   4.021   3.198  0.2716 -0.2546  0.2828
 3153TIP3    H130950   0.094   4.010   3.232  0.0678 -0.9042 -0.4464
 3153TIP3    H230951   0.192   4.116   3.188 -0.3360 -0.1807  0.3901
 3154TIP3   OH230952   2.330   2.825  14.688  0.0123 -0.3245  0.7582
 3154TIP3    H130953   2.297   2.751  14.739 -1.0010  1.0541  2.1338
 3154TIP3    H230954   2.257   2.848  14.630 -0.9445  1.7149  2.6930
 3155TIP3   OH230955   5.356   5.085   4.221  0.3002 -0.2291 -0.5718
 3155TIP3    H130956   5.310   5.001   4.225 -0.1187 -0.0080 -0.7101
 3155TIP3    H230957   5.436   5.067   4.171  0.1168 -0.5010 -0.7632
 3156TIP3   OH230958   0.592   2.779   3.885  0.4859 -0.1670 -0.5741
 3156TIP3    H130959   0.633   2.864   3.903  1.6493 -0.9295  0.4811
 3156TIP3    H230960   0.498   2.797   3.887  0.7366  1.2212 -0.9851
 3157TIP3   OH230961   0.851   1.973  13.836  0.1310 -0.2344 -0.1554
 3157TIP3    H130962   0.907   1.912  13.883 -0.1573  1.4433  2.4568
 3157TIP3    H230963   0.772   1.980  13.890 -0.9717  0.3811 -1.8115
 3158TIP3   OH230964   0.387   0.898   6.170 -0.0492  0.7774 -0.0221
 3158TIP3    H130965   0.388   0.963   6.100  0.2024 -1.1580 -1.8881
 3158TIP3    H230966   0.474   0.857   6.166 -0.7270 -0.7029  0.1056
 3159TIP3   OH230967   2.272   5.309   3.400 -0.2118  0.2361 -0.3165
 3159TIP3    H130968   2.301   5.251   3.330  0.1509 -0.5703  0.5025
 3159TIP3    H230969   2.321   5.281   3.477  0.3008  1.9093 -0.0043
 3160TIP3   OH230970   5.100   2.986   5.171  0.2518  0.4576  0.4003
 3160TIP3    H130971   5.102   3.072   5.129 -0.7035 -0.0353 -0.6931
 3160TIP3    H230972   5.122   2.925   5.101 -0.5767 -0.3078  0.7954
 3161TIP3   OH230973   3.748   4.867   2.670 -0.2500  0.4658  0.0577
 3161TIP3    H130974   3.675   4.852   2.610 -0.3297  1.7745 -0.2000
 3161TIP3    H230975   3.745   4.961   2.686  1.1183  0.4528  0.3863
 3162TIP3   OH230976   2.886   2.601   2.204 -0.4593 -0.5611 -0.1843
 3162TIP3    H130977   2.889   2.537   2.275 -0.5468 -1.6382 -1.1481
 3162TIP3    H230978   2.821   2.567   2.143 -1.8471  1.3805  0.1670
 3163TIP3   OH230979   0.100   0.853  12.048 -0.1233  0.3956  0.1577
 3163TIP3    H130980   0.153   0.779  12.080  1.6840  1.0607 -1.2330
 3163TIP3    H230981   0.097   0.914  12.122  0.0719 -0.1648  0.6319
 3164TIP3   OH230982   4.859   6.621  15.307  0.0123 -0.0421 -0.2678
 3164TIP3    H130983   4.868   6.679  15.383  2.2571 -0.2986 -0.3151
 3164TIP3    H230984   4.788   6.660  15.256 -2.9233 -0.9721  2.9018
 3165TIP3   OH230985   1.624   0.468   0.452 -1.1281  0.2349 -0.4471
 3165TIP3    H130986   1.592   0.554   0.479 -0.2553 -0.1070  1.7958
 3165TIP3    H230987   1.604   0.463   0.359  0.5494  3.6332 -1.0406
 3166TIP3   OH230988   3.083   1.837  15.737  0.3561  0.4428  0.2408
 3166TIP3    H130989   3.072   1.923  15.696 -0.0385 -0.3278 -1.2924
 3166TIP3    H230990   3.096   1.777  15.663 -1.3724 -1.1257  1.1791
 3167TIP3   OH230991   6.549   6.553   5.763  0.0280  0.3428 -0.0945
 3167TIP3    H130992   6.564   6.545   5.669  2.1902  0.0802  0.2274
 3167TIP3    H230993   6.554   6.464   5.796  2.8942  0.7364  0.7047
 3168TIP3   OH230994   4.192   2.521   3.085  0.3053  0.0155  0.7080
 3168TIP3    H130995   4.202   2.611   3.054  0.9061 -0.2642  0.0773
 3168TIP3    H230996   4.178   2.470   3.005  1.7932 -0.7021  0.8986
 3169TIP3   OH230997   6.605   0.047   2.417 -0.7464 -0.2125  0.3509
 3169TIP3    H130998   6.527   0.081   2.460 -0.3340 -1.0375  1.7904
 3169TIP3    H230999   6.572   0.004   2.338 -1.6702  0.0176  0.6096
 3170TIP3   OH231000   1.669   1.328   5.684  0.2823 -0.2340  0.3113
 3170TIP3    H131001   1.691   1.295   5.597  0.4520 -0.1054  0.3062
 3170TIP3    H231002   1.682   1.253   5.742 -0.0101 -0.3723  0.1997
 3171TIP3   OH231003   4.903   5.506  15.393  0.3238  0.0340  0.2095
 3171TIP3    H131004   4.946   5.537  15.473 -0.0184  2.2785 -0.4531
 3171TIP3    H231005   4.818   5.549  15.393  0.0669 -0.4610 -1.0388
 3172TIP3   OH231006   4.000   3.583  16.093 -0.0945  0.4158 -0.2322
 3172TIP3    H131007   3.961   3.586  16.181  0.0668 -0.2954 -0.1377
 3172TIP3    H231008   4.089   3.615  16.105  0.9711 -2.5984  0.4412
 3173TIP3   OH231009   1.927   1.774   1.129  0.0722  0.1183 -0.1407
 3173TIP3    H131010   2.000   1.774   1.067 -1.1458 -1.5862 -1.6422
 3173TIP3    H231011   1.888   1.861   1.121  1.1255  0.5715 -0.3257
 3174TIP3   OH231012   2.572   2.576  14.657  0.0545  0.2149 -0.3795
 3174TIP3    H131013   2.647   2.517  14.653  0.3079  0.6242 -2.1142
 3174TIP3    H231014   2.577   2.616  14.744  1.2835 -0.4865 -0.1182
 3175TIP3   OH231015   0.157   5.819   3.074 -0.3411  0.4190  0.3165
 3175TIP3    H131016   0.103   5.787   3.002 -0.3848  0.5311  0.2980
 3175TIP3    H231017   0.189   5.740   3.117  2.0361  0.3276 -1.5406
 3176TIP3   OH231018   2.802   3.522  14.750  1.2025 -0.2530 -0.1105
 3176TIP3    H131019   2.792   3.605  14.704  0.6692  0.4167  1.1866
 3176TIP3    H231020   2.879   3.535  14.806  0.3813 -0.1896  1.0146
 3177TIP3   OH231021   2.280   3.916   1.322 -0.5396 -0.0691  0.1236
 3177TIP3    H131022   2.217   3.844   1.321 -2.3167  1.4185  1.5803
 3177TIP3    H231023   2.319   3.914   1.409 -0.6403  0.7571  0.1985
 3178TIP3   OH231024   6.419   2.268   6.551  0.0304 -0.4211  0.4105
 3178TIP3    H131025   6.462   2.204   6.608  2.1841 -0.3560 -1.0528
 3178TIP3    H231026   6.435   2.352   6.595  2.3039 -0.2904 -0.5896
 3179TIP3   OH231027   1.152   3.646   5.010 -0.1909  0.1186  0.0206
 3179TIP3    H131028   1.110   3.726   4.977  0.6994  0.8964  0.7361
 3179TIP3    H231029   1.085   3.604   5.063 -0.7300  0.2978 -0.5171
 3180TIP3   OH231030   2.324   0.213  15.557  0.3378  0.6379 -0.1022
 3180TIP3    H131031   2.332   0.164  15.475 -0.4406 -1.8209  1.2590
 3180TIP3    H231032   2.233   0.240  15.560  0.6638  1.8422 -0.6363
 3181TIP3   OH231033   3.984   5.488   1.938  0.8917  0.0005 -0.1170
 3181TIP3    H131034   3.952   5.524   2.021 -0.2817  0.3246 -0.6934
 3181TIP3    H231035   3.993   5.394   1.954 -2.0474 -0.3989 -0.4176
 3182TIP3   OH231036   3.306   0.968   2.191  0.3461 -0.4792  0.3478
 3182TIP3    H131037   3.255   1.046   2.212  0.8060 -0.0750 -0.0034
 3182TIP3    H231038   3.397   1.000   2.185  0.4249 -0.8637 -0.6817
 3183TIP3   OH231039   1.464   6.678  15.795 -0.0112  0.6156  0.0556
 3183TIP3    H131040   1.466   6.604  15.856 -1.7718  1.9395  1.7404
 3183TIP3    H231041   1.451   6.637  15.709 -0.4899 -1.0617  0.9077
 3184TIP3   OH231042   3.650   3.935   5.958 -0.2527  0.2928 -0.0112
 3184TIP3    H131043   3.666   3.961   6.049  0.4020 -0.0443 -0.0295
 3184TIP3    H231044   3.618   3.844   5.965 -0.2007  0.2663 -0.1199
 3185TIP3   OH231045   5.606   0.452   0.887  0.3029  0.1392  1.0341
 3185TIP3    H131046   5.631   0.529   0.836 -2.0224  0.2799  0.0412
 3185TIP3    H231047   5.636   0.378   0.835 -0.1303  0.3278  0.5107
 3186TIP3   OH231048   2.821   2.117   0.216  0.1810  0.1536 -0.4358
 3186TIP3    H131049   2.752   2.054   0.236  0.3767 -0.3015 -1.1624
 3186TIP3    H231050   2.806   2.190   0.276 -1.1282  0.2013 -0.8264
 3187TIP3   OH231051   6.781   5.146   2.333 -0.9280  0.3737  0.3032
 3187TIP3    H131052   6.829   5.147   2.416 -0.4975 -0.4879  0.0802
 3187TIP3    H231053   6.819   5.072   2.286  0.1576  1.9893 -1.4391
 3188TIP3   OH231054   4.166   6.684   4.620 -0.3717  0.5539  0.5142
 3188TIP3    H131055   4.261   6.693   4.627 -0.0459  0.0193 -2.4601
 3188TIP3    H231056   4.135   6.773   4.600 -0.5011  0.7167  1.4213
 3189TIP3   OH231057   1.000   0.643   0.128  0.4880  0.0781 -0.3936
 3189TIP3    H131058   1.011   0.548   0.122  1.6802 -0.0644  3.0150
 3189TIP3    H231059   1.080   0.674   0.169 -0.4747  2.4228 -0.2149
 3190TIP3   OH231060   1.213   2.073  12.251 -0.3760  0.0268 -0.1206
 3190TIP3    H131061   1.223   2.074  12.346  0.2817  0.7973 -0.1892
 3190TIP3    H231062   1.155   2.147  12.231 -0.4737 -0.1022 -0.3210
 3191TIP3   OH231063   2.343   0.403  14.738  0.3420 -0.4629  0.5148
 3191TIP3    H131064   2.411   0.336  14.728  1.5157  0.7391  0.2558
 3191TIP3    H231065   2.295   0.401  14.655  0.1540 -1.2087  0.6390
 3192TIP3   OH231066   5.898   2.094  12.248  0.0700 -0.6257  0.2907
 3192TIP3    H131067   5.989   2.113  12.271  0.2978 -0.0766 -1.0765
 3192TIP3    H231068   5.898   2.085  12.153 -1.1784 -1.3232  0.3449
 3193TIP3   OH231069   3.035   2.610   1.417 -0.3782 -0.4877  0.3127
 3193TIP3    H131070   3.097   2.543   1.386  0.4909  0.5161 -0.1319
 3193TIP3    H231071   3.029   2.595   1.511  1.1557 -0.0926  0.4812
 3194TIP3   OH231072   2.483   3.800  15.620 -0.0287 -0.6190  0.9195
 3194TIP3    H131073   2.574   3.770  15.632  0.2005 -0.6904 -0.8057
 3194TIP3    H231074   2.430   3.732  15.662  0.6779 -1.0473  1.1347
 3195TIP3   OH231075   1.467   0.791  12.038 -0.2958 -0.3161 -0.5791
 3195TIP3    H131076   1.530   0.721  12.022 -0.6612 -0.3370 -2.0353
 3195TIP3    H231077   1.514   0.855  12.091  0.1221 -1.5405  0.5394
 3196TIP3   OH231078   5.197   0.546   2.362  0.3059 -0.2335  0.5845
 3196TIP3    H131079   5.292   0.544   2.366  0.3521  1.0349  0.4348
 3196TIP3    H231080   5.175   0.502   2.280  0.7526 -0.5592  0.6362
 3197TIP3   OH231081   1.481   6.182   4.978  0.0367 -0.1595 -0.2594
 3197TIP3    H131082   1.513   6.119   4.913  0.3268 -0.7257  0.4311
 3197TIP3    H231083   1.386   6.184   4.964  0.1656  0.1837 -1.1107
 3198TIP3   OH231084   3.672   3.947  13.313  0.3348 -0.5531 -0.6569
 3198TIP3    H131085   3.584   3.985  13.310  0.5573  0.2518  1.9837
 3198TIP3    H231086   3.659   3.859  13.348  0.7203  0.1406  1.2986
 3199TIP3   OH231087   6.149   3.517  12.037  1.1052 -0.2931  0.1977
 3199TIP3    H131088   6.105   3.473  11.965 -1.2832 -0.1592  1.5283
 3199TIP3    H231089   6.205   3.450  12.076  0.4838 -1.0593 -0.2107
 3200TIP3   OH231090   5.857   2.579  16.818  0.8047 -0.1239  0.3830
 3200TIP3    H131091   5.921   2.648  16.835  1.4834 -0.5883 -0.2697
 3200TIP3    H231092   5.895   2.527  16.747  0.0820 -0.8912  0.5448
 3201TIP3   OH231093   0.140   1.273  12.468  0.2572  0.4455  0.9169
 3201TIP3    H131094   0.063   1.256  12.415  0.4021 -0.4641  0.9900
 3201TIP3    H231095   0.115   1.248  12.557  0.3832  0.8960  1.0859
 3202TIP3   OH231096   2.247   6.817   3.866  0.2083  0.2490  0.0108
 3202TIP3    H131097   2.330   6.771   3.876  0.0648  0.0057  0.1040
 3202TIP3    H231098   2.214   6.787   3.781 -0.0332 -0.0624  0.2127
 3203TIP3   OH231099   2.582   3.943  16.493  0.0032  0.0874  0.0764
 3203TIP3    H131100   2.503   3.897  16.464 -0.5862  0.5651  0.9016
 3203TIP3    H231101   2.589   4.018  16.434 -0.4965  0.3661  0.3638
 3204TIP3   OH231102   0.787   2.484  13.859 -0.0828 -0.0196 -0.6270
 3204TIP3    H131103   0.839   2.539  13.800 -0.1955  0.3508 -0.3847
 3204TIP3    H231104   0.787   2.397  13.818  0.9704 -0.0935 -0.4858
 3205TIP3   OH231105   6.752   1.103  14.251  0.3080  0.1183 -0.0309
 3205TIP3    H131106   6.701   1.160  14.309 -1.1057 -0.6771 -0.4864
 3205TIP3    H231107   6.799   1.045  14.311 -2.0059 -1.4403  0.3347
 3206TIP3   OH231108   2.603   0.471  11.950 -1.0266 -0.2391  1.0895
 3206TIP3    H131109   2.625   0.545  11.893 -0.7792 -0.6486  0.6429
 3206TIP3    H231110   2.647   0.396  11.909  1.2395 -0.1210  3.1662
 3207TIP3   OH231111   3.982   6.240   3.904  0.4890  0.1061  0.3843
 3207TIP3    H131112   3.987   6.158   3.953 -0.0023  0.5282  1.1688
 3207TIP3    H231113   4.017   6.220   3.818  3.4617 -0.1567  1.5730
 3208TIP3   OH231114   5.019   1.940   0.382 -0.4585  0.4144 -0.3149
 3208TIP3    H131115   5.060   1.908   0.462  1.6081  0.9826 -1.1213
 3208TIP3    H231116   4.947   1.879   0.366 -0.7586  0.1793  1.8432
 3209TIP3   OH231117   4.734   5.798   3.401 -0.1508 -0.1077  0.6397
 3209TIP3    H131118   4.804   5.862   3.392  0.0592 -0.4844 -0.3989
 3209TIP3    H231119   4.692   5.795   3.315  1.0758 -2.7973  0.1002
 3210TIP3   OH231120   5.181   3.754  16.727 -0.2399  0.5234 -0.2485
 3210TIP3    H131121   5.194   3.719  16.639 -1.1691  0.4523 -0.3651
 3210TIP3    H231122   5.091   3.787  16.727 -0.0038  1.1979  0.4454
 3211TIP3   OH231123   2.788   3.070  13.474 -0.1041 -0.2255 -0.5024
 3211TIP3    H131124   2.776   3.023  13.556 -0.8149  0.0351 -0.4547
 3211TIP3    H231125   2.771   3.162  13.496 -0.1454 -0.1341 -0.9075
 3212TIP3   OH231126   6.075   4.233   1.274  0.8728  0.3500 -0.4285
 3212TIP3    H131127   6.133   4.305   1.298  1.4151 -0.1092 -0.3771
 3212TIP3    H231128   6.003   4.238   1.337  0.9432  0.7952 -0.3787
 3213TIP3   OH231129   5.780   4.422  15.233  0.2697  0.5306  0.3302
 3213TIP3    H131130   5.867   4.384  15.225 -0.0238  0.2397 -2.0921
 3213TIP3    H231131   5.757   4.414  15.325  2.6431  0.2643  0.9150
 3214TIP3   OH231132   2.630   3.267   5.226  0.0817  0.3733  0.5820
 3214TIP3    H131133   2.709   3.246   5.176  0.5922  1.9787  0.6842
 3214TIP3    H231134   2.638   3.218   5.307  1.5517  1.4321  1.0930
 3215TIP3   OH231135   5.579   0.656  15.762 -0.1201  0.1581  0.4117
 3215TIP3    H131136   5.646   0.707  15.809 -0.7655 -0.8944  2.5485
 3215TIP3    H231137   5.507   0.717  15.749 -0.7088 -0.0367  2.5639
 3216TIP3   OH231138   6.143   0.258   5.586 -0.1068 -0.1260  0.3091
 3216TIP3    H131139   6.138   0.325   5.519  1.5762  0.0350  0.3104
 3216TIP3    H231140   6.167   0.178   5.539  2.2523  0.2382  0.8216
 3217TIP3   OH231141   4.792   6.706  17.126  0.2909  0.2754 -0.6536
 3217TIP3    H131142   4.883   6.681  17.144 -0.3567  0.0575  2.6380
 3217TIP3    H231143   4.769   6.657  17.048  1.8771 -2.5705  0.5780
 3218TIP3   OH231144   0.684   2.520  13.136  0.0669 -0.2326  0.1755
 3218TIP3    H131145   0.648   2.444  13.090 -1.6191  0.9770 -0.5330
 3218TIP3    H231146   0.686   2.494  13.228 -0.7193 -1.0573 -0.0314
 3219TIP3   OH231147   6.040   4.156   6.006 -0.4266  0.7405 -0.1027
 3219TIP3    H131148   5.993   4.203   6.075 -0.7957  0.7716 -0.3722
 3219TIP3    H231149   6.078   4.080   6.051 -0.6236  0.7843  0.1430
 3220TIP3   OH231150   3.520   4.491   1.608 -0.4330 -0.1807 -0.2776
 3220TIP3    H131151   3.571   4.522   1.682  1.1455  0.9202 -1.7824
 3220TIP3    H231152   3.483   4.570   1.569 -2.6214 -0.9032  0.3111
 3221TIP3   OH231153   3.605   3.779  14.522  0.0144  0.6378  0.1573
 3221TIP3    H131154   3.645   3.798  14.607 -0.4705 -0.4144  0.6318
 3221TIP3    H231155   3.573   3.689  14.530  2.0879 -0.3167 -1.9910
 3222TIP3   OH231156   4.608   4.821   6.149 -0.2932  0.1935  0.3316
 3222TIP3    H131157   4.555   4.892   6.185 -0.2200  0.5850 -0.3250
 3222TIP3    H231158   4.679   4.809   6.212 -1.7872 -1.1216  1.8327
 3223TIP3   OH231159   4.262   5.205  12.060 -0.3508 -0.0961 -0.2050
 3223TIP3    H131160   4.167   5.216  12.074 -0.1695  1.5694 -0.0806
 3223TIP3    H231161   4.268   5.152  11.981 -1.3970 -1.0325  0.3311
 3224TIP3   OH231162   3.346   5.801  15.986 -0.2708  0.8109 -0.0352
 3224TIP3    H131163   3.330   5.867  16.053  0.9260 -1.4269  2.5461
 3224TIP3    H231164   3.274   5.739  15.995  0.1330  0.2605 -0.5231
 3225TIP3   OH231165   5.098   3.709  14.231 -0.5644 -0.1678  0.0181
 3225TIP3    H131166   5.130   3.706  14.141 -1.4342 -1.5802 -0.2516
 3225TIP3    H231167   5.009   3.675  14.226 -0.7059 -0.0250  1.3832
 3226TIP3   OH231168   3.447   0.832   4.099 -0.1379 -0.3367  0.7195
 3226TIP3    H131169   3.503   0.858   4.025  0.8906  1.2150  2.0071
 3226TIP3    H231170   3.428   0.739   4.083 -0.1089  0.0249 -1.5944
 3227TIP3   OH231171   0.986   1.733  12.646 -0.3790 -0.0995  0.5147
 3227TIP3    H131172   0.940   1.736  12.729 -0.0351 -1.0663  0.7555
 3227TIP3    H231173   0.939   1.666  12.595 -1.6951  1.7601 -0.7552
 3228TIP3   OH231174   0.805   1.359  11.358 -0.2208  0.0880  0.6190
 3228TIP3    H131175   0.788   1.452  11.343 -0.5329  0.1243  1.1570
 3228TIP3    H231176   0.892   1.344  11.321 -0.7495  0.2708 -0.7167
 3229TIP3   OH231177   0.934   1.943  13.115  0.4476  0.0661 -0.4507
 3229TIP3    H131178   0.910   1.930  13.206 -1.2343  0.2993 -0.8481
 3229TIP3    H231179   1.027   1.966  13.118  0.5959 -0.6654  1.1334
 3230TIP3   OH231180   0.104   4.697   5.840 -0.1039 -0.4252 -0.0841
 3230TIP3    H131181   0.082   4.782   5.877 -0.5327 -1.3179  1.7632
 3230TIP3    H231182   0.100   4.710   5.745 -2.2958  1.0387  0.1845
 3231TIP3   OH231183   6.487   5.164  16.440  0.2803 -0.2619  0.2122
 3231TIP3    H131184   6.485   5.252  16.404 -1.4561 -0.3956 -0.0933
 3231TIP3    H231185   6.466   5.107  16.366 -1.0906 -0.7177  0.9206
 3232TIP3   OH231186   5.232   4.062  13.878  0.1571  0.2269  0.7862
 3232TIP3    H131187   5.326   4.045  13.885  0.6868  2.0511 -1.3265
 3232TIP3    H231188   5.219   4.144  13.925 -0.2920  0.2638  0.5988
 3233TIP3   OH231189   2.125   5.151  11.798  0.2216 -0.0570  0.1122
 3233TIP3    H131190   2.211   5.110  11.812 -0.0568 -1.7526 -2.6731
 3233TIP3    H231191   2.064   5.095  11.846  0.3852 -0.3286  0.0088
 3234TIP3   OH231192   3.671   6.264  16.629 -0.2832  0.3874  0.3433
 3234TIP3    H131193   3.707   6.335  16.683  1.2815 -1.7587  2.2324
 3234TIP3    H231194   3.694   6.184  16.677 -0.2968 -1.5173 -2.7314
 3235TIP3   OH231195   6.644   6.425   4.622 -0.6963  0.1574  0.0701
 3235TIP3    H131196   6.709   6.444   4.555 -0.6104  0.3420  0.2034
 3235TIP3    H231197   6.560   6.422   4.575 -0.4551 -1.2592 -0.2866
 3236TIP3   OH231198   0.624   3.677  12.743 -0.1598  0.6998  0.7921
 3236TIP3    H131199   0.677   3.639  12.673  0.9944  0.6440  1.6838
 3236TIP3    H231200   0.666   3.647  12.824 -2.4924 -0.7046  1.5495
 3237TIP3   OH231201   5.880   0.264  11.716  0.2993 -0.2449  0.1750
 3237TIP3    H131202   5.855   0.174  11.697  0.9204 -0.5778  0.9046
 3237TIP3    H231203   5.975   0.262  11.725  0.2599  0.3539  0.8172
 3238TIP3   OH231204   1.561   1.359  16.604 -0.8591 -0.1412  0.5661
 3238TIP3    H131205   1.646   1.386  16.568  0.1409 -1.1816  2.0745
 3238TIP3    H231206   1.497   1.395  16.543  0.6517  0.8926 -0.4613
 3239TIP3   OH231207   5.116   4.349   4.824  0.5590 -0.1830  0.0482
 3239TIP3    H131208   5.026   4.335   4.796  0.9416  0.2381 -1.4048
 3239TIP3    H231209   5.122   4.443   4.843  0.8582 -0.1013 -0.4462
 3240TIP3   OH231210   2.837   4.534   3.697  0.5186 -0.4792  0.3292
 3240TIP3    H131211   2.817   4.443   3.719  0.8913 -0.5721  0.2708
 3240TIP3    H231212   2.879   4.569   3.776  0.9931 -0.5463  0.1071
 3241TIP3   OH231213   0.504   0.302  14.641  0.2856 -0.2457 -0.9596
 3241TIP3    H131214   0.485   0.311  14.548  0.7296  0.1799 -1.0123
 3241TIP3    H231215   0.584   0.249  14.645 -0.3054 -1.1440 -0.7765
 3242TIP3   OH231216   1.621   2.370   5.325 -0.8314  0.2124 -0.0170
 3242TIP3    H131217   1.701   2.375   5.378 -0.2303 -0.3107 -0.8483
 3242TIP3    H231218   1.560   2.318   5.377 -0.4732  0.2458  0.4364
 3243TIP3   OH231219   6.327   6.452   6.095 -0.0468 -0.1810  0.1288
 3243TIP3    H131220   6.320   6.498   6.011  0.2495 -0.6692 -0.1720
 3243TIP3    H231221   6.335   6.360   6.070  2.1907 -0.1569  0.5831
 3244TIP3   OH231222   4.013   1.790  15.210  0.1624 -0.3423 -0.1181
 3244TIP3    H131223   4.047   1.877  15.229  0.9502 -0.4393 -1.0724
 3244TIP3    H231224   4.052   1.766  15.126 -1.6899 -0.7610 -0.8967
 3245TIP3   OH231225   1.836   2.965  13.947  0.6733  0.1693 -0.2263
 3245TIP3    H131226   1.905   3.001  13.891 -0.7353  1.7519 -0.9827
 3245TIP3    H231227   1.824   2.875  13.917  0.6020  0.7055 -1.8427
 3246TIP3   OH231228   2.172   0.186   4.031 -0.3340 -0.7691  0.0712
 3246TIP3    H131229   2.189   0.136   3.951  0.3315 -0.9274  0.3080
 3246TIP3    H231230   2.132   0.123   4.091 -2.7270 -0.1516 -0.8334
 3247TIP3   OH231231   4.134   1.437   3.468  0.1948  0.1405 -0.1059
 3247TIP3    H131232   4.044   1.430   3.500 -0.5385  3.8294 -1.0970
 3247TIP3    H231233   4.146   1.361   3.412 -0.7312 -2.8519  3.5653
 3248TIP3   OH231234   2.570   4.992  12.420 -0.4466 -0.3205  0.1120
 3248TIP3    H131235   2.624   4.984  12.498  0.5049 -0.4548 -0.5438
 3248TIP3    H231236   2.579   5.084  12.394 -0.5691 -0.3351  0.0165
 3249TIP3   OH231237   1.469   3.653   3.836  0.1779  0.8595 -0.3166
 3249TIP3    H131238   1.550   3.692   3.869  1.0147 -0.2097 -1.0724
 3249TIP3    H231239   1.400   3.689   3.892  1.4641 -0.2562  2.0783
 3250TIP3   OH231240   6.554   5.697   0.371 -0.4533 -0.4844  0.0876
 3250TIP3    H131241   6.576   5.715   0.279 -0.3577 -1.4793 -0.0820
 3250TIP3    H231242   6.461   5.677   0.370 -0.7305  0.7409  0.3900
 3251TIP3   OH231243   3.323   0.806   2.831  0.3716  0.0055 -0.4032
 3251TIP3    H131244   3.395   0.864   2.806 -1.6353  1.8345 -2.1281
 3251TIP3    H231245   3.334   0.793   2.925  2.8839  0.3236 -0.6144
 3252TIP3   OH231246   0.025   4.743   6.699  0.0861  0.5397 -0.1563
 3252TIP3    H131247   0.072   4.821   6.726 -1.1900  1.3784 -0.3182
 3252TIP3    H231248   0.041   4.736   6.605  2.0291 -0.6714  0.2329
 3253TIP3   OH231249   1.114   1.236   5.024 -0.0756  0.4732  0.0587
 3253TIP3    H131250   1.180   1.272   5.083  0.1701  0.4981 -0.2279
 3253TIP3    H231251   1.136   1.272   4.938 -0.2333  0.1771 -0.1092
 3254TIP3   OH231252   6.107   0.730   4.682  0.5915  0.1137 -0.7442
 3254TIP3    H131253   6.149   0.816   4.670  1.4087 -0.0488  0.7649
 3254TIP3    H231254   6.140   0.700   4.767  0.0322 -1.5422 -1.1099
 3255TIP3   OH231255   4.803   0.029  12.356  0.0682 -0.3493 -0.2822
 3255TIP3    H131256   4.897   0.039  12.362  0.2579 -2.2068  0.1892
 3255TIP3    H231257   4.789  -0.016  12.272 -0.3871 -0.2299 -0.2732
 3256TIP3   OH231258   0.886   4.014   4.490 -0.3207  0.3041  0.3023
 3256TIP3    H131259   0.923   4.050   4.571  0.4699 -2.1274  1.0553
 3256TIP3    H231260   0.961   3.982   4.441 -1.0919 -1.5875  0.3003
 3257TIP3   OH231261   0.519   4.910   0.862 -0.5857  0.1450  0.2075
 3257TIP3    H131262   0.513   4.924   0.957  0.2025  0.6920  0.1836
 3257TIP3    H231263   0.483   4.990   0.824 -0.5928  0.0636  0.0439
 3258TIP3   OH231264   0.639   5.408   6.425  0.4848  0.1018  0.0702
 3258TIP3    H131265   0.725   5.378   6.455  0.2305  0.4888  1.2217
 3258TIP3    H231266   0.658   5.490   6.378  0.5435  1.3616  2.2026
 3259TIP3   OH231267   1.274   6.062   4.086  0.5623  0.5575  0.1850
 3259TIP3    H131268   1.229   5.984   4.119 -1.8584  1.1423 -1.5939
 3259TIP3    H231269   1.366   6.038   4.085 -0.0793 -2.0514  0.2444
 3260TIP3   OH231270   3.424   2.715   4.717 -0.4643 -0.4536 -0.2626
 3260TIP3    H131271   3.390   2.748   4.634  3.2517  0.0587 -1.6743
 3260TIP3    H231272   3.432   2.620   4.703 -0.2378 -0.4214 -0.3570
 3261TIP3   OH231273   6.675   2.066   1.457 -0.9766  0.0594  0.3518
 3261TIP3    H131274   6.621   2.137   1.493 -1.4719  0.2039 -0.6550
 3261TIP3    H231275   6.702   2.098   1.371  0.4752 -0.1444  0.7242
 3262TIP3   OH231276   3.113   2.207  12.264  0.5322  0.3597 -0.0695
 3262TIP3    H131277   3.130   2.179  12.354 -1.1137 -1.1347 -0.1957
 3262TIP3    H231278   3.151   2.295  12.259  1.8961 -0.0975  1.6558
 3263TIP3   OH231279   2.298   1.189  16.794  0.2396 -0.1707 -0.2702
 3263TIP3    H131280   2.324   1.280  16.806  3.0049 -1.2676  2.7730
 3263TIP3    H231281   2.286   1.179  16.700 -2.2741  3.8421 -0.4818
 3264TIP3   OH231282   5.974   0.599  14.188  0.0863 -0.7413 -0.3172
 3264TIP3    H131283   5.943   0.516  14.225 -0.6679 -0.5059 -0.4096
 3264TIP3    H231284   5.894   0.651  14.176  0.4235 -0.4465 -1.3472
 3265TIP3   OH231285   3.230   1.555   3.512  0.0286 -0.0062  0.4487
 3265TIP3    H131286   3.241   1.465   3.543 -2.3708 -0.0768  1.1540
 3265TIP3    H231287   3.199   1.547   3.423 -0.6907  0.1108  0.6857
 3266TIP3   OH231288   6.271   5.146  12.272 -0.0332 -0.0691 -0.0769
 3266TIP3    H131289   6.221   5.094  12.209  0.9360 -0.3578 -0.6235
 3266TIP3    H231290   6.357   5.104  12.274  0.4068  0.8516  0.3055
 3267TIP3   OH231291   6.102   6.584  14.269  0.1478 -0.1420  0.3970
 3267TIP3    H131292   6.191   6.548  14.268  0.2098 -0.0288  1.7612
 3267TIP3    H231293   6.111   6.671  14.307 -0.9898 -1.3780  3.6155
 3268TIP3   OH231294   1.831   0.903  13.589 -0.0120 -0.0968  0.1889
 3268TIP3    H131295   1.870   0.939  13.509 -0.9724 -0.8316 -0.6252
 3268TIP3    H231296   1.886   0.937  13.660  1.6125 -0.4550 -0.8699
 3269TIP3   OH231297   4.691   2.311  12.778  0.1039  0.1161 -0.1776
 3269TIP3    H131298   4.715   2.287  12.867  0.7439  3.0980  0.5331
 3269TIP3    H231299   4.610   2.362  12.788 -0.1541 -0.0403 -1.3607
 3270TIP3   OH231300   1.832   2.384  10.868  0.0562 -0.1184  1.1925
 3270TIP3    H131301   1.756   2.421  10.912  0.0141  2.1334 -0.6180
 3270TIP3    H231302   1.907   2.418  10.918 -0.0488  0.5878  0.8799
 3271TIP3   OH231303   1.845   5.695  15.390  0.4618  0.0663  0.0463
 3271TIP3    H131304   1.872   5.763  15.327 -0.5156  1.7587  1.4265
 3271TIP3    H231305   1.927   5.657  15.420  0.9691 -0.4944 -1.9360
 3272TIP3   OH231306   1.315   3.903  17.145 -0.3597  0.2950 -0.3055
 3272TIP3    H131307   1.364   3.829  17.181 -4.2758 -1.9896  0.6108
 3272TIP3    H231308   1.249   3.923  17.211 -0.7648  3.2005 -1.5122
 3273TIP3   OH231309   0.642   3.857   0.407 -0.6613  0.1866 -0.0267
 3273TIP3    H131310   0.696   3.903   0.342 -0.1491  0.3991  0.5395
 3273TIP3    H231311   0.552   3.870   0.378 -0.4309  0.1806 -0.7574
 3274TIP3   OH231312   1.311   3.567  17.248 -0.3136 -0.2151 -0.1943
 3274TIP3    H131313   1.276   3.568  17.159 -1.3022 -0.1681  0.1861
 3274TIP3    H231314   1.238   3.596  17.303  0.0962 -0.8552  0.7010
 3275TIP3   OH231315   1.675   0.368  14.213  0.4770 -1.0360 -0.0685
 3275TIP3    H131316   1.581   0.349  14.213  0.6355 -1.8479 -0.5642
 3275TIP3    H231317   1.710   0.317  14.287  0.9204 -2.8387 -1.4738
 3276TIP3   OH231318   2.031   3.342   2.791 -1.1656  0.2473  0.0745
 3276TIP3    H131319   2.001   3.341   2.882 -1.8943  1.5884 -0.1283
 3276TIP3    H231320   1.993   3.423   2.755 -2.3472 -1.1663 -1.9156
 3277TIP3   OH231321   2.101   6.506   1.296  0.1693  0.5967 -0.1840
 3277TIP3    H131322   2.181   6.555   1.314  0.5775  0.6549 -2.0856
 3277TIP3    H231323   2.126   6.441   1.231 -1.3619  0.7931 -1.0075
 3278TIP3   OH231324   0.668   5.162  12.324  0.0756 -0.2468  0.3142
 3278TIP3    H131325   0.694   5.103  12.253  1.8485  1.6485 -0.7091
 3278TIP3    H231326   0.586   5.201  12.294 -0.5806 -1.4324  0.5446
 3279TIP3   OH231327   2.523   0.107  11.989 -0.0839  0.5078 -0.5620
 3279TIP3    H131328   2.445   0.148  11.950 -0.9012 -0.1653  0.3149
 3279TIP3    H231329   2.504   0.107  12.083  1.5241  1.4370 -0.2284
 3280TIP3   OH231330   5.027   5.376   4.552 -0.0620  0.5030 -0.1147
 3280TIP3    H131331   5.041   5.468   4.576 -1.2814  0.5926  0.2820
 3280TIP3    H231332   5.021   5.331   4.636 -0.4051  0.2112 -0.2964
 3281TIP3   OH231333   0.917   1.244   0.837  0.4678  0.2070 -0.4195
 3281TIP3    H131334   0.882   1.333   0.847  0.6028  0.4076 -1.6770
 3281TIP3    H231335   0.856   1.200   0.778 -0.0462 -0.7979  0.8418
 3282TIP3   OH231336   0.253   6.001   4.166  0.3696 -0.1224  0.5709
 3282TIP3    H131337   0.190   6.068   4.193  0.0780 -0.3863  0.5457
 3282TIP3    H231338   0.315   5.995   4.239 -0.2619 -0.6429  1.0635
 3283TIP3   OH231339   2.611   0.935   3.921  0.2222 -0.2910 -0.1596
 3283TIP3    H131340   2.682   0.892   3.969  0.0433  0.6940  1.0092
 3283TIP3    H231341   2.655   0.974   3.845  1.2713  1.6920  1.3889
 3284TIP3   OH231342   0.360   2.433   1.985  0.5787 -0.4377  0.1373
 3284TIP3    H131343   0.371   2.525   2.009 -2.4661  0.0269 -0.0873
 3284TIP3    H231344   0.355   2.433   1.890  0.8338 -0.8582  0.1246
 3285TIP3   OH231345   3.050   1.580  16.498 -0.2994  0.4849 -0.1892
 3285TIP3    H131346   3.136   1.545  16.518 -0.5099 -1.0662 -1.8926
 3285TIP3    H231347   3.059   1.619  16.410 -1.8419 -1.6268 -1.3346
 3286TIP3   OH231348   2.692   1.172  12.461 -0.1792  0.7033  0.3203
 3286TIP3    H131349   2.600   1.165  12.434 -0.4227  1.5836  0.8749
 3286TIP3    H231350   2.719   1.259  12.432  1.1164 -0.3385 -1.6690
 3287TIP3   OH231351   5.335   0.812  14.566  0.2047 -0.2341 -0.1162
 3287TIP3    H131352   5.425   0.834  14.543  0.7127  0.5225  2.4633
 3287TIP3    H231353   5.302   0.889  14.612 -1.9257 -0.3166 -1.4320
 3288TIP3   OH231354   0.147   3.969   1.084  0.0316 -0.2364  0.1942
 3288TIP3    H131355   0.131   4.046   1.030  0.2885 -1.2365 -1.3555
 3288TIP3    H231356   0.086   3.903   1.050 -0.9348 -0.4003  2.1990
 3289TIP3   OH231357   3.233   4.315   1.012 -0.4742  0.1799 -0.6755
 3289TIP3    H131358   3.244   4.398   0.967 -1.1992 -0.7223 -2.5498
 3289TIP3    H231359   3.143   4.318   1.046 -0.1117  0.6303  0.2643
 3290TIP3   OH231360   4.747   5.606   2.803 -0.4952 -0.2396  0.1999
 3290TIP3    H131361   4.671   5.628   2.751  1.7615  3.2933 -1.7730
 3290TIP3    H231362   4.806   5.561   2.742  0.8254  1.0573  0.4841
 3291TIP3   OH231363   6.729   4.349  12.067 -0.1860 -0.3113 -0.5711
 3291TIP3    H131364   6.786   4.329  12.141  0.2570  2.6350 -0.0166
 3291TIP3    H231365   6.783   4.338  11.990  0.6337  0.7564 -0.1584
 3292TIP3   OH231366   2.259   3.097  11.381 -0.4027  0.5241 -0.5736
 3292TIP3    H131367   2.308   3.165  11.335 -0.3675 -0.9266 -2.7568
 3292TIP3    H231368   2.195   3.065  11.316 -1.1990 -0.7074  0.7782
 3293TIP3   OH231369   2.025   4.658  15.612  0.0640 -0.3209  0.0747
 3293TIP3    H131370   2.068   4.617  15.687  0.7750 -0.1633 -0.2408
 3293TIP3    H231371   2.075   4.626  15.536  1.1907  1.8020 -0.1193
 3294TIP3   OH231372   0.434   3.773   3.120  0.4690  0.2746  0.1745
 3294TIP3    H131373   0.382   3.741   3.194 -0.7197  1.0090 -0.3274
 3294TIP3    H231374   0.409   3.715   3.048 -0.9013  1.6487 -0.4735
 3295TIP3   OH231375   2.356   2.043  15.002 -0.1700 -0.1527  0.0344
 3295TIP3    H131376   2.273   1.996  15.002  0.4546 -1.2662 -0.2965
 3295TIP3    H231377   2.402   2.012  15.080  0.2981 -0.1868 -0.2535
 3296TIP3   OH231378   6.606   1.629  13.414  0.7348  0.0017  0.2694
 3296TIP3    H131379   6.516   1.597  13.403  0.0796  1.9165 -0.0474
 3296TIP3    H231380   6.637   1.586  13.494 -0.0190 -1.6429 -0.3031
 3297TIP3   OH231381   4.870   3.787   4.203 -0.0163 -0.2694 -0.0659
 3297TIP3    H131382   4.839   3.836   4.127 -0.2625 -2.3204 -1.3368
 3297TIP3    H231383   4.806   3.805   4.271  0.1742  1.5535 -0.3314
 3298TIP3   OH231384   4.780   5.698  10.631 -0.2955  0.5534 -0.3790
 3298TIP3    H131385   4.718   5.768  10.614 -0.7560 -0.1713 -1.7607
 3298TIP3    H231386   4.759   5.631  10.566 -0.5149 -1.2814  1.5349
 3299TIP3   OH231387   5.397   2.536  12.097 -0.3557 -0.3242 -0.8797
 3299TIP3    H131388   5.397   2.496  12.010 -3.2173  0.6006 -1.3565
 3299TIP3    H231389   5.311   2.515  12.133  0.2941  0.4443  1.2097
 3300TIP3   OH231390   1.521   3.118   2.724  0.2975 -0.1102 -0.4874
 3300TIP3    H131391   1.608   3.148   2.751 -0.4521  1.1760  0.5128
 3300TIP3    H231392   1.507   3.159   2.639  0.9383 -0.8532 -0.9589
 3301TIP3   OH231393   1.317   1.338   0.935 -0.0191  0.0142  0.4889
 3301TIP3    H131394   1.402   1.372   0.962  0.7277 -0.2386 -1.4271
 3301TIP3    H231395   1.337   1.253   0.895 -1.4114 -0.9575  1.7770
 3302TIP3   OH231396   0.229   3.284   2.642 -0.2048  0.1863  0.1366
 3302TIP3    H131397   0.165   3.338   2.596  1.0351  0.9022 -0.7851
 3302TIP3    H231398   0.277   3.240   2.572  0.8955  0.3406  0.7830
 3303TIP3   OH231399   4.421   6.139   2.213  0.0741  0.7750  0.3294
 3303TIP3    H131400   4.492   6.170   2.157 -0.2351  0.5970 -0.1637
 3303TIP3    H231401   4.355   6.106   2.152  0.2064 -0.4323  0.8331
 3304TIP3   OH231402   6.435   2.059   5.256  0.1378 -0.4885  0.1237
 3304TIP3    H131403   6.525   2.080   5.231  0.0181 -0.6476 -0.4323
 3304TIP3    H231404   6.386   2.140   5.242  0.1100 -0.5203  0.0425
 3305TIP3   OH231405   5.535   3.694   3.258  0.3059  0.1796  0.1764
 3305TIP3    H131406   5.476   3.666   3.189 -0.9025 -1.3605  1.7940
 3305TIP3    H231407   5.477   3.732   3.325  1.5820  3.1328 -0.3207
 3306TIP3   OH231408   1.256   4.387   0.712 -0.3879  0.4132  0.4540
 3306TIP3    H131409   1.188   4.366   0.648  1.5766 -0.0362 -1.5223
 3306TIP3    H231410   1.302   4.462   0.675  0.9743 -0.0563  1.1607
 3307TIP3   OH231411   1.217   4.788   0.559  0.3125  0.6799 -0.0495
 3307TIP3    H131412   1.305   4.753   0.555 -0.3601 -1.1295  0.3759
 3307TIP3    H231413   1.211   4.848   0.485  1.7625  0.5240 -0.3057
 3308TIP3   OH231414   0.308   0.863   1.067 -0.4710 -0.1461  0.4092
 3308TIP3    H131415   0.245   0.861   0.996 -0.4301 -2.0028  0.4012
 3308TIP3    H231416   0.352   0.948   1.058 -3.8983  1.8396  1.3044
 3309TIP3   OH231417   1.625   6.215  12.445  0.3925  0.1413  0.0791
 3309TIP3    H131418   1.617   6.123  12.423  1.0034  0.1951 -0.3629
 3309TIP3    H231419   1.691   6.218  12.514 -0.7698  0.0848  1.2191
 3310TIP3   OH231420   4.690   5.056   2.643  0.1374 -0.2480  0.3819
 3310TIP3    H131421   4.768   5.005   2.620 -2.6281 -3.4039 -2.4691
 3310TIP3    H231422   4.662   5.021   2.728  1.5233  0.6098  1.2133
 3311TIP3   OH231423   0.580   0.595   5.240 -0.2539  0.3069 -0.0960
 3311TIP3    H131424   0.603   0.503   5.246 -0.2281  0.3905  1.2043
 3311TIP3    H231425   0.664   0.640   5.227 -0.2235  0.1896 -0.3122
 3312TIP3   OH231426   0.575   1.245   6.209 -0.1978 -0.1308 -0.0835
 3312TIP3    H131427   0.660   1.219   6.243  0.7344  0.5575 -1.8237
 3312TIP3    H231428   0.566   1.198   6.126 -1.9461 -0.9544  0.5505
 3313TIP3   OH231429   5.071   1.074  14.512  0.9176  0.4368  0.1076
 3313TIP3    H131430   5.091   1.164  14.487 -0.6209  0.7171 -0.1850
 3313TIP3    H231431   5.098   1.021  14.437 -0.3721  0.9097 -0.7053
 3314TIP3   OH231432   3.626   0.056   5.799 -0.5404  0.1163 -0.5231
 3314TIP3    H131433   3.694   0.113   5.764  0.5826 -1.4385 -0.9094
 3314TIP3    H231434   3.599   0.099   5.881  0.9960  0.6722 -0.2917
 3315TIP3   OH231435   5.777   4.708   4.476  0.4817  0.7774  0.5540
 3315TIP3    H131436   5.795   4.687   4.384 -0.8243  0.4352  0.3653
 3315TIP3    H231437   5.800   4.628   4.524 -0.3866  0.3738  0.3227
 3316TIP3   OH231438   2.771   4.429  15.536 -0.6259 -0.2690  0.1617
 3316TIP3    H131439   2.785   4.500  15.475  1.2645 -0.3339  0.5121
 3316TIP3    H231440   2.820   4.355  15.501 -1.4575 -1.0122  0.5145
 3317TIP3   OH231441   2.293   0.346  16.016 -0.3116  0.1368 -0.1060
 3317TIP3    H131442   2.232   0.389  16.077 -2.1467 -0.9960 -1.1027
 3317TIP3    H231443   2.321   0.417  15.957 -0.8948  0.6203  0.1859
 3318TIP3   OH231444   6.728   4.521  13.829 -0.2015  0.0841 -0.1599
 3318TIP3    H131445   6.796   4.469  13.784 -0.1439  0.2444 -0.2588
 3318TIP3    H231446   6.739   4.498  13.921 -0.8956 -0.9151 -0.3224
 3319TIP3   OH231447   0.508   1.330  14.797 -0.0184  0.0071  0.9890
 3319TIP3    H131448   0.420   1.307  14.826 -0.1271 -0.1576  0.5314
 3319TIP3    H231449   0.513   1.425  14.809 -0.3696  0.0614  0.7137
 3320TIP3   OH231450   4.028   0.594  11.671  0.0138 -0.6158  0.0482
 3320TIP3    H131451   4.109   0.562  11.711  0.4824 -0.7077 -0.9656
 3320TIP3    H231452   4.032   0.689  11.683  0.9763 -0.4795 -1.2870
 3321TIP3   OH231453   6.792   1.114   2.140  0.0638  0.0999  0.9267
 3321TIP3    H131454   6.784   1.207   2.120  0.4454 -0.0071  0.2953
 3321TIP3    H231455   6.818   1.073   2.058 -1.4479 -0.7580  0.8415
 3322TIP3   OH231456   4.782   4.691  12.010 -0.3832 -0.1233  0.1666
 3322TIP3    H131457   4.718   4.716  11.943  0.8960  2.0364 -0.2810
 3322TIP3    H231458   4.761   4.748  12.085  1.5309  1.2192 -0.2858
 3323TIP3   OH231459   6.105   4.861  13.140  0.3445 -0.2335 -0.3957
 3323TIP3    H131460   6.199   4.876  13.152 -0.0439  2.1845 -0.1393
 3323TIP3    H231461   6.067   4.874  13.227 -0.2213 -1.2401 -0.4935
 3324TIP3   OH231462   2.815   0.945  13.711 -0.4470  0.1795 -0.0813
 3324TIP3    H131463   2.909   0.959  13.718 -0.3615 -0.2049 -0.4015
 3324TIP3    H231464   2.805   0.886  13.635 -0.8484 -0.6781  0.6234
 3325TIP3   OH231465   0.705   4.068   3.557 -0.4118 -0.2206  0.3232
 3325TIP3    H131466   0.744   4.023   3.632 -2.9656 -1.2379  1.0975
 3325TIP3    H231467   0.622   4.022   3.543 -0.8700  1.2438 -1.8802
 3326TIP3   OH231468   3.563   5.033  17.080  0.7460 -0.5510 -0.5674
 3326TIP3    H131469   3.551   5.128  17.072  3.1003 -0.2295 -0.6217
 3326TIP3    H231470   3.475   4.997  17.071 -0.1369  1.6112 -0.8755
 3327TIP3   OH231471   4.552   5.722   0.779 -0.4641  0.0732 -0.9204
 3327TIP3    H131472   4.550   5.811   0.742 -1.3218  0.3393 -0.2502
 3327TIP3    H231473   4.645   5.700   0.782 -0.0795  1.7600  0.7913
 3328TIP3   OH231474   1.009   1.371   3.237 -0.1775  0.2990 -0.2178
 3328TIP3    H131475   1.060   1.452   3.227  0.1781 -0.1500 -2.4465
 3328TIP3    H231476   1.069   1.309   3.276  0.6588  0.1359 -1.7045
 3329TIP3   OH231477   4.293   2.951   5.901  0.1031  0.3180 -0.3444
 3329TIP3    H131478   4.284   2.888   5.972  0.1704  0.4366 -0.2286
 3329TIP3    H231479   4.347   3.021   5.938  1.2538 -0.2500 -0.9299
 3330TIP3   OH231480   2.600   5.247  12.355 -0.1783  0.3027 -0.0828
 3330TIP3    H131481   2.541   5.275  12.285  1.9368  1.6150 -1.3905
 3330TIP3    H231482   2.623   5.327  12.401  2.1598  0.1371 -0.8708
 3331TIP3   OH231483   3.617   2.033   6.535 -0.6080 -0.0664 -0.9942
 3331TIP3    H131484   3.687   1.979   6.573 -0.2827 -0.5965 -2.3211
 3331TIP3    H231485   3.585   2.085   6.609 -2.0637 -3.2590  0.7273
 3332TIP3   OH231486   2.011   1.652   1.371  0.2990 -0.5954 -0.1716
 3332TIP3    H131487   1.993   1.712   1.298 -1.6011 -0.2030  0.5958
 3332TIP3    H231488   2.106   1.640   1.369  0.2665 -0.6963 -2.7838
 3333TIP3   OH231489   6.804   3.444  13.761 -0.2513 -0.5193 -0.1380
 3333TIP3    H131490   6.875   3.423  13.821 -0.3945  0.4774  0.3897
 3333TIP3    H231491   6.808   3.539  13.750 -2.0315 -0.3239  0.6062
 3334TIP3   OH231492   6.323   0.294  12.812 -0.1420  0.1743 -0.6409
 3334TIP3    H131493   6.252   0.353  12.838 -0.4948  1.2569 -3.8395
 3334TIP3    H231494   6.403   0.342  12.833 -0.3039 -0.8945  2.6368
 3335TIP3   OH231495   1.608   1.216   1.921  0.4753 -0.5304 -0.3523
 3335TIP3    H131496   1.689   1.259   1.949  1.0506 -1.0971 -1.1214
 3335TIP3    H231497   1.588   1.256   1.837 -1.8130  1.9080  1.2818
 3336TIP3   OH231498   0.421   4.052   4.207 -0.0167  0.2736  0.2615
 3336TIP3    H131499   0.329   4.035   4.186  0.8615 -1.1445 -2.7968
 3336TIP3    H231500   0.432   4.021   4.296 -1.6734 -3.0497 -0.6147
 3337TIP3   OH231501   2.449   0.813  16.383  0.6570  0.1038 -0.1386
 3337TIP3    H131502   2.443   0.738  16.323  2.8630  1.0724 -1.6536
 3337TIP3    H231503   2.390   0.879  16.345  1.0149  0.2286 -0.4742
 3338TIP3   OH231504   3.355   6.805   5.321  0.2590 -0.0029 -0.3018
 3338TIP3    H131505   3.312   6.728   5.357 -0.1443  0.4401  0.1709
 3338TIP3    H231506   3.292   6.840   5.258  0.4084 -0.0119 -0.4565
 3339TIP3   OH231507   5.670   5.801   4.828 -0.5083 -0.3494 -0.2408
 3339TIP3    H131508   5.746   5.855   4.806 -1.1613  1.0984  0.9725
 3339TIP3    H231509   5.616   5.802   4.749  0.5617 -1.1076 -0.9934
 3340TIP3   OH231510   1.965   6.670  17.116  0.4209 -0.6618 -0.3063
 3340TIP3    H131511   1.985   6.576  17.113  0.8441 -0.5326 -1.6161
 3340TIP3    H231512   1.998   6.704  17.033  0.3355  0.6667  0.2043
 3341TIP3   OH231513   1.114   1.831   6.535 -0.0928 -0.4112 -0.7415
 3341TIP3    H131514   1.036   1.867   6.493  0.2517 -0.5062 -1.4806
 3341TIP3    H231515   1.101   1.736   6.535  0.5317 -0.5095 -1.9256
 3342TIP3   OH231516   4.333   0.669  12.434 -0.2470  0.1604 -0.1177
 3342TIP3    H131517   4.241   0.644  12.442  0.0182 -0.6204  0.6179
 3342TIP3    H231518   4.376   0.591  12.401  0.5075 -0.2299  1.7025
 3343TIP3   OH231519   0.804   5.006  17.122 -0.7277  0.2168  0.1182
 3343TIP3    H131520   0.709   4.996  17.129 -0.7737 -0.6127 -1.5211
 3343TIP3    H231521   0.816   5.065  17.048  0.1020 -1.3461 -1.0053
 3344TIP3   OH231522   1.010   5.717  13.876  0.1508  0.2083  0.2381
 3344TIP3    H131523   0.986   5.627  13.854  0.7715  0.1810 -0.3372
 3344TIP3    H231524   0.946   5.770  13.829 -0.1763  0.0703  0.5249
 3345TIP3   OH231525   5.941   5.306  10.922 -0.3433  0.5101  0.0061
 3345TIP3    H131526   5.870   5.325  10.983 -0.9348  1.7758 -1.0474
 3345TIP3    H231527   6.002   5.378  10.933 -0.4085  0.7038 -0.8163
 3346TIP3   OH231528   2.559   0.958   1.223  0.6740  0.3194  0.2296
 3346TIP3    H131529   2.565   0.968   1.318 -0.2332 -1.3113  0.4748
 3346TIP3    H231530   2.636   1.004   1.189  0.8037  1.2389  1.7203
 3347TIP3   OH231531   2.239   0.591  17.279 -0.2164 -0.1749  0.1955
 3347TIP3    H131532   2.191   0.657  17.329  0.5879 -0.5664  1.5016
 3347TIP3    H231533   2.318   0.635  17.249  0.3425 -0.5424  1.1063
 3348TIP3   OH231534   6.366   1.859  13.614 -0.1228 -0.1970  0.3159
 3348TIP3    H131535   6.355   1.902  13.699  1.2563  0.8730 -0.0214
 3348TIP3    H231536   6.290   1.888  13.563 -1.6629 -1.8979  1.5776
 3349TIP3   OH231537   6.239   2.264   5.237 -0.0501 -0.0789  0.3430
 3349TIP3    H131538   6.183   2.299   5.307 -0.1686  0.5108 -0.0385
 3349TIP3    H231539   6.190   2.282   5.157  0.5743  0.2156  0.0272
 3350TIP3   OH231540   3.379   5.939  15.366 -0.1420 -0.0515 -0.3544
 3350TIP3    H131541   3.352   6.007  15.427  0.9656 -0.9674  1.2105
 3350TIP3    H231542   3.362   5.975  15.279 -0.4457  1.8208  0.4726
 3351TIP3   OH231543   0.543   0.992  16.336  0.1504 -0.2400  0.2966
 3351TIP3    H131544   0.598   1.034  16.402 -0.3782 -0.3311  0.7924
 3351TIP3    H231545   0.602   0.980  16.261  0.5883  0.4029  0.5319
 3352TIP3   OH231546   6.208   5.377  16.018 -0.4788 -0.2793 -0.4659
 3352TIP3    H131547   6.234   5.288  15.992  0.5815 -0.5181  1.3505
 3352TIP3    H231548   6.211   5.427  15.937  0.1452 -1.6059 -1.2889
 3353TIP3   OH231549   4.656   3.450  15.118 -0.6282  0.3037 -0.4942
 3353TIP3    H131550   4.621   3.538  15.130 -0.8839  0.2269 -0.6711
 3353TIP3    H231551   4.626   3.424  15.031  0.0609  0.3248 -0.7406
 3354TIP3   OH231552   6.396   4.713   0.273 -0.0050  0.0790 -0.1927
 3354TIP3    H131553   6.451   4.678   0.343  0.5368  0.8975 -0.1990
 3354TIP3    H231554   6.361   4.636   0.229  0.6739 -0.4470  0.1838
 3355TIP3   OH231555   1.660   3.541  12.874  0.6476  0.3431 -0.4996
 3355TIP3    H131556   1.592   3.484  12.839 -0.9942  2.8689 -1.5498
 3355TIP3    H231557   1.731   3.536  12.810  0.0599  0.3545 -1.1571
 3356TIP3   OH231558   6.564   5.771   6.343  0.1032 -0.2390 -0.0988
 3356TIP3    H131559   6.531   5.692   6.386 -0.2436 -0.1869 -0.2698
 3356TIP3    H231560   6.505   5.841   6.372  0.5543  0.0024  0.2426
 3357TIP3   OH231561   1.166   5.276   5.602 -0.1448  0.1858 -0.1291
 3357TIP3    H131562   1.186   5.183   5.591 -0.3755  0.1029  0.1404
 3357TIP3    H231563   1.205   5.318   5.526 -1.9668 -0.3980 -1.4056
 3358TIP3   OH231564   1.876   5.805  16.540 -0.3691 -0.6756 -0.0373
 3358TIP3    H131565   1.856   5.836  16.452 -2.3147 -0.1468  0.5381
 3358TIP3    H231566   1.829   5.722  16.548 -0.7702 -0.3879  0.7138
 3359TIP3   OH231567   5.946   5.416  12.037  0.6302  0.2293  0.4577
 3359TIP3    H131568   5.958   5.497  11.987 -2.3368  1.2620  1.3137
 3359TIP3    H231569   6.027   5.405  12.086  1.7739  1.6882 -1.0680
 3360TIP3   OH231570   4.704   1.637   0.829  0.3685  0.3141  0.2850
 3360TIP3    H131571   4.654   1.577   0.884  0.3022 -0.9748 -1.1458
 3360TIP3    H231572   4.788   1.648   0.873  0.5136 -1.1227  0.3718
 3361TIP3   OH231573   4.544   6.156   3.640 -0.1032  0.1250 -0.4018
 3361TIP3    H131574   4.535   6.250   3.656 -1.7934 -0.0736 -0.1323
 3361TIP3    H231575   4.611   6.150   3.572  0.3943  1.4897 -0.0506
 3362TIP3   OH231576   0.285   0.371   0.526  0.4700 -0.1267  0.2349
 3362TIP3    H131577   0.327   0.335   0.603  1.0710  0.0776  0.0035
 3362TIP3    H231578   0.357   0.397   0.468  0.0254 -0.7897 -0.6280
 3363TIP3   OH231579   0.039   1.091   4.263  0.1892  0.5224 -0.0855
 3363TIP3    H131580   0.075   1.148   4.330  1.7274 -0.9710  0.4171
 3363TIP3    H231581  -0.056   1.093   4.277  0.4037  1.1829  1.3305
 3364TIP3   OH231582   6.811   4.143   4.801 -0.5776  0.4477  0.0986
 3364TIP3    H131583   6.849   4.217   4.754 -0.3943  1.3309  1.5940
 3364TIP3    H231584   6.789   4.179   4.887 -1.4123 -0.9895  0.4963
 3365TIP3   OH231585   2.066   0.965  15.561  0.1098 -0.1433 -0.4493
 3365TIP3    H131586   2.047   1.047  15.608  1.0295  1.1848 -2.3589
 3365TIP3    H231587   2.014   0.971  15.481  1.3772 -0.6963 -1.3335
 3366TIP3   OH231588   2.262   0.204  14.910  0.2230 -0.5210 -0.2418
 3366TIP3    H131589   2.309   0.260  14.849  0.4492 -1.7733 -1.2533
 3366TIP3    H231590   2.248   0.122  14.861  1.7847 -2.1226  1.9119
 3367TIP3   OH231591   2.970   1.027  14.009  0.8087  0.1532  0.1995
 3367TIP3    H131592   2.918   1.088  14.062  0.2822  0.7454 -0.9854
 3367TIP3    H231593   3.035   1.082  13.965  0.3315 -0.1267 -0.8729
 3368TIP3   OH231594   5.678   6.490   1.836  0.0714 -0.2298 -0.3410
 3368TIP3    H131595   5.710   6.419   1.891 -0.6214 -0.3528 -0.0863
 3368TIP3    H231596   5.584   6.493   1.853  0.0218  0.4448 -0.6995
 3369TIP3   OH231597   3.117   0.430  14.159  0.6043 -0.5074 -0.2008
 3369TIP3    H131598   3.047   0.450  14.096  0.5995 -2.3690 -0.8334
 3369TIP3    H231599   3.191   0.403  14.104  0.9610 -1.0483  0.5397
 3370TIP3   OH231600   0.018   6.777   2.604  0.3351 -0.2768 -0.6788
 3370TIP3    H131601   0.081   6.849   2.594 -0.4114  0.8971  2.4796
 3370TIP3    H231602  -0.048   6.795   2.538  0.5259  1.6006 -0.4099
 3371TIP3   OH231603   0.465   4.799   5.271 -0.1753  0.3367 -0.3391
 3371TIP3    H131604   0.393   4.823   5.329  0.1816 -0.2636  0.3766
 3371TIP3    H231605   0.501   4.719   5.311  0.3229  0.1415 -1.1740
 3372TIP3   OH231606   5.531   6.188   2.312  0.1767 -0.1382 -0.3675
 3372TIP3    H131607   5.614   6.185   2.359 -0.5633 -0.4780  0.9560
 3372TIP3    H231608   5.468   6.218   2.377 -0.3713  2.2364 -1.9228
 3373TIP3   OH231609   0.541   2.622  15.737 -0.2734 -0.2593  0.1131
 3373TIP3    H131610   0.541   2.531  15.767  1.1602  0.0232  1.0451
 3373TIP3    H231611   0.528   2.674  15.816  1.8797  0.4394  0.0487
 3374TIP3   OH231612   6.322   2.881  11.718 -0.3893 -0.3580  0.3853
 3374TIP3    H131613   6.412   2.878  11.749 -0.3562  0.5421  0.3945
 3374TIP3    H231614   6.324   2.942  11.644 -1.3525  1.2714  1.6561
 3375TIP3   OH231615   6.208   0.691  16.017  0.0868 -0.0583  0.2442
 3375TIP3    H131616   6.302   0.705  16.019 -0.0946  1.1848  1.1514
 3375TIP3    H231617   6.193   0.616  16.075  0.6487 -1.1814 -1.0524
 3376TIP3   OH231618   1.163   4.710   3.061 -0.6385  0.3360 -0.0846
 3376TIP3    H131619   1.188   4.788   3.012 -0.8983  0.8798  0.6363
 3376TIP3    H231620   1.079   4.733   3.101 -1.2834 -0.7355 -0.8141
 3377TIP3   OH231621   0.109   6.178  11.233  0.2951 -0.6922 -0.2615
 3377TIP3    H131622   0.116   6.138  11.146 -0.8751 -0.5739 -0.4249
 3377TIP3    H231623   0.146   6.265  11.222 -0.2440 -0.5199 -0.7629
 3378TIP3   OH231624   2.934   2.591  12.672 -0.1701  0.6872  0.9277
 3378TIP3    H131625   2.999   2.627  12.733  0.4597  2.0291 -0.5035
 3378TIP3    H231626   2.985   2.534  12.614 -0.0908  2.4013 -0.7308
 3379TIP3   OH231627   5.774   2.248   0.161  0.3095 -0.0395  0.2711
 3379TIP3    H131628   5.742   2.160   0.180  0.9562 -0.0548  1.2891
 3379TIP3    H231629   5.761   2.258   0.066  1.2213 -1.6099 -0.0326
 3380TIP3   OH231630   6.415   0.750  14.412 -0.3527  0.4372 -0.3310
 3380TIP3    H131631   6.402   0.845  14.404 -0.9266  0.3796 -0.1034
 3380TIP3    H231632   6.505   0.736  14.384 -0.3422  1.0225 -0.5996
 3381TIP3   OH231633   3.184   5.960   1.989  0.3422  0.6085 -0.5383
 3381TIP3    H131634   3.163   6.037   2.041  0.7190  0.1916  0.2390
 3381TIP3    H231635   3.120   5.894   2.016 -0.1679  0.7381 -1.4143
 3382TIP3   OH231636   4.917   0.183   3.169 -0.0097  0.3767 -0.3110
 3382TIP3    H131637   4.967   0.122   3.223  2.5917  0.5039 -2.4267
 3382TIP3    H231638   4.924   0.267   3.214 -1.4668 -0.3376  1.2992
 3383TIP3   OH231639   0.939   0.591   5.175  0.4802  0.3848 -0.1678
 3383TIP3    H131640   0.914   0.683   5.175  1.0328  0.5414  0.2636
 3383TIP3    H231641   0.972   0.575   5.264 -0.5572 -0.4904  0.0676
 3384TIP3   OH231642   3.137   3.590   2.587  0.0002  0.0142  0.1076
 3384TIP3    H131643   3.196   3.552   2.652  0.6010 -0.2074 -0.5717
 3384TIP3    H231644   3.095   3.515   2.545  1.9457  0.0344 -1.9539
 3385TIP3   OH231645   0.338   6.206   1.686 -0.5778 -0.4318  0.7548
 3385TIP3    H131646   0.313   6.270   1.753 -0.5878  0.2758  0.0797
 3385TIP3    H231647   0.302   6.241   1.605  3.1050  0.9555 -0.3741
 3386TIP3   OH231648   3.367   1.019   1.459  0.1983 -0.3118  0.7302
 3386TIP3    H131649   3.399   1.086   1.398 -1.3659 -0.4727 -0.2728
 3386TIP3    H231650   3.289   0.984   1.418  0.6808 -2.3804  1.5264
 3387TIP3   OH231651   3.055   6.685   4.590  0.0882  0.1707 -0.1329
 3387TIP3    H131652   3.019   6.626   4.656 -0.1518  0.9491  0.4278
 3387TIP3    H231653   3.034   6.773   4.621 -0.7942  0.5274 -1.6693
 3388TIP3   OH231654   0.422   1.612   6.183  0.3278 -0.3375 -0.0839
 3388TIP3    H131655   0.474   1.611   6.264 -0.5080  1.1072  0.4883
 3388TIP3    H231656   0.334   1.587   6.210  0.1404 -0.2759 -0.6238
 3389TIP3   OH231657   1.443   0.294  15.116  0.1027  0.0689  0.4569
 3389TIP3    H131658   1.511   0.361  15.110  1.6828 -1.2203  3.0355
 3389TIP3    H231659   1.388   0.323  15.189 -0.3963 -0.3987  0.2638
 3390TIP3   OH231660   5.091   4.480   2.211 -0.6866 -0.1597  0.3843
 3390TIP3    H131661   5.060   4.570   2.204 -1.1433 -0.0908  2.7676
 3390TIP3    H231662   5.180   4.488   2.245 -0.2755 -0.5642 -0.5999
 3391TIP3   OH231663   4.657   5.812   4.609 -0.1702  0.3906  0.5417
 3391TIP3    H131664   4.648   5.756   4.686 -2.2253  0.8461  0.6728
 3391TIP3    H231665   4.602   5.771   4.543  0.5893  0.7007 -0.2950
 3392TIP3   OH231666   2.186   1.116  12.024  0.2804  0.4404  0.2300
 3392TIP3    H131667   2.172   1.152  11.936  1.4456  1.5053  0.4670
 3392TIP3    H231668   2.265   1.063  12.016 -1.4219 -2.1438 -0.1179
 3393TIP3   OH231669   1.462   1.794  14.199 -0.2780  0.7137  0.5418
 3393TIP3    H131670   1.524   1.724  14.221  0.8250  1.7564  0.8181
 3393TIP3    H231671   1.517   1.864  14.162 -1.2216  1.8635  1.2745
 3394TIP3   OH231672   5.709   1.614  11.449 -0.4355  0.1747 -0.4134
 3394TIP3    H131673   5.668   1.528  11.441 -3.2254  1.2506  1.4433
 3394TIP3    H231674   5.725   1.625  11.542 -0.1124  1.6586 -0.6332
 3395TIP3   OH231675   0.211   2.046   5.553 -0.4431  0.4142  0.0458
 3395TIP3    H131676   0.199   2.133   5.590  1.2797  1.0967 -0.9377
 3395TIP3    H231677   0.292   2.014   5.593  0.4796  0.4420 -1.7298
 3396TIP3   OH231678   3.131   5.321   4.748  0.5228  0.5102 -0.0201
 3396TIP3    H131679   3.224   5.310   4.767  0.4802 -0.7412 -0.4892
 3396TIP3    H231680   3.089   5.330   4.834  1.3320  3.3897  0.1250
 3397TIP3   OH231681   2.428   6.250   0.076  0.1454 -0.5859 -0.6316
 3397TIP3    H131682   2.404   6.197   0.152 -0.3120 -0.9629 -1.0456
 3397TIP3    H231683   2.483   6.193   0.023  0.7276 -0.2181 -0.4367
 3398TIP3   OH231684   1.558   5.317  15.535 -0.1568  0.1732 -0.1973
 3398TIP3    H131685   1.629   5.253  15.540 -0.0890  0.0591 -2.3184
 3398TIP3    H231686   1.480   5.265  15.516 -0.3664  0.5692 -0.4343
 3399TIP3   OH231687   4.786   6.759  11.092  0.1814  0.4394  0.2705
 3399TIP3    H131688   4.734   6.839  11.084  1.2255  1.1797  0.7402
 3399TIP3    H231689   4.728   6.697  11.137 -0.5386  1.0179  0.1494
 3400TIP3   OH231690   0.469   1.984  16.884  0.3467  0.7139 -0.3881
 3400TIP3    H131691   0.404   2.010  16.819 -2.4008 -2.3834  0.9836
 3400TIP3    H231692   0.523   1.918  16.841 -0.8807 -0.6484  0.1093
 3401TIP3   OH231693   3.877   6.398   0.667  0.2851 -0.2838  0.2770
 3401TIP3    H131694   3.863   6.304   0.668 -0.1253 -0.2238  0.8184
 3401TIP3    H231695   3.795   6.434   0.634  0.6394 -0.1470 -0.4536
 3402TIP3   OH231696   5.433   6.131   3.793 -0.7733  0.0461  0.0297
 3402TIP3    H131697   5.383   6.064   3.746 -2.0062 -0.6678  2.2860
 3402TIP3    H231698   5.383   6.147   3.873  0.5289  2.2645  0.4498
 3403TIP3   OH231699   5.121   3.059  10.253  0.3575 -0.0578  0.3952
 3403TIP3    H131700   5.052   3.038  10.316 -0.1604  0.3641 -0.0291
 3403TIP3    H231701   5.201   3.067  10.306 -0.2464  1.2750  1.1197
 3404TIP3   OH231702   6.353   6.792   4.575 -0.8876 -0.1407  0.3370
 3404TIP3    H131703   6.392   6.720   4.526  0.6098  0.3357  0.7876
 3404TIP3    H231704   6.320   6.753   4.655  0.5912 -0.2237  0.9220
 3405TIP3   OH231705   1.838   2.845   5.479  0.1644 -0.7498  0.0921
 3405TIP3    H131706   1.771   2.785   5.445  0.4284 -0.5304 -0.8150
 3405TIP3    H231707   1.802   2.933   5.463 -0.5115 -0.6588  1.9973
 3406TIP3   OH231708   0.305   4.304  16.736 -0.4220 -0.1534 -0.0695
 3406TIP3    H131709   0.239   4.368  16.761 -1.2019 -1.1033  0.3392
 3406TIP3    H231710   0.319   4.252  16.815 -1.1448 -1.6564 -0.9167
 3407TIP3   OH231711   4.273   0.382   1.417 -0.4378  0.4878 -0.2358
 3407TIP3    H131712   4.364   0.354   1.432 -0.6742 -0.6496 -0.8438
 3407TIP3    H231713   4.228   0.365   1.499 -0.4026 -0.2268 -0.3606
 3408TIP3   OH231714   1.286   0.040  13.854  0.8915 -0.1301 -0.1283
 3408TIP3    H131715   1.314   0.053  13.945 -0.7608 -1.3184  0.5895
 3408TIP3    H231716   1.195   0.011  13.862  0.5814  0.2504 -2.2017
 3409TIP3   OH231717   0.743   1.485  14.360  0.2353  0.0994  0.0360
 3409TIP3    H131718   0.777   1.571  14.383  2.0669 -0.4868 -0.3925
 3409TIP3    H231719   0.733   1.487  14.265  0.2516 -0.1467  0.0276
 3410TIP3   OH231720   5.269   2.358   3.990 -0.3203 -0.1438  0.9651
 3410TIP3    H131721   5.277   2.425   3.923  1.2310  0.0764  1.3569
 3410TIP3    H231722   5.338   2.378   4.053  0.4517 -2.3259  0.8767
 3411TIP3   OH231723   4.766   3.651  11.682  0.5205 -0.3793 -0.4300
 3411TIP3    H131724   4.718   3.584  11.731  0.0921  0.8921  0.9317
 3411TIP3    H231725   4.830   3.602  11.631 -0.1645 -1.8697  0.1089
 3412TIP3   OH231726   3.946   4.490  11.335  0.5960 -0.1608 -0.4657
 3412TIP3    H131727   3.940   4.496  11.430  0.9820  0.1141 -0.4549
 3412TIP3    H231728   3.927   4.399  11.315 -0.3870 -0.0194 -0.2042
 3413TIP3   OH231729   3.617   4.020  10.978 -0.3668 -0.0299  0.1869
 3413TIP3    H131730   3.700   4.036  10.932 -1.1176  0.8124 -0.8987
 3413TIP3    H231731   3.624   3.930  11.009 -0.2550 -0.9875 -2.4773
 3414TIP3   OH231732   4.958   2.960  14.885  0.4778 -0.1199  0.7041
 3414TIP3    H131733   4.872   2.976  14.924  0.5119  0.0190  0.7256
 3414TIP3    H231734   4.947   2.883  14.831 -0.1802  1.1092 -0.9383
 3415TIP3   OH231735   1.776   3.380  12.379 -0.3323  0.2751  0.8111
 3415TIP3    H131736   1.741   3.428  12.303  2.6886  0.3933 -0.5914
 3415TIP3    H231737   1.805   3.296  12.343 -1.3771 -0.7679  2.3804
 3416TIP3   OH231738   0.854   6.417   2.131  0.8173  0.1007 -0.1091
 3416TIP3    H131739   0.859   6.450   2.042  1.9840 -0.0766 -0.1193
 3416TIP3    H231740   0.894   6.485   2.185 -0.3670  0.4456  0.3485
 3417TIP3   OH231741   5.892   2.586   5.343  0.1799 -0.5497  1.0574
 3417TIP3    H131742   5.906   2.633   5.425  0.0519 -0.4242  1.0051
 3417TIP3    H231743   5.936   2.639   5.276  1.1615 -1.1672  1.1961
 3418TIP3   OH231744   4.572   4.332   0.814  0.4411  0.5598  0.2154
 3418TIP3    H131745   4.583   4.320   0.720 -0.8581  0.7882  0.0336
 3418TIP3    H231746   4.587   4.425   0.829 -0.5537  0.7482  0.0597
 3419TIP3   OH231747   1.350   4.483  13.603  0.6896 -0.4047  0.7294
 3419TIP3    H131748   1.271   4.460  13.652  0.5164 -1.3275  0.0424
 3419TIP3    H231749   1.382   4.563  13.644 -2.0241  1.3889 -0.5628
 3420TIP3   OH231750   3.220   6.775   2.025  0.2777  0.1919  0.0357
 3420TIP3    H131751   3.176   6.712   1.967  0.6968 -0.9314  0.9264
 3420TIP3    H231752   3.156   6.846   2.035 -0.2747 -0.1710 -0.8269
 3421TIP3   OH231753   4.333   6.741  11.722 -0.5970  0.0619 -0.2122
 3421TIP3    H131754   4.397   6.796  11.678  0.3071 -1.3293 -0.6516
 3421TIP3    H231755   4.262   6.730  11.659 -0.1949 -0.3241 -0.5971
 3422TIP3   OH231756   5.961   2.493   0.501 -0.0205 -0.3889 -0.7813
 3422TIP3    H131757   5.914   2.534   0.573  0.5676  4.2642 -2.8355
 3422TIP3    H231758   5.895   2.443   0.453 -1.4032  0.4867  0.2011
 3423TIP3   OH231759   2.266   6.707  17.004  0.0285 -0.2665 -0.0704
 3423TIP3    H131760   2.251   6.800  17.022  0.0503 -0.3956  0.6184
 3423TIP3    H231761   2.330   6.707  16.933 -0.3279  0.2496 -0.3966
 3424TIP3   OH231762   1.953   1.078  14.536 -0.5477 -0.0828 -0.0241
 3424TIP3    H131763   1.929   0.986  14.544 -2.6313  0.3316 -1.0509
 3424TIP3    H231764   1.870   1.122  14.517  0.6289  1.8246 -0.8343
 3425TIP3   OH231765   5.170   2.654   3.236 -0.0480 -1.0161 -0.2112
 3425TIP3    H131766   5.257   2.642   3.197  0.3251  1.1926 -0.1458
 3425TIP3    H231767   5.122   2.706   3.171 -0.0672  0.9951  1.3812
 3426TIP3   OH231768   0.676   4.540  12.804 -0.7533  0.5793 -0.1416
 3426TIP3    H131769   0.764   4.541  12.842 -0.9272 -0.8297  0.3237
 3426TIP3    H231770   0.659   4.631  12.781  1.6516  0.5359 -2.1803
 3427TIP3   OH231771   3.970   3.057  12.334 -0.3736  0.0881 -0.2267
 3427TIP3    H131772   4.020   3.105  12.400 -0.0467 -0.0061 -0.4081
 3427TIP3    H231773   4.022   3.064  12.254 -0.8721  0.3847 -0.5284
 3428TIP3   OH231774   1.520   0.333   1.891 -0.4480 -0.1691  0.0365
 3428TIP3    H131775   1.497   0.273   1.820  0.3088 -1.0211  0.5011
 3428TIP3    H231776   1.569   0.279   1.953 -2.0501  0.2654  1.7624
 3429TIP3   OH231777   1.332   4.424   5.712 -0.8688 -0.1253  0.1019
 3429TIP3    H131778   1.245   4.420   5.675 -0.6931 -0.5787 -0.2613
 3429TIP3    H231779   1.391   4.430   5.637 -0.4901 -1.4636  0.2825
 3430TIP3   OH231780   3.287   6.645  11.895 -0.1332 -0.2849 -0.1259
 3430TIP3    H131781   3.270   6.677  11.983 -1.6200 -2.5150  0.4181
 3430TIP3    H231782   3.372   6.682  11.872 -0.9417  2.5016  1.1842
 3431TIP3   OH231783   1.107   4.645   1.895  0.1009  0.4845  0.3451
 3431TIP3    H131784   1.064   4.708   1.837 -0.1716  1.3799  1.4909
 3431TIP3    H231785   1.119   4.567   1.841  0.0924  1.3846 -0.9828
 3432TIP3   OH231786   1.467   2.484   3.021  0.4194 -0.1026 -0.3021
 3432TIP3    H131787   1.443   2.507   3.111  1.1418  3.4242 -0.9564
 3432TIP3    H231788   1.561   2.500   3.016  1.6187 -5.8216 -0.1568
 3433TIP3   OH231789   5.409   1.561   2.475  0.3696  0.0456  0.0026
 3433TIP3    H131790   5.460   1.640   2.456 -0.7157  0.5033 -1.1375
 3433TIP3    H231791   5.449   1.493   2.422 -0.3149  0.4512 -1.0526
 3434TIP3   OH231792   5.522   1.978   4.330 -0.0465  0.1086  0.6569
 3434TIP3    H131793   5.566   1.901   4.366 -3.0884 -1.7080  0.6201
 3434TIP3    H231794   5.555   1.986   4.241  0.7819 -0.7503  0.8827
 3435TIP3   OH231795   5.236   2.409   3.590 -0.6655  0.0624 -0.5801
 3435TIP3    H131796   5.215   2.405   3.496 -1.3728  0.6252 -0.4510
 3435TIP3    H231797   5.306   2.345   3.601 -1.5140 -0.9939 -1.2360
 3436TIP3   OH231798   5.055   1.485  15.997  0.2882  0.7995  0.5834
 3436TIP3    H131799   5.002   1.422  15.948  1.9459  0.1595 -0.3925
 3436TIP3    H231800   5.060   1.448  16.086  0.2580  0.1569  0.3239
 3437TIP3   OH231801   5.861   2.173   5.128  0.1417  0.0158 -0.2108
 3437TIP3    H131802   5.915   2.105   5.169  2.2910  0.5931 -1.9981
 3437TIP3    H231803   5.794   2.125   5.081 -0.2006 -0.7635  1.0604
 3438TIP3   OH231804   1.518   0.907   1.659  0.0083 -0.0343 -0.1733
 3438TIP3    H131805   1.587   0.844   1.677  0.0451  0.3011  0.8845
 3438TIP3    H231806   1.439   0.867   1.693  0.0276  0.4740  0.4811
 3439TIP3   OH231807   1.592   4.617  14.680  0.1101 -0.5604 -0.1610
 3439TIP3    H131808   1.644   4.546  14.643  1.0766 -0.1984  0.4825
 3439TIP3    H231809   1.574   4.590  14.769  0.9299  0.2326  0.2538
 3440TIP3   OH231810   0.451   6.630  11.247 -0.6403  0.2366 -0.0195
 3440TIP3    H131811   0.477   6.719  11.269  0.1872 -0.1746  0.7085
 3440TIP3    H231812   0.519   6.599  11.187 -0.6168 -0.1006  0.1799
 3441TIP3   OH231813   0.608   2.009   4.874  0.2943  0.1300  0.1482
 3441TIP3    H131814   0.685   1.954   4.885  0.9815  1.3125  1.4687
 3441TIP3    H231815   0.535   1.947   4.869  1.0470 -0.9118  1.6766
 3442TIP3   OH231816   1.119   2.312   2.503 -0.6725  0.2491  0.5729
 3442TIP3    H131817   1.068   2.275   2.431  2.2758 -2.3516 -0.3243
 3442TIP3    H231818   1.089   2.264   2.580 -1.1590  0.3125  0.4231
 3443TIP3   OH231819   1.609   4.756  11.803  0.2399  0.7104 -0.3052
 3443TIP3    H131820   1.536   4.752  11.864  0.8484  0.0871  0.3989
 3443TIP3    H231821   1.664   4.827  11.835  0.9804 -0.1512  0.3636
 3444TIP3   OH231822   6.206   2.753  11.400 -0.4565 -0.5965  0.3016
 3444TIP3    H131823   6.226   2.749  11.306  0.8888 -2.1110  0.6399
 3444TIP3    H231824   6.234   2.841  11.426  2.3290 -1.3239 -0.0438
 3445TIP3   OH231825   2.390   4.431   2.873 -0.3775  0.3579 -0.2102
 3445TIP3    H131826   2.452   4.358   2.875 -0.6801  0.0600 -1.3634
 3445TIP3    H231827   2.441   4.505   2.840 -0.6401  0.1016 -1.2046
 3446TIP3   OH231828   5.501   1.246  16.233 -0.1773 -1.0883 -0.7408
 3446TIP3    H131829   5.507   1.153  16.254  0.8048 -0.6178  1.1566
 3446TIP3    H231830   5.589   1.270  16.205 -0.6788 -0.9400 -2.2538
 3447TIP3   OH231831   4.568   5.918  11.090 -0.8473 -0.1472  0.3025
 3447TIP3    H131832   4.613   5.943  11.009 -0.6524  2.0987  1.0779
 3447TIP3    H231833   4.481   5.891  11.062  0.3896 -3.0125 -1.0487
 3448TIP3   OH231834   4.302   1.795   5.819 -0.0250 -0.1829 -0.3074
 3448TIP3    H131835   4.220   1.748   5.835 -0.4160  0.7619  0.5240
 3448TIP3    H231836   4.371   1.731   5.840 -0.5445 -0.5544  0.2718
 3449TIP3   OH231837   0.937   2.505   2.709  0.0354  0.4086 -0.2400
 3449TIP3    H131838   0.933   2.411   2.695 -1.8973  0.6571 -1.6270
 3449TIP3    H231839   0.888   2.520   2.789 -0.1107  0.2876 -0.3067
 3450TIP3   OH231840   0.657   4.258   1.922  0.1757 -0.0097  0.3240
 3450TIP3    H131841   0.596   4.188   1.944 -1.3237  1.1653  0.0677
 3450TIP3    H231842   0.723   4.256   1.991 -1.1369 -0.2041  1.6054
 3451TIP3   OH231843   4.863   5.267  15.535  0.1857  0.6810 -0.1411
 3451TIP3    H131844   4.770   5.254  15.550  0.2441 -0.5621 -0.8291
 3451TIP3    H231845   4.870   5.359  15.508 -0.7751  0.9023  0.3375
 3452TIP3   OH231846   5.427   0.932  11.072  0.8653  0.0697  0.7897
 3452TIP3    H131847   5.508   0.962  11.031  1.9217 -1.7056  1.5026
 3452TIP3    H231848   5.409   0.995  11.141  1.2508  0.8544  0.1775
 3453TIP3   OH231849   0.237   0.398  13.291  0.7312 -0.0554 -0.1125
 3453TIP3    H131850   0.201   0.369  13.375  0.8149 -2.0016 -0.7306
 3453TIP3    H231851   0.192   0.481  13.273 -2.4135 -1.7428 -0.1907
 3454TIP3   OH231852   2.760   0.446  16.786 -0.4791 -0.3958 -0.5981
 3454TIP3    H131853   2.737   0.367  16.738  0.1172  0.9610 -3.2057
 3454TIP3    H231854   2.807   0.500  16.723  1.9802  0.6933  2.0286
 3455TIP3   OH231855   0.966   6.606   0.384  0.1766  0.2388 -0.4859
 3455TIP3    H131856   0.937   6.533   0.440 -1.0105  0.8199 -0.3409
 3455TIP3    H231857   0.980   6.566   0.298 -0.7170 -0.1259 -0.4703
 3456TIP3   OH231858   3.180   5.768   2.913 -0.0252  0.2698 -0.3290
 3456TIP3    H131859   3.249   5.752   2.977  0.5918  2.9587 -0.2463
 3456TIP3    H231860   3.172   5.864   2.910 -1.4208  0.1211 -2.7922
 3457TIP3   OH231861   3.844   2.005   5.918  0.5890  0.0000  0.1355
 3457TIP3    H131862   3.827   2.073   5.854  0.9748 -1.2547 -1.3359
 3457TIP3    H231863   3.757   1.971   5.941  0.2679  1.9750  2.0367
 3458TIP3   OH231864   4.179   3.180  14.122  0.2448  0.2223  0.5036
 3458TIP3    H131865   4.108   3.206  14.063  0.2918  0.1051  0.3949
 3458TIP3    H231866   4.165   3.232  14.201  0.4010  0.6536  0.2474
 3459TIP3   OH231867   0.679   4.982   5.497 -0.0028  0.1397 -0.0682
 3459TIP3    H131868   0.746   5.039   5.536 -1.7612  0.8476  1.9793
 3459TIP3    H231869   0.625   5.041   5.444  0.1016 -0.1910 -0.5505
 3460TIP3   OH231870   0.231   6.407  13.940  0.5976 -0.5128 -0.3119
 3460TIP3    H131871   0.304   6.436  13.886  0.9441 -1.8293 -0.5674
 3460TIP3    H231872   0.228   6.312  13.927 -2.0066 -0.3112 -1.3389
 3461TIP3   OH231873   1.149   0.836   1.998  0.4116  0.0901  0.3170
 3461TIP3    H131874   1.197   0.912   2.031  1.0197  0.0862 -0.5561
 3461TIP3    H231875   1.057   0.862   2.006  0.5690  0.3953  1.2646
 3462TIP3   OH231876   5.580   0.988   0.235  0.5459 -0.1616 -0.2439
 3462TIP3    H131877   5.548   1.012   0.321  0.3805  1.2742 -0.6972
 3462TIP3    H231878   5.603   1.071   0.193 -0.5504 -0.7232 -2.0409
 3463TIP3   OH231879   0.274   3.957  13.696  0.2239  0.2515  0.1863
 3463TIP3    H131880   0.273   3.885  13.634 -0.6512 -0.0701  0.5626
 3463TIP3    H231881   0.195   4.007  13.675  0.0475  0.2686  0.8888
 3464TIP3   OH231882   4.651   0.981   2.655 -0.8804  0.2870 -0.1941
 3464TIP3    H131883   4.620   0.921   2.723  2.4428 -1.0859  0.2243
 3464TIP3    H231884   4.649   1.067   2.696 -0.7342 -0.2600  0.9847
 3465TIP3   OH231885   0.423   3.484   0.638 -0.1067  0.3808  0.0191
 3465TIP3    H131886   0.483   3.414   0.614  2.7962  2.8647 -0.2070
 3465TIP3    H231887   0.380   3.452   0.717  1.7883 -1.2982  0.4155
 3466TIP3   OH231888   6.787   1.954   5.649 -0.0075  0.1192  0.1026
 3466TIP3    H131889   6.769   1.869   5.608  0.0166 -0.9070  2.1335
 3466TIP3    H231890   6.876   1.976   5.621  0.1485 -0.7328 -0.0898
 3467TIP3   OH231891   0.905   5.688   0.090 -0.4201 -0.4368  0.2162
 3467TIP3    H131892   0.834   5.748   0.068 -0.3129 -0.6455 -0.7051
 3467TIP3    H231893   0.862   5.616   0.137 -0.7828 -0.4390 -0.1143
 3468TIP3   OH231894   0.077   0.070   6.812 -0.6250 -0.2583 -0.0236
 3468TIP3    H131895   0.008   0.082   6.878 -1.3542  1.5514 -1.0695
 3468TIP3    H231896   0.074   0.150   6.760  1.2378 -0.8423 -1.0658
 3469TIP3   OH231897   2.373   6.776   1.856 -0.1653  0.1002 -0.0816
 3469TIP3    H131898   2.303   6.803   1.916  1.0380  3.1813  0.0427
 3469TIP3    H231899   2.397   6.856   1.810  2.8105 -1.0354 -0.6320
 3470TIP3   OH231900   0.001   5.492   5.729  0.0377  0.2836 -0.1189
 3470TIP3    H131901   0.059   5.562   5.698  0.6842  0.5654  1.6715
 3470TIP3    H231902   0.058   5.416   5.739 -0.2131  0.1323  0.1537
 3471TIP3   OH231903   1.438   5.222   3.222 -0.3923  0.1925  0.0728
 3471TIP3    H131904   1.396   5.283   3.283 -0.3268  0.2813  0.0289
 3471TIP3    H231905   1.416   5.136   3.256 -1.0413  0.2356 -0.2410
 3472TIP3   OH231906   4.765   6.707  12.937 -0.0284 -0.0304 -0.6813
 3472TIP3    H131907   4.775   6.748  13.023 -0.2881  1.8664 -1.5454
 3472TIP3    H231908   4.676   6.674  12.936 -0.0107 -0.0928 -0.2061
 3473TIP3   OH231909   4.193   6.777   1.207  0.2907 -0.7359  0.0592
 3473TIP3    H131910   4.192   6.851   1.147  2.0199 -0.2680  0.5602
 3473TIP3    H231911   4.281   6.739   1.197  0.7475 -0.3961  2.5676
 3474TIP3   OH231912   0.853   1.803   2.474 -0.1065  0.1835  0.1407
 3474TIP3    H131913   0.933   1.804   2.422  0.5349  1.2356  1.1330
 3474TIP3    H231914   0.805   1.881   2.446 -1.3744 -1.0774 -1.3198
 3475TIP3   OH231915   5.282   5.385  16.617 -0.6190 -0.2221  0.2491
 3475TIP3    H131916   5.368   5.403  16.657  0.2876 -0.8041 -1.4153
 3475TIP3    H231917   5.270   5.291  16.628 -0.8082 -0.2243  0.0130
 3476TIP3   OH231918   5.112   1.071  13.962 -0.0274 -0.0395 -0.3620
 3476TIP3    H131919   5.136   1.054  14.053 -0.2650 -0.6812 -0.4134
 3476TIP3    H231920   5.089   0.985  13.927 -2.6764  0.5667 -0.2169
 3477TIP3   OH231921   6.751   5.769  11.308  0.0570 -0.0204  0.4666
 3477TIP3    H131922   6.805   5.722  11.245 -1.7815  1.2751 -2.1511
 3477TIP3    H231923   6.667   5.723  11.306  0.2268 -0.4593  2.5877
 3478TIP3   OH231924   0.670   3.180   4.665  0.2231 -0.2742 -0.2017
 3478TIP3    H131925   0.667   3.257   4.608  0.0963  0.6949  1.0973
 3478TIP3    H231926   0.718   3.209   4.742  2.6643 -2.3013 -0.8771
 3479TIP3   OH231927   1.437   6.353  11.474  0.9765 -0.0270  0.3438
 3479TIP3    H131928   1.517   6.323  11.518  0.9619 -1.6945 -0.7412
 3479TIP3    H231929   1.416   6.284  11.412 -1.0791  0.6120  0.2989
 3480TIP3   OH231930   1.347   0.474   0.457 -0.0112  0.3536 -0.4267
 3480TIP3    H131931   1.418   0.432   0.505 -0.0273  0.5154 -0.2570
 3480TIP3    H231932   1.319   0.546   0.514 -0.0083  0.5695 -0.6942
 3481TIP3   OH231933   1.235   4.441  11.154 -0.4753 -0.2003 -0.2459
 3481TIP3    H131934   1.178   4.463  11.080 -0.0800  0.6094 -0.3117
 3481TIP3    H231935   1.314   4.405  11.114  0.5333  2.0396 -0.3079
 3482TIP3   OH231936   2.933   4.693   6.243  0.1710 -0.8743 -0.5203
 3482TIP3    H131937   2.943   4.729   6.331 -0.3806 -1.8768 -0.0337
 3482TIP3    H231938   2.949   4.767   6.184  1.3365 -0.3826  0.4009
 3483TIP3   OH231939   4.650   2.667   0.889  0.7406 -0.4807 -0.2868
 3483TIP3    H131940   4.636   2.608   0.815 -0.5771  0.1380 -0.5394
 3483TIP3    H231941   4.671   2.751   0.850  0.0200 -0.1464  0.0465
 3484TIP3   OH231942   0.400   3.553  15.755 -0.0702  0.4690 -0.1448
 3484TIP3    H131943   0.417   3.646  15.738 -0.8838  0.9768  1.7986
 3484TIP3    H231944   0.379   3.548  15.848  0.6917 -1.7764 -0.0552
 3485TIP3   OH231945   4.385   2.112  13.659  0.0531 -0.8194 -0.2318
 3485TIP3    H131946   4.463   2.058  13.648  0.0783 -0.5373 -1.4665
 3485TIP3    H231947   4.405   2.193  13.612 -0.3439 -0.0904  0.8364
 3486TIP3   OH231948   3.186   2.602   3.590 -0.5203 -0.4732  0.5582
 3486TIP3    H131949   3.175   2.527   3.532 -2.4163 -0.0001  0.2786
 3486TIP3    H231950   3.214   2.564   3.673  1.4134 -1.2285 -0.3945
 3487TIP3   OH231951   1.233   3.940   5.003 -0.2974  0.2524  0.3774
 3487TIP3    H131952   1.201   3.899   5.083 -1.9551  1.1696  0.1899
 3487TIP3    H231953   1.267   4.024   5.031 -0.4883  0.3964  0.1801
 3488TIP3   OH231954   6.631   1.164   5.083 -0.3183  0.3438  0.5039
 3488TIP3    H131955   6.683   1.190   5.159 -0.4680 -1.3621  1.2137
 3488TIP3    H231956   6.551   1.127   5.120  0.1444 -1.6572 -0.4194
 3489TIP3   OH231957   1.173   2.237  16.837  0.3645  0.1240 -0.3958
 3489TIP3    H131958   1.205   2.323  16.809  0.9159  0.0439 -0.0252
 3489TIP3    H231959   1.139   2.251  16.925  0.1926  0.0196 -0.4470
 3490TIP3   OH231960   1.512   5.987   4.181  0.0110 -0.5072 -0.3159
 3490TIP3    H131961   1.595   5.941   4.195  0.2276  0.1552  0.5923
 3490TIP3    H231962   1.509   6.054   4.249 -0.3123  0.8312 -1.6064
 3491TIP3   OH231963   3.310   3.563   5.101  0.0403  0.1618 -0.0826
 3491TIP3    H131964   3.248   3.535   5.034 -0.0962 -1.6045  0.7450
 3491TIP3    H231965   3.258   3.613   5.163 -0.3603 -0.3965  0.0378
 3492TIP3   OH231966   2.386   0.609   0.947 -0.3151 -0.1211  0.1324
 3492TIP3    H131967   2.414   0.518   0.959 -0.5655  0.0232  1.9679
 3492TIP3    H231968   2.461   0.661   0.975 -0.3840  0.2405 -0.3567
 3493TIP3   OH231969   0.552   4.164   0.375  0.0770  0.2925  0.8383
 3493TIP3    H131970   0.632   4.126   0.339  1.4273  2.2663  1.6445
 3493TIP3    H231971   0.515   4.215   0.303 -0.5727 -0.7459  0.4176
 3494TIP3   OH231972   6.783   3.116   3.451  0.2510  0.0307  0.4163
 3494TIP3    H131973   6.860   3.065   3.477  0.9519  1.6783  1.6989
 3494TIP3    H231974   6.806   3.155   3.367  0.3682 -0.4143  0.2450
 3495TIP3   OH231975   0.085   4.541  11.389  0.0680  0.3360  0.5210
 3495TIP3    H131976  -0.002   4.554  11.351  0.3639 -0.4371 -0.4290
 3495TIP3    H231977   0.076   4.571  11.480 -1.6563 -1.2729  0.9170
 3496TIP3   OH231978   2.539   3.643   0.405 -0.1201 -0.5972  0.0976
 3496TIP3    H131979   2.584   3.571   0.450  1.1500  0.8309  1.1564
 3496TIP3    H231980   2.449   3.612   0.395  0.4477 -2.4128  0.3609
 3497TIP3   OH231981   0.771   1.339  13.571 -0.1093 -0.2342 -0.1255
 3497TIP3    H131982   0.715   1.342  13.494  2.0430 -1.8042 -1.8263
 3497TIP3    H231983   0.844   1.397  13.550  1.2565 -1.8455  0.0674
 3498TIP3   OH231984   1.178   4.243  16.205  0.2572  0.7606  0.3140
 3498TIP3    H131985   1.146   4.306  16.141  0.0871 -0.2515 -0.6153
 3498TIP3    H231986   1.139   4.270  16.288 -1.7313  0.4939 -0.5069
 3499TIP3   OH231987   4.324   5.382   3.595 -0.5197 -0.2700  0.4890
 3499TIP3    H131988   4.358   5.443   3.530 -2.9543 -0.6503 -1.2007
 3499TIP3    H231989   4.387   5.309   3.594 -1.0045 -0.7073 -2.1593
 3500TIP3   OH231990   3.256   6.497   1.057 -0.3493  0.1272 -0.5726
 3500TIP3    H131991   3.324   6.476   0.993 -0.1351  1.0498 -0.6622
 3500TIP3    H231992   3.231   6.587   1.037  0.1839  0.6617  1.0516
 3501TIP3   OH231993   1.412   4.110   2.351 -0.5045  0.3456  0.1021
 3501TIP3    H131994   1.427   4.088   2.443 -2.0799 -0.3489  0.2166
 3501TIP3    H231995   1.439   4.032   2.303  1.5220  1.1734 -0.1424
 3502TIP3   OH231996   0.992   2.232   5.516  0.1970 -0.0204  0.2688
 3502TIP3    H131997   0.918   2.200   5.465 -1.8419  0.0596  3.0531
 3502TIP3    H231998   0.988   2.327   5.508 -0.5979  0.0312  1.1757
 3503TIP3   OH231999   3.287   6.141   2.523 -0.5793  0.4056  0.6094
 3503TIP3    H132000   3.314   6.065   2.576  1.6563 -0.2195 -1.3350
 3503TIP3    H232001   3.223   6.106   2.462 -1.2635  0.5885  1.2154
 3504TIP3   OH232002   1.717   3.954  14.332  0.1864 -0.4051  0.2708
 3504TIP3    H132003   1.689   3.899  14.405 -0.3130 -0.2080  0.2317
 3504TIP3    H232004   1.643   4.012  14.316  0.2577 -0.5097 -0.4598
 3505TIP3   OH232005   5.786   4.918   4.153  0.4146 -0.5048  0.3043
 3505TIP3    H132006   5.743   4.990   4.107  1.5051 -0.4708 -0.6844
 3505TIP3    H232007   5.813   4.858   4.083 -0.3628 -1.8102  1.1046
 3506TIP3   OH232008   0.364   6.410  15.079 -0.3335 -0.0892  0.4056
 3506TIP3    H132009   0.295   6.423  15.013 -1.8875 -1.2083  1.7446
 3506TIP3    H232010   0.415   6.336  15.045  1.4573  1.9786 -1.5551
 3507TIP3   OH232011   0.148   1.562   3.922  0.1814 -0.1980 -0.0522
 3507TIP3    H132012   0.103   1.478   3.919 -1.0315  0.4776 -2.7459
 3507TIP3    H232013   0.235   1.544   3.887  0.7009 -0.7501  1.4940
 3508TIP3   OH232014   3.217   4.518   0.093  0.0080  0.3664 -0.3908
 3508TIP3    H132015   3.258   4.474   0.019 -1.5988 -1.8187 -0.0316
 3508TIP3    H232016   3.282   4.514   0.163 -0.0027 -1.2169 -0.4606
 3509TIP3   OH232017   6.398   0.485   3.329  0.1417 -0.0888  0.2105
 3509TIP3    H132018   6.304   0.476   3.344  0.5577 -2.0802  1.8075
 3509TIP3    H232019   6.414   0.433   3.250 -0.2293  1.1183 -0.6878
 3510TIP3   OH232020   3.876   3.524   6.032  0.1824 -0.1996  0.5735
 3510TIP3    H132021   3.907   3.598   5.980 -0.1935 -0.2798  0.2355
 3510TIP3    H232022   3.838   3.564   6.110 -0.2051 -0.0228  0.2968
 3511TIP3   OH232023   1.265   2.936  12.781  0.3828 -0.0214  0.2645
 3511TIP3    H132024   1.248   2.952  12.688 -1.9024  3.3030  1.1478
 3511TIP3    H232025   1.189   2.885  12.810  0.8227 -0.5794  0.4480
 3512TIP3   OH232026   3.627   0.876   3.814  0.0772  0.5378  0.1231
 3512TIP3    H132027   3.716   0.907   3.797  0.3207  0.2668  0.8920
 3512TIP3    H232028   3.633   0.781   3.814 -0.2771  0.5121 -0.1476
 3513TIP3   OH232029   5.715   5.241   2.792  0.4801 -0.0784 -0.1172
 3513TIP3    H132030   5.699   5.164   2.846  1.5860 -0.0169  0.3168
 3513TIP3    H232031   5.695   5.315   2.849  0.7502 -0.0277 -0.0862
 3514TIP3   OH232032   6.485   5.637  10.789  0.1144  0.0844 -0.5508
 3514TIP3    H132033   6.447   5.671  10.870  1.7170  0.7183 -0.0459
 3514TIP3    H232034   6.574   5.673  10.788  0.8702 -1.7770 -1.4465
 3515TIP3   OH232035   5.521   0.129   3.210 -0.2034  0.3062  0.1097
 3515TIP3    H132036   5.580   0.194   3.171 -1.2478  0.9719 -0.3787
 3515TIP3    H232037   5.551   0.045   3.174  1.0623  0.5176  0.6327
 3516TIP3   OH232038   5.021   3.890  13.922 -0.4397  0.0054 -0.3952
 3516TIP3    H132039   5.015   3.872  13.828  0.1649  0.1302 -0.4626
 3516TIP3    H232040   5.098   3.946  13.931 -1.0565  0.7963  0.0652
 3517TIP3   OH232041   3.323   4.414  13.572  0.0227  0.4222  0.2538
 3517TIP3    H132042   3.248   4.363  13.602  0.4952  0.7712  2.1178
 3517TIP3    H232043   3.364   4.359  13.505  0.0263 -1.2983  1.6198
 3518TIP3   OH232044   5.511   4.341  16.832  0.1232  0.5669 -0.2260
 3518TIP3    H132045   5.594   4.304  16.800  0.4532  2.7703 -2.0377
 3518TIP3    H232046   5.457   4.264  16.851  1.9257 -0.8895 -0.7858
 3519TIP3   OH232047   6.723   4.132  14.231 -0.2314 -0.4655 -0.0004
 3519TIP3    H132048   6.774   4.068  14.183 -0.2489 -0.8538  0.4909
 3519TIP3    H232049   6.722   4.099  14.321 -0.0386  0.3423  0.3037
 3520TIP3   OH232050   0.752   4.703   2.004 -0.1875 -0.2968  0.0917
 3520TIP3    H132051   0.763   4.672   1.915  0.5155 -0.7390  0.3300
 3520TIP3    H232052   0.814   4.776   2.012 -0.6138  0.0748  0.0653
 3521TIP3   OH232053   6.712   4.089   6.904  0.1175  0.0972  0.1046
 3521TIP3    H132054   6.769   4.024   6.863  1.5574  1.0038  0.6775
 3521TIP3    H232055   6.624   4.062   6.877  0.6865 -2.0913  0.3266
 3522TIP3   OH232056   2.966   5.713  13.340 -0.7658 -0.0722 -0.1536
 3522TIP3    H132057   3.002   5.801  13.326  4.4696 -1.9191  0.4099
 3522TIP3    H232058   2.948   5.681  13.252  1.2174  0.1601 -0.6853
 3523TIP3   OH232059   2.269   0.517  10.309 -0.6235 -0.5833 -0.1743
 3523TIP3    H132060   2.186   0.544  10.351 -1.3387 -2.1711 -0.5449
 3523TIP3    H232061   2.272   0.422  10.320  0.0966 -0.8013 -2.0964
 3524TIP3   OH232062   2.036   4.841   2.308 -0.1152  0.2670  0.0685
 3524TIP3    H132063   1.943   4.865   2.314 -0.0260  0.6468 -0.1103
 3524TIP3    H232064   2.083   4.924   2.312  0.2626  0.0135  1.0346
 3525TIP3   OH232065   6.105   0.016  12.033  0.2766 -0.5337 -0.3219
 3525TIP3    H132066   6.066  -0.002  11.948  2.8748 -1.6092 -1.3426
 3525TIP3    H232067   6.114  -0.070  12.075 -3.2917  0.1987  2.1565
 3526TIP3   OH232068   0.995   2.778   0.517  0.4363  0.3057 -0.3659
 3526TIP3    H132069   1.067   2.756   0.459  0.2839 -1.1671 -0.0053
 3526TIP3    H232070   1.032   2.841   0.579  1.3652 -0.3206 -0.2820
 3527TIP3   OH232071   5.891   0.746  10.641  0.1433  0.8610  0.0598
 3527TIP3    H132072   5.971   0.701  10.612 -0.8079 -0.8403  0.0221
 3527TIP3    H232073   5.912   0.839  10.633  2.3287  0.4467  0.6340
 3528TIP3   OH232074   2.068   6.564  14.143 -0.8651  0.0684  0.4135
 3528TIP3    H132075   2.071   6.616  14.223 -2.2838  0.3091  0.3364
 3528TIP3    H232076   1.974   6.549  14.128 -0.6082 -0.0671 -1.1406
 3529TIP3   OH232077   5.985   0.211   0.952  0.6866  0.0597  0.3034
 3529TIP3    H132078   6.031   0.222   0.868 -1.5127  1.1195 -0.8035
 3529TIP3    H232079   5.893   0.226   0.931  0.0498 -0.0327  2.8598
 3530TIP3   OH232080   6.380   0.162  12.241  0.2920  0.5349 -0.0788
 3530TIP3    H132081   6.331   0.241  12.265 -0.1144  0.0857  0.5905
 3530TIP3    H232082   6.458   0.165  12.296 -0.1323  0.0405  0.5507
 3531TIP3   OH232083   5.508   0.958  16.310  0.2202 -0.2458 -0.1811
 3531TIP3    H132084   5.524   0.998  16.395  0.3182 -0.1682 -0.2393
 3531TIP3    H232085   5.418   0.925  16.317  0.2514 -0.3006 -0.0262
 3532TIP3   OH232086   3.518   0.277  15.633 -0.3261  0.1163  0.3244
 3532TIP3    H132087   3.431   0.250  15.663 -1.2750  1.5295 -1.0758
 3532TIP3    H232088   3.517   0.373  15.642  2.1122 -0.0653  2.9931
 3533TIP3   OH232089   2.933   3.408   2.641 -0.2794  0.5883  0.3355
 3533TIP3    H132090   2.891   3.380   2.722 -1.5718  2.3958  0.3440
 3533TIP3    H232091   2.908   3.342   2.577 -2.1764  0.9604  0.6423
 3534TIP3   OH232092   6.789   2.460   6.147 -0.1485 -0.1444  0.3751
 3534TIP3    H132093   6.715   2.520   6.135 -0.6322 -1.0248 -1.2799
 3534TIP3    H232094   6.843   2.502   6.214 -2.2560  0.4064  1.7860
 3535TIP3   OH232095   5.152   3.794   4.437  0.1197  0.0312 -0.0322
 3535TIP3    H132096   5.138   3.881   4.474 -0.7488 -0.2338  0.2752
 3535TIP3    H232097   5.095   3.736   4.488  0.7652 -0.7357 -0.1687
 3536TIP3   OH232098   3.238   2.443  15.353 -0.3505  0.8777 -0.1735
 3536TIP3    H132099   3.145   2.440  15.376 -0.6838  1.5628 -1.3738
 3536TIP3    H232100   3.255   2.360  15.310  0.2649 -0.3891  2.4190
 3537TIP3   OH232101   2.922   0.249   2.279 -0.2014 -0.6520 -0.3173
 3537TIP3    H132102   2.836   0.285   2.300  0.1576  0.0072  0.0431
 3537TIP3    H232103   2.973   0.259   2.359  0.9593  1.2261 -1.2384
 3538TIP3   OH232104   2.644   3.330  14.878  0.4529 -0.0164  0.1660
 3538TIP3    H132105   2.664   3.422  14.858 -1.9106  0.3118 -0.7841
 3538TIP3    H232106   2.691   3.280  14.811  0.6305  0.5818 -0.1594
 3539TIP3   OH232107   6.582   0.119   4.392  1.2386  1.0097  0.5545
 3539TIP3    H132108   6.595   0.047   4.454  0.6266  0.2458 -0.1852
 3539TIP3    H232109   6.576   0.197   4.447  0.9171  0.3688  1.4449
 3540TIP3   OH232110   6.173   2.800  14.735  0.4666  0.0744 -0.2124
 3540TIP3    H132111   6.160   2.873  14.795  0.6246 -1.2372  1.4487
 3540TIP3    H232112   6.251   2.824  14.685 -0.3912  1.7468 -0.8051
 3541TIP3   OH232113   0.135   0.492   2.530 -0.2845  0.7916  0.5003
 3541TIP3    H132114   0.213   0.529   2.488 -0.1467 -0.3841 -0.3104
 3541TIP3    H232115   0.111   0.556   2.597 -0.4125  2.6267 -1.2587
 3542TIP3   OH232116   4.004   6.176   5.145 -0.2120 -0.2153 -0.0227
 3542TIP3    H132117   3.960   6.222   5.216  1.8578  1.2646  0.3508
 3542TIP3    H232118   4.097   6.197   5.157  0.6648 -3.5125 -0.5767
 3543TIP3   OH232119   3.631   6.652  14.370  0.3807 -0.0842 -0.3913
 3543TIP3    H132120   3.611   6.739  14.405  0.4105  0.2246 -1.1296
 3543TIP3    H232121   3.712   6.665  14.320  0.6336 -0.6306 -0.1177
 3544TIP3   OH232122   2.378   2.138   4.010 -0.7630  0.5228  0.5225
 3544TIP3    H132123   2.359   2.047   3.987  0.2345  0.0960  1.3287
 3544TIP3    H232124   2.320   2.157   4.084  0.2233 -0.0211  1.4586
 3545TIP3   OH232125   3.436   1.605  16.750 -1.0562 -0.2996  0.2896
 3545TIP3    H132126   3.523   1.565  16.749 -1.1831 -0.6549  1.5257
 3545TIP3    H232127   3.406   1.592  16.840 -2.8534 -1.2263 -0.4115
 3546TIP3   OH232128   5.911   1.914   0.104 -0.2354 -0.0450  0.2208
 3546TIP3    H132129   5.815   1.909   0.110 -0.2000 -0.5377  0.4498
 3546TIP3    H232130   5.938   1.961   0.183 -0.1800 -1.3570  1.0090
 3547TIP3   OH232131   0.098   1.651   2.942 -0.4536  0.7376 -0.6975
 3547TIP3    H132132   0.099   1.744   2.919 -1.6477  1.1407  0.7183
 3547TIP3    H232133   0.041   1.610   2.876 -1.1552  1.2911 -0.4473
 3548TIP3   OH232134   0.264   0.682   2.353 -0.7356 -0.1478  0.4101
 3548TIP3    H132135   0.256   0.770   2.318 -0.1374 -0.0660  0.4803
 3548TIP3    H232136   0.232   0.625   2.283  0.3023  0.0254 -0.2091
 3549TIP3   OH232137   1.683   6.554   5.366  0.2214  0.1295 -0.4859
 3549TIP3    H132138   1.727   6.484   5.415  2.8533  1.0654 -1.3839
 3549TIP3    H232139   1.656   6.617   5.434  0.7530 -0.2232  0.0645
 3550TIP3   OH232140   4.245   0.509  15.844 -0.1377 -0.2622 -0.2677
 3550TIP3    H132141   4.283   0.593  15.820  0.8750 -1.0258 -1.4012
 3550TIP3    H232142   4.157   0.511  15.806 -0.0956  0.2569 -0.3433
 3551TIP3   OH232143   1.220   1.026  14.633 -0.4468 -0.2756  0.2489
 3551TIP3    H132144   1.302   1.027  14.682 -0.2691 -0.2313 -0.0464
 3551TIP3    H232145   1.211   1.116  14.599  1.0443 -1.0881 -2.4457
 3552TIP3   OH232146   2.512   6.587   2.006  0.1588  0.3927  0.2421
 3552TIP3    H132147   2.497   6.619   2.095 -2.1066 -0.7887  0.3348
 3552TIP3    H232148   2.495   6.663   1.951  1.5556  1.1259  0.8180
 3553TIP3   OH232149   4.240   2.717  11.276  0.1644  0.3546 -0.0341
 3553TIP3    H132150   4.151   2.682  11.264 -0.2513  0.0861  3.3005
 3553TIP3    H232151   4.295   2.662  11.222 -1.4613 -0.7616 -0.5920
 3554TIP3   OH232152   0.984   2.808   3.244  0.1108  0.0664  0.1798
 3554TIP3    H132153   1.002   2.751   3.169 -0.4578  0.9736 -0.6470
 3554TIP3    H232154   1.057   2.870   3.245  1.1629 -1.1482  1.5660
 3555TIP3   OH232155   6.686   6.250  16.514  0.1227  0.5450 -0.3737
 3555TIP3    H132156   6.630   6.326  16.496 -1.4301 -0.3697  0.4213
 3555TIP3    H232157   6.624   6.179  16.532  1.5550 -0.4421  0.7807
 3556TIP3   OH232158   0.546   3.841   2.178  0.4517  0.4874 -0.1688
 3556TIP3    H132159   0.615   3.801   2.126  0.3471 -0.8863  0.7448
 3556TIP3    H232160   0.569   3.822   2.269 -0.1155  1.6557  0.2331
 3557TIP3   OH232161   4.308   1.869   0.024 -0.1810  0.1097 -0.1793
 3557TIP3    H132162   4.386   1.827   0.062 -0.3608  0.4318  0.5636
 3557TIP3    H232163   4.287   1.939   0.085 -2.1266 -1.1016  0.5977
 3558TIP3   OH232164   6.291   1.346  11.937 -0.8031  0.0532  0.3919
 3558TIP3    H132165   6.307   1.315  11.847 -1.2715 -0.0954  0.3540
 3558TIP3    H232166   6.273   1.266  11.987 -0.1864  0.1062  0.6958
 3559TIP3   OH232167   2.379   2.492  11.398  0.4123 -0.1376  0.6847
 3559TIP3    H132168   2.455   2.515  11.345 -0.0311 -1.5947 -0.6099
 3559TIP3    H232169   2.405   2.414  11.446  0.1781  0.1040  1.2096
 3560TIP3   OH232170   6.507   0.614   5.798  0.2135  0.5321 -0.3940
 3560TIP3    H132171   6.461   0.532   5.781  0.8982  0.3466 -1.3728
 3560TIP3    H232172   6.463   0.678   5.741 -1.2553  1.1808  1.4031
 3561TIP3   OH232173   3.698   2.265   5.012  0.4598  0.1082  0.4586
 3561TIP3    H132174   3.769   2.278   5.075  0.3259  1.8750  0.2643
 3561TIP3    H232175   3.691   2.349   4.966 -1.0870 -0.3659 -0.2032
 3562TIP3   OH232176   2.509   0.891   0.804  0.3180  0.7636  0.0566
 3562TIP3    H132177   2.458   0.830   0.752  1.7173 -0.7766  0.4532
 3562TIP3    H232178   2.598   0.855   0.803  1.3101  3.1204 -0.2243
 3563TIP3   OH232179   0.944   3.643  15.146  0.1568  0.1664 -0.2896
 3563TIP3    H132180   0.869   3.594  15.111 -0.7548  0.5524  1.1115
 3563TIP3    H232181   0.973   3.592  15.222  0.4736  0.7470 -0.0231
 3564TIP3   OH232182   6.631   2.183   0.888  0.4798 -0.1101 -0.3044
 3564TIP3    H132183   6.542   2.217   0.878  0.4287 -0.2254 -0.2447
 3564TIP3    H232184   6.687   2.256   0.862  0.3724  0.0271 -0.1523
 3565TIP3   OH232185   5.215   2.964  16.095  0.1493  0.1684 -0.0391
 3565TIP3    H132186   5.268   2.973  16.174 -0.4828  0.8604  0.3064
 3565TIP3    H232187   5.279   2.956  16.024  0.7175  0.8126  0.3978
 3566TIP3   OH232188   1.634   2.959   3.828 -0.2486  0.5647  0.9818
 3566TIP3    H132189   1.652   2.879   3.778 -2.4025  1.6540 -1.7045
 3566TIP3    H232190   1.710   2.969   3.886  1.6549 -1.6073 -1.0081
 3567TIP3   OH232191   1.985   6.769   4.004  1.3041 -0.4845  0.0264
 3567TIP3    H132192   1.982   6.803   4.093 -0.2795  0.4892 -0.3678
 3567TIP3    H232193   2.077   6.748   3.988  1.7078  0.0499  1.6183
 3568TIP3   OH232194   6.573   3.267   5.971 -0.4698  0.3884 -0.0870
 3568TIP3    H132195   6.537   3.203   5.910  0.1129 -0.0941  0.0751
 3568TIP3    H232196   6.665   3.275   5.946 -0.6851  1.6525 -0.5388
 3569TIP3   OH232197   1.612   2.260  12.009  0.3116  0.4167 -0.9012
 3569TIP3    H132198   1.539   2.274  12.070  1.2188 -2.2342  0.8799
 3569TIP3    H232199   1.667   2.338  12.021 -1.7571  2.0623 -1.6745
 3570TIP3   OH232200   3.807   5.689   2.930 -0.5656 -0.4032  0.1284
 3570TIP3    H132201   3.833   5.663   2.842 -0.9357  2.6208 -0.9457
 3570TIP3    H232202   3.870   5.646   2.988  0.2558 -1.6717 -1.6735
 3571TIP3   OH232203   4.474   6.190  15.725  0.4599  0.0645  0.3657
 3571TIP3    H132204   4.444   6.227  15.642 -0.8923 -2.5460 -0.3513
 3571TIP3    H232205   4.569   6.183  15.715  0.7645  3.2543  0.5402
 3572TIP3   OH232206   1.064   5.640  14.746 -0.1021 -0.2861 -0.4518
 3572TIP3    H132207   1.156   5.612  14.751 -0.8094 -2.4112  1.9858
 3572TIP3    H232208   1.063   5.726  14.788  0.4892 -1.1459  1.3914
 3573TIP3   OH232209   3.275   4.917   1.336  0.2251 -0.0815 -0.8341
 3573TIP3    H132210   3.328   4.997   1.343  2.7765 -1.8046  0.0862
 3573TIP3    H232211   3.211   4.937   1.267  0.3926  2.9657 -0.1815
 3574TIP3   OH232212   4.271   1.832   0.434 -0.0506  0.5524  0.0148
 3574TIP3    H132213   4.276   1.927   0.440  1.4559  0.5882 -1.4404
 3574TIP3    H232214   4.360   1.805   0.413 -0.8652 -1.0284 -1.5099
 3575TIP3   OH232215   0.849   3.922  16.670  0.5893  0.5358 -0.5101
 3575TIP3    H132216   0.914   3.862  16.634 -0.6645 -0.0770 -1.8275
 3575TIP3    H232217   0.842   3.898  16.762  2.0531  0.4748 -0.4046
 3576TIP3   OH232218   4.606   1.875  14.274 -0.7703  0.0561  0.9386
 3576TIP3    H132219   4.597   1.970  14.287 -2.0016 -0.0158  0.6978
 3576TIP3    H232220   4.556   1.857  14.194  0.6641 -0.5917  0.1781
 3577TIP3   OH232221   3.074   3.376  14.878  0.2544  0.0377  0.0493
 3577TIP3    H132222   3.107   3.313  14.941 -1.3861 -0.7638  0.1403
 3577TIP3    H232223   2.998   3.333  14.839 -0.4945  1.6819 -0.3519
 3578TIP3   OH232224   5.285   5.078  15.261  0.6830 -0.1386  0.4605
 3578TIP3    H132225   5.304   5.012  15.328 -0.6638  0.9233  1.9070
 3578TIP3    H232226   5.254   5.154  15.309  2.8282  1.8274 -1.1385
 3579TIP3   OH232227   4.293   3.791  11.561 -0.1832  0.1976 -0.1488
 3579TIP3    H132228   4.234   3.833  11.624 -1.4222  0.0350 -1.1765
 3579TIP3    H232229   4.379   3.791  11.604 -0.6892  1.5079  0.8871
 3580TIP3   OH232230   3.744   1.270  13.783  0.9640  0.4123 -0.3448
 3580TIP3    H132231   3.697   1.263  13.699 -0.0942  1.6741  0.1313
 3580TIP3    H232232   3.723   1.357  13.815  1.8954  0.1747  0.9370
 3581TIP3   OH232233   6.462   0.436  16.128  0.1292 -0.2942 -0.5817
 3581TIP3    H132234   6.539   0.442  16.184 -0.8007 -1.9764  0.9701
 3581TIP3    H232235   6.473   0.353  16.082 -1.8184 -1.7469  1.4199
 3582TIP3   OH232236   0.422   1.280  11.613  0.0547 -0.4383  0.1233
 3582TIP3    H132237   0.373   1.300  11.533  0.6339 -0.3063 -0.1985
 3582TIP3    H232238   0.507   1.250  11.582  0.4371  0.0406  0.6982
 3583TIP3   OH232239   5.753   5.108  16.205 -0.0538  0.1595 -0.2289
 3583TIP3    H132240   5.694   5.033  16.211 -1.1479  0.9854 -0.5191
 3583TIP3    H232241   5.768   5.135  16.296  0.5879 -0.5873 -0.1086
 3584TIP3   OH232242   0.000   1.813  14.171  0.1894  0.1381 -0.2131
 3584TIP3    H132243  -0.026   1.802  14.079 -1.4926  2.2399 -0.0329
 3584TIP3    H232244  -0.070   1.772  14.221 -0.5972  1.9205  0.1872
 3585TIP3   OH232245   3.014   6.257  16.969 -0.4177  0.5744 -1.2026
 3585TIP3    H132246   3.034   6.295  17.054 -0.3264 -1.3766 -0.3192
 3585TIP3    H232247   2.933   6.300  16.942 -1.6047 -0.2881  0.8530
 3586TIP3   OH232248   1.558   2.180  15.730  0.3835 -0.4066  0.4220
 3586TIP3    H132249   1.633   2.202  15.785 -1.0790 -0.5112  2.5669
 3586TIP3    H232250   1.521   2.265  15.704 -0.0439 -0.3270  1.2521
 3587TIP3   OH232251   6.439   5.454   0.183  0.0141  0.2156 -0.7656
 3587TIP3    H132252   6.372   5.494   0.237 -0.6080  2.5403 -3.1183
 3587TIP3    H232253   6.401   5.371   0.154 -0.0962 -0.4981  1.3357
 3588TIP3   OH232254   2.921   0.335  12.360 -0.5333  0.4494  0.1814
 3588TIP3    H132255   2.970   0.264  12.318 -1.8140 -1.4558  1.8063
 3588TIP3    H232256   2.986   0.383  12.410  0.2151 -0.0514 -0.3068
 3589TIP3   OH232257   3.511   2.745   5.571 -0.0565 -0.5673  0.1841
 3589TIP3    H132258   3.537   2.803   5.499 -0.2199 -0.3595  0.2908
 3589TIP3    H232259   3.591   2.732   5.621 -0.1936  0.2386  0.6266
 3590TIP3   OH232260   3.320   3.933   3.395  0.0056  0.2942 -0.1983
 3590TIP3    H132261   3.342   3.921   3.487  0.3282 -0.1401 -0.3321
 3590TIP3    H232262   3.241   3.881   3.382  1.4307 -1.7880 -0.7917
 3591TIP3   OH232263   3.902   2.909  14.668 -0.3538 -0.1867 -0.0920
 3591TIP3    H132264   3.873   2.930  14.579  0.4305  0.9688 -0.0897
 3591TIP3    H232265   3.892   2.814  14.675 -2.1475 -0.0640 -0.7807
 3592TIP3   OH232266   2.834   1.150  14.765 -0.0026 -0.5065 -0.9820
 3592TIP3    H132267   2.744   1.173  14.741 -0.3126 -1.8254 -1.0943
 3592TIP3    H232268   2.888   1.192  14.698 -0.4998  0.5884 -0.7157
 3593TIP3   OH232269   4.273   6.242  16.255  0.0393 -0.4582  0.0465
 3593TIP3    H132270   4.288   6.314  16.193 -0.1450  0.2097  0.7777
 3593TIP3    H232271   4.240   6.171  16.200  0.7197 -0.1678 -0.7663
 3594TIP3   OH232272   4.784   1.531  15.405  0.4825 -0.2700  0.2734
 3594TIP3    H132273   4.748   1.507  15.320 -0.0285  0.0464  0.4006
 3594TIP3    H232274   4.817   1.620  15.394 -0.2069  0.0296  0.5942
 3595TIP3   OH232275   5.491   2.720   3.606  0.0944  0.0210  0.3424
 3595TIP3    H132276   5.452   2.803   3.637 -0.9678  0.0204 -0.9533
 3595TIP3    H232277   5.581   2.743   3.585 -0.3697  1.0036 -0.6111
 3596TIP3   OH232278   1.732   5.568   5.545 -0.0600  0.0103 -0.5085
 3596TIP3    H132279   1.729   5.491   5.488 -0.1927  0.0415 -0.5434
 3596TIP3    H232280   1.641   5.580   5.574 -0.1174  0.4277 -0.8657
 3597TIP3   OH232281   5.225   3.179  13.066 -0.2985 -0.0058  0.0592
 3597TIP3    H132282   5.210   3.170  13.160 -0.4846 -0.7426 -0.0369
 3597TIP3    H232283   5.311   3.138  13.051  0.7486  2.0642  0.2389
 3598TIP3   OH232284   3.108   3.791   0.159  0.1984  0.1408 -0.2780
 3598TIP3    H132285   3.027   3.771   0.114  0.3176 -2.6326  0.6733
 3598TIP3    H232286   3.082   3.816   0.247  0.2225  1.9989 -0.7690
 3599TIP3   OH232287   6.116   0.488  14.653 -0.2404  0.6261  0.3005
 3599TIP3    H132288   6.107   0.555  14.585 -4.6373 -2.2690 -2.2114
 3599TIP3    H232289   6.128   0.406  14.604 -2.0591 -1.3473  3.0132
 3600TIP3   OH232290   5.663   1.841  16.356 -0.4876  0.6130  0.0195
 3600TIP3    H132291   5.754   1.866  16.375 -1.5919  4.1121  0.9918
 3600TIP3    H232292   5.627   1.818  16.441 -1.4402  2.5515  0.1638
 3601TIP3   OH232293   0.826   4.552   1.782  0.2930 -0.2976 -0.2631
 3601TIP3    H132294   0.757   4.490   1.757 -0.8336  1.1080 -0.7095
 3601TIP3    H232295   0.843   4.602   1.702  2.8035 -1.5109 -0.5346
 3602TIP3   OH232296   3.183   1.764  15.452 -0.1978 -0.1020  0.3291
 3602TIP3    H132297   3.105   1.774  15.397  0.3921  1.1584 -0.3035
 3602TIP3    H232298   3.252   1.809  15.403  0.6043  0.0021  1.5506
 3603TIP3   OH232299   4.645   2.552   3.985  0.1978  0.3059 -0.0690
 3603TIP3    H132300   4.731   2.579   4.015 -0.1304 -1.0227  2.2329
 3603TIP3    H232301   4.662   2.479   3.925  0.6416 -1.4166  2.0744
 3604TIP3   OH232302   2.447   3.453   2.611 -0.9566  0.2116  0.4423
 3604TIP3    H132303   2.359   3.414   2.604  0.0371 -1.8708 -1.0044
 3604TIP3    H232304   2.481   3.448   2.522  1.2162 -0.3582  1.2984
 3605TIP3   OH232305   6.188   0.939  13.019  0.1854  0.4590 -0.3284
 3605TIP3    H132306   6.132   0.928  13.096  1.0719 -2.4058 -0.0266
 3605TIP3    H232307   6.127   0.958  12.947 -0.9657 -0.2657  0.4360
 3606TIP3   OH232308   1.283   3.947  15.652 -0.1734  0.0029  0.3481
 3606TIP3    H132309   1.255   3.942  15.561 -2.4209 -1.9627  1.0983
 3606TIP3    H232310   1.240   4.025  15.686 -0.9226 -0.3461  0.2202
 3607TIP3   OH232311   6.145   1.753  14.145  0.1683 -0.4557 -0.0252
 3607TIP3    H132312   6.078   1.821  14.149 -0.0022 -0.6678  0.9348
 3607TIP3    H232313   6.125   1.704  14.066  0.7660  1.0944 -1.1601
 3608TIP3   OH232314   2.742   3.874   0.389 -0.5373 -0.0114  0.8780
 3608TIP3    H132315   2.793   3.953   0.411  0.0835  0.6009 -2.5466
 3608TIP3    H232316   2.669   3.875   0.452  0.1155  2.6453  1.6701
 3609TIP3   OH232317   2.681   3.806   1.490 -0.0473 -0.1912 -0.3610
 3609TIP3    H132318   2.605   3.846   1.532  0.5685  0.2710  0.3261
 3609TIP3    H232319   2.671   3.712   1.505 -0.3080 -0.1002  0.0303
 3610TIP3   OH232320   1.497   2.426  11.816  0.5388  0.1440 -0.4919
 3610TIP3    H132321   1.488   2.426  11.912  0.8591 -0.0631 -0.4607
 3610TIP3    H232322   1.592   2.431  11.801  0.4533  0.9125 -0.8025
 3611TIP3   OH232323   3.823   3.599   0.617  0.1367 -0.4900  0.0245
 3611TIP3    H132324   3.893   3.638   0.670  0.1617 -2.8631  1.7805
 3611TIP3    H232325   3.855   3.512   0.595 -1.3577 -0.7878 -1.0373
 3612TIP3   OH232326   6.541   3.144   0.663 -0.0156  0.1329  0.1130
 3612TIP3    H132327   6.601   3.218   0.667 -0.0687  0.3043 -1.6988
 3612TIP3    H232328   6.588   3.071   0.704 -0.1426  1.2550  2.3342
 3613TIP3   OH232329   4.311   6.602  12.376  0.5734  0.1672  0.4495
 3613TIP3    H132330   4.369   6.609  12.452  2.3486 -0.2686 -0.8347
 3613TIP3    H232331   4.357   6.650  12.307 -1.4610  1.3619 -0.1123
 3614TIP3   OH232332   2.616   4.376  13.929 -0.2801  0.2366  0.3985
 3614TIP3    H132333   2.525   4.347  13.939 -0.7648  1.4102 -0.4673
 3614TIP3    H232334   2.626   4.447  13.992  0.1898 -0.1988  0.8238
 3615TIP3   OH232335   5.899   3.848  15.082  0.9113 -0.5493  0.1404
 3615TIP3    H132336   5.982   3.799  15.078  0.1492 -1.9329  0.6798
 3615TIP3    H232337   5.914   3.926  15.029  2.7356 -0.5197  0.6578
 3616TIP3   OH232338   3.789   4.158  16.207 -0.3232 -0.2139 -0.0166
 3616TIP3    H132339   3.799   4.065  16.226  0.2718  0.0968  1.2139
 3616TIP3    H232340   3.875   4.195  16.222 -0.2805  0.3478 -1.6405
 3617TIP3   OH232341   4.164   6.111  10.412 -0.3513  0.2027 -0.0031
 3617TIP3    H132342   4.126   6.191  10.448 -1.0305  0.2989 -0.9302
 3617TIP3    H232343   4.191   6.135  10.323  0.0334 -0.4263 -0.0597
 3618TIP3   OH232344   1.314   5.943   3.030 -0.2967  0.6949 -0.3766
 3618TIP3    H132345   1.330   6.038   3.031 -0.5999  0.7417  0.4278
 3618TIP3    H232346   1.306   5.920   3.123  0.6234 -0.2622 -0.5304
 3619TIP3   OH232347   1.308   2.930  16.754 -0.4131  0.6637 -0.3136
 3619TIP3    H132348   1.309   2.841  16.790  1.8860 -0.6655 -3.4953
 3619TIP3    H232349   1.353   2.983  16.820 -2.8512 -0.2139  2.1705
 3620TIP3   OH232350   4.738   1.894   1.570 -0.1491 -0.2741  0.3433
 3620TIP3    H132351   4.733   1.978   1.523  1.3113  0.2397  1.0879
 3620TIP3    H232352   4.777   1.834   1.508 -0.4685 -0.2031  0.0729
 3621TIP3   OH232353   5.313   1.094  10.678 -0.7706 -0.2743 -0.5247
 3621TIP3    H132354   5.338   1.186  10.672  1.1036 -0.7705 -0.6688
 3621TIP3    H232355   5.246   1.091  10.746  1.2313  0.7928  1.5200
 3622TIP3   OH232356   5.583   3.653   1.089 -0.1100 -0.4782  0.3371
 3622TIP3    H132357   5.561   3.666   1.181 -2.8746  0.3971 -0.3781
 3622TIP3    H232358   5.547   3.566   1.068  2.0594 -1.4346  0.5062
 3623TIP3   OH232359   2.775   0.240   3.934 -0.0436  0.1962 -0.1515
 3623TIP3    H132360   2.799   0.332   3.920  0.2302 -0.1996 -2.6034
 3623TIP3    H232361   2.687   0.244   3.972 -0.7657  1.4894 -1.8365
 3624TIP3   OH232362   4.967   1.228  17.185 -0.3636 -0.2406  0.4531
 3624TIP3    H132363   4.979   1.317  17.219 -0.7954  0.3537 -0.9031
 3624TIP3    H232364   4.993   1.234  17.093  0.7453 -1.8071  0.6555
 3625TIP3   OH232365   6.584   1.986  13.116  0.1468 -0.3821 -0.6565
 3625TIP3    H132366   6.584   1.947  13.203 -1.2041  0.3240 -0.3163
 3625TIP3    H232367   6.655   2.050  13.118 -0.4962  0.3212  0.2691
 3626TIP3   OH232368   2.793   3.411  11.266  0.2775 -0.2574  0.2267
 3626TIP3    H132369   2.822   3.402  11.175 -0.0222  1.6423 -0.0841
 3626TIP3    H232370   2.769   3.323  11.293 -1.2781 -0.5786 -2.0979
 3627TIP3   OH232371   3.071   6.580  13.664 -0.2720  0.0253  0.4218
 3627TIP3    H132372   2.988   6.623  13.641 -0.3655 -0.0059  0.7022
 3627TIP3    H232373   3.092   6.613  13.751  0.9227  1.3894 -0.3608
 3628TIP3   OH232374   3.898   5.258  12.734  0.0178  0.4621  0.1083
 3628TIP3    H132375   3.861   5.284  12.819  1.9883  2.1903  0.5149
 3628TIP3    H232376   3.940   5.174  12.751  1.1556  1.2114  1.1059
 3629TIP3   OH232377   0.115   2.514  13.101 -0.2187 -0.1723 -0.5868
 3629TIP3    H132378   0.020   2.517  13.104 -0.2950 -1.4601 -1.2102
 3629TIP3    H232379   0.138   2.434  13.149  0.5660  0.3483 -0.0904
 3630TIP3   OH232380   2.833   3.323  13.112 -0.1167  0.4945 -0.1902
 3630TIP3    H132381   2.863   3.408  13.143 -1.8515  0.6861  1.0077
 3630TIP3    H232382   2.867   3.317  13.023 -0.2687  2.5772 -0.4130
 3631TIP3   OH232383   6.814   2.869   4.048  0.0692 -0.1498 -0.3069
 3631TIP3    H132384   6.800   2.775   4.046 -2.1862  0.1048  1.7402
 3631TIP3    H232385   6.861   2.885   4.130 -1.4237  0.7238  0.3930
 3632TIP3   OH232386   3.137   5.181  13.170 -0.0609  0.1601 -0.0326
 3632TIP3    H132387   3.166   5.101  13.125 -1.0347  0.3204 -0.9745
 3632TIP3    H232388   3.155   5.164  13.263 -0.0343 -1.0584 -0.2454
 3633TIP3   OH232389   5.276   5.756  10.245 -0.1404  0.4520  0.0664
 3633TIP3    H132390   5.308   5.667  10.237 -1.3541  0.1231 -1.2731
 3633TIP3    H232391   5.304   5.800  10.165  0.4420  1.2818  0.7103
 3634TIP3   OH232392   5.376   5.144  14.741  0.2391  0.0979  0.2173
 3634TIP3    H132393   5.354   5.236  14.754  0.6648  0.1501  0.6091
 3634TIP3    H232394   5.371   5.131  14.647 -0.3299  0.3908  0.2074
 3635TIP3   OH232395   5.894   1.858  14.356  0.1319  0.5360 -0.1316
 3635TIP3    H132396   5.831   1.926  14.383 -1.7726 -0.8760 -0.9257
 3635TIP3    H232397   5.909   1.875  14.263 -0.7748 -0.4653 -0.4623
 3636TIP3   OH232398   1.125   1.790  15.505 -0.7279  0.1791 -0.5557
 3636TIP3    H132399   1.180   1.868  15.495  0.1762 -0.2914  0.6606
 3636TIP3    H232400   1.088   1.797  15.592  0.2809 -1.3316  0.0149
 3637TIP3   OH232401   3.721   0.546  12.035 -0.2973 -0.1745  0.8355
 3637TIP3    H132402   3.723   0.618  11.972  1.6870 -0.0244  1.0263
 3637TIP3    H232403   3.631   0.514  12.033 -0.7454  1.1352 -0.5874
 3638TIP3   OH232404   1.826   6.385   4.003 -0.3243 -0.3853  0.5475
 3638TIP3    H132405   1.792   6.461   3.956 -0.7360 -0.1953  1.1467
 3638TIP3    H232406   1.797   6.310   3.952  0.5669 -0.1202 -0.3570
 3639TIP3   OH232407   3.942   2.591   4.158  0.0986  0.3851  0.6400
 3639TIP3    H132408   4.008   2.524   4.144 -1.7017 -1.4173  0.6872
 3639TIP3    H232409   3.922   2.624   4.071  1.5296  1.4325  0.6829
 3640TIP3   OH232410   6.708   1.878   0.709 -0.5052  0.5948 -0.3086
 3640TIP3    H132411   6.649   1.864   0.635  1.1947  1.0245 -1.7809
 3640TIP3    H232412   6.747   1.792   0.725 -1.2864  0.3793  0.4609
 3641TIP3   OH232413   0.642   6.505  12.956 -0.1343 -0.6533  0.3816
 3641TIP3    H132414   0.634   6.595  12.989  0.5026 -1.4369  2.7307
 3641TIP3    H232415   0.552   6.471  12.958 -0.3528 -0.1467 -0.3557
 3642TIP3   OH232416   0.429   0.134  11.547 -0.4239 -0.5341 -0.4717
 3642TIP3    H132417   0.360   0.090  11.596 -0.8182  2.4139  1.7761
 3642TIP3    H232418   0.510   0.090  11.575 -0.9243 -0.6491  0.8238
 3643TIP3   OH232419   4.948   4.879  11.774 -0.0621  0.2565 -0.0579
 3643TIP3    H132420   4.868   4.928  11.758 -0.1545  0.1342  0.0296
 3643TIP3    H232421   4.958   4.824  11.696 -0.3948 -0.1748  0.2024
 3644TIP3   OH232422   6.725   5.765  10.785  0.8474  0.0892  0.2088
 3644TIP3    H132423   6.790   5.729  10.724 -0.4516  0.4214 -1.4085
 3644TIP3    H232424   6.721   5.858  10.763  0.8904  0.3479  1.3000
 3645TIP3   OH232425   3.291   3.695   4.424 -0.6233  0.3776 -0.5259
 3645TIP3    H132426   3.205   3.654   4.418 -0.6826  0.4536 -0.2411
 3645TIP3    H232427   3.292   3.735   4.512  0.1455 -0.6314 -0.0714
 3646TIP3   OH232428   4.092   2.918  16.538 -0.1655 -0.4777 -0.2813
 3646TIP3    H132429   4.117   2.912  16.446  0.1484 -2.6526 -0.0752
 3646TIP3    H232430   4.011   2.868  16.544 -1.0079  0.9313  0.3530
 3647TIP3   OH232431   2.840   4.725  12.072 -0.3058  0.1019 -0.1789
 3647TIP3    H132432   2.933   4.712  12.054 -0.4875  0.4593 -1.4422
 3647TIP3    H232433   2.834   4.724  12.167  0.9870  0.0293 -0.0835
 3648TIP3   OH232434   1.817   1.795   6.520 -0.4160  0.2214 -0.3038
 3648TIP3    H132435   1.863   1.754   6.593  0.9388 -0.6962 -1.6413
 3648TIP3    H232436   1.875   1.782   6.445 -1.5977  1.5021 -1.4634
 3649TIP3   OH232437   2.501   4.716   6.604 -0.3844 -0.1248 -0.1781
 3649TIP3    H132438   2.562   4.781   6.570 -1.8055  0.1678 -2.2328
 3649TIP3    H232439   2.463   4.757   6.681  1.0789  0.1768  0.4145
 3650TIP3   OH232440   1.373   0.614   2.189 -0.3380  0.0534  0.4517
 3650TIP3    H132441   1.338   0.534   2.150 -0.2224  0.3582 -0.2864
 3650TIP3    H232442   1.351   0.607   2.281  2.4431 -2.3444  1.0322
 3651TIP3   OH232443   2.148   5.243  16.103  0.5434  0.5578 -0.4227
 3651TIP3    H132444   2.217   5.179  16.121 -0.4198 -1.0772 -2.3724
 3651TIP3    H232445   2.182   5.325  16.138  2.2095 -0.8199  1.2941
 3652TIP3   OH232446   5.275   3.100  10.502  0.3446 -0.0340  0.1460
 3652TIP3    H132447   5.190   3.092  10.544  0.3888  0.2482  0.2880
 3652TIP3    H232448   5.335   3.125  10.572  0.0063  2.6345 -0.4779
 3653TIP3   OH232449   2.465   4.277  16.866 -0.0440  0.2534 -0.1687
 3653TIP3    H132450   2.551   4.318  16.863 -0.1653  0.4924 -0.4625
 3653TIP3    H232451   2.473   4.199  16.810  0.6847 -1.1116  1.7684
 3654TIP3   OH232452   0.602   4.222  15.509  0.6725  0.1689 -0.0023
 3654TIP3    H132453   0.644   4.307  15.497  0.9982 -0.1329 -1.0370
 3654TIP3    H232454   0.509   4.240  15.496  0.8471  0.1767 -1.2808
 3655TIP3   OH232455   1.883   4.787  14.671  0.0582  0.9686 -0.3282
 3655TIP3    H132456   1.896   4.828  14.586 -0.3998 -0.1836 -0.9597
 3655TIP3    H232457   1.846   4.701  14.651  0.9682  0.2560  0.9759
 3656TIP3   OH232458   5.784   1.592  15.544  0.4274  0.1506  0.0474
 3656TIP3    H132459   5.847   1.596  15.471 -0.4490 -1.1382 -0.8027
 3656TIP3    H232460   5.698   1.601  15.502 -0.0460  0.0938  0.9980
 3657TIP3   OH232461   2.238   3.970  15.675 -0.2334 -0.0747  0.0032
 3657TIP3    H132462   2.214   3.946  15.764  0.4518  0.0094  0.2142
 3657TIP3    H232463   2.324   3.930  15.662  0.8510  2.0902  0.2918
 3658TIP3   OH232464   1.103   4.901   6.203 -0.1556 -0.1302 -0.3565
 3658TIP3    H132465   1.174   4.885   6.141 -2.1760 -4.2686 -1.8254
 3658TIP3    H232466   1.035   4.945   6.151  0.1820  1.1799  0.2976
 3659TIP3   OH232467   6.596   0.642  14.954 -0.0317 -0.0519 -0.1145
 3659TIP3    H132468   6.649   0.721  14.967  0.4660 -0.3583 -0.2637
 3659TIP3    H232469   6.549   0.659  14.872 -0.3693  0.3326  0.1552
 3660TIP3   OH232470   1.116   1.738  12.398 -0.4371  0.1218  1.0408
 3660TIP3    H132471   1.209   1.755  12.411 -0.4763  1.0874  0.0625
 3660TIP3    H232472   1.078   1.745  12.486  0.6472 -1.9014  1.7108
 3661TIP3   OH232473   3.731   5.798  11.716 -0.1035 -0.1554 -0.1528
 3661TIP3    H132474   3.689   5.805  11.802  0.9824 -1.0096  0.4585
 3661TIP3    H232475   3.783   5.878  11.708  0.0807 -0.2415  0.1510
 3662TIP3   OH232476   5.056   0.526   1.528 -0.1271 -0.1102 -0.0275
 3662TIP3    H132477   5.029   0.443   1.489 -1.4603  0.4670 -0.3258
 3662TIP3    H232478   5.151   0.518   1.536 -0.4081 -2.3995  1.6240
 3663TIP3   OH232479   2.968   6.816   0.541 -0.3294  0.3934  0.1490
 3663TIP3    H132480   2.988   6.723   0.527  0.0459  0.7961 -2.1716
 3663TIP3    H232481   3.043   6.849   0.591  0.5608 -0.0949 -0.8351
 3664TIP3   OH232482   4.138   1.751   2.151  0.3642 -0.1447 -0.3797
 3664TIP3    H132483   4.172   1.778   2.066  0.9251  0.1624 -0.0641
 3664TIP3    H232484   4.173   1.816   2.213 -1.6505  0.8007 -0.1817
 3665TIP3   OH232485   2.789   0.511   4.188  0.4576  0.1009  0.1402
 3665TIP3    H132486   2.773   0.449   4.118  1.2620  0.5349 -0.4349
 3665TIP3    H232487   2.856   0.570   4.153 -0.4976  1.4610  0.5630
 3666TIP3   OH232488   6.365   6.263   3.903 -0.0553 -0.2146 -0.6716
 3666TIP3    H132489   6.383   6.357   3.904 -0.8809 -0.0423  0.6729
 3666TIP3    H232490   6.293   6.252   3.966  0.5165 -1.8315 -0.2586
 3667TIP3   OH232491   1.993   1.734  16.295  0.3654 -0.4666  0.0275
 3667TIP3    H132492   1.952   1.666  16.242  1.2377 -0.4781 -0.6367
 3667TIP3    H232493   2.041   1.686  16.362 -2.4092 -0.4401  2.1598
 3668TIP3   OH232494   1.536   2.640  11.396 -0.6526  0.3121  0.5530
 3668TIP3    H132495   1.606   2.670  11.338 -0.6033  0.1153  0.5143
 3668TIP3    H232496   1.490   2.573  11.347  0.7237 -1.3975  1.5631
 3669TIP3   OH232497   0.264   5.293   2.554 -0.0970 -0.0857  0.1667
 3669TIP3    H132498   0.283   5.353   2.626 -0.4182 -0.2920  0.4301
 3669TIP3    H232499   0.349   5.262   2.525  0.0695  0.5125  0.0187
 3670TIP3   OH232500   5.278   4.361   6.236  0.0429  0.1194 -0.0991
 3670TIP3    H132501   5.204   4.350   6.176  0.3025  0.4388 -0.4886
 3670TIP3    H232502   5.351   4.385   6.179  0.2211  0.7357  0.3838
 3671TIP3   OH232503   6.221   1.683   4.476  0.1137 -0.5924 -0.3074
 3671TIP3    H132504   6.136   1.727   4.477  0.0857 -0.5987  2.1063
 3671TIP3    H232505   6.201   1.590   4.479  0.1358 -0.5671  2.7366
 3672TIP3   OH232506   6.297   4.413   5.723  0.3997 -0.4980  0.1331
 3672TIP3    H132507   6.312   4.326   5.687 -0.0844 -0.5837  0.1262
 3672TIP3    H232508   6.202   4.417   5.735  0.5038 -0.2882  0.9299
 3673TIP3   OH232509   1.536   5.492  16.017  0.6420 -0.4342  0.1248
 3673TIP3    H132510   1.453   5.444  16.009  2.4992 -3.8201  0.1797
 3673TIP3    H232511   1.546   5.506  16.111 -0.1599  0.5250  0.0713
 3674TIP3   OH232512   5.483   3.823   4.071  0.2790  0.1350  0.0587
 3674TIP3    H132513   5.472   3.772   3.990 -0.1796  2.0382 -1.1017
 3674TIP3    H232514   5.571   3.801   4.101  0.9852  0.4634 -1.7168
 3675TIP3   OH232515   6.351   2.307  12.020 -0.2741  0.3328  0.2436
 3675TIP3    H132516   6.299   2.303  12.099  1.0434  0.7188  1.1536
 3675TIP3    H232517   6.368   2.215  11.997  1.1048  0.2148  1.6267
 3676TIP3   OH232518   3.607   2.536  14.557  0.1993  0.3120  0.2720
 3676TIP3    H132519   3.582   2.626  14.538 -1.4588 -0.0908  0.4403
 3676TIP3    H232520   3.531   2.499  14.602  0.2186 -1.6260 -1.2016
 3677TIP3   OH232521   0.702   1.066   3.859 -0.2757 -0.0632  0.1371
 3677TIP3    H132522   0.724   1.045   3.950  3.1613  0.8907 -0.3971
 3677TIP3    H232523   0.666   0.984   3.824  0.8463 -1.2319  1.6316
 3678TIP3   OH232524   3.786   3.140  16.505  0.9436  0.7103  0.2484
 3678TIP3    H132525   3.840   3.207  16.548  1.3293  0.5938 -0.0514
 3678TIP3    H232526   3.830   3.124  16.422  0.9484 -0.0406  0.3933
 3679TIP3   OH232527   1.578   4.124   6.523  0.2220 -0.4206  0.0907
 3679TIP3    H132528   1.487   4.151   6.532 -0.9645 -4.6084  1.4336
 3679TIP3    H232529   1.621   4.157   6.602 -0.1033  1.4478 -0.4845
 3680TIP3   OH232530   5.735   4.905  11.057 -0.7457 -0.1817  0.0343
 3680TIP3    H132531   5.817   4.928  11.013  0.0755 -2.3962  0.3498
 3680TIP3    H232532   5.667   4.943  11.002  0.4801  1.9593 -0.0696
 3681TIP3   OH232533   0.859   6.021  17.247  0.1401 -0.3790 -0.2039
 3681TIP3    H132534   0.811   5.983  17.320  1.0400 -1.5895 -0.2230
 3681TIP3    H232535   0.940   5.970  17.242  0.7810  0.6849 -1.0797
 3682TIP3   OH232536   5.837   3.829  12.880 -0.4124  0.3836  0.3784
 3682TIP3    H132537   5.754   3.833  12.927  0.1756 -0.1762  1.4965
 3682TIP3    H232538   5.903   3.848  12.947  0.3276  1.4157 -0.6172
 3683TIP3   OH232539   2.731   0.353  14.670 -0.2994 -0.0527  0.0288
 3683TIP3    H132540   2.790   0.425  14.646 -2.5173  1.3972 -1.2535
 3683TIP3    H232541   2.687   0.385  14.750 -0.6991 -0.3326 -0.0791
 3684TIP3   OH232542   5.197   5.908  10.450  0.0042  0.2693 -0.0426
 3684TIP3    H132543   5.213   5.854  10.373 -0.9626  0.1859 -0.1933
 3684TIP3    H232544   5.189   5.997  10.416 -1.6891  0.0658 -0.2006
 3685TIP3   OH232545   2.525   2.194   5.032 -0.7016  0.0044  0.4271
 3685TIP3    H132546   2.516   2.160   5.121 -0.3644  0.0267  0.4706
 3685TIP3    H232547   2.462   2.266   5.027  0.0748  0.7392  1.0212
 3686TIP3   OH232548   4.357   4.394  13.529 -0.3766 -0.3218 -0.1667
 3686TIP3    H132549   4.396   4.479  13.508 -1.4915 -0.2323 -2.0273
 3686TIP3    H232550   4.431   4.340  13.557  0.7484  0.5234 -1.4027
 3687TIP3   OH232551   5.919   5.094   5.704  0.1733 -0.0613 -0.4757
 3687TIP3    H132552   5.895   5.070   5.794 -0.2345  2.0675  0.0272
 3687TIP3    H232553   5.857   5.163   5.681 -0.0253 -0.9070 -2.5881
 3688TIP3   OH232554   2.936   1.481   6.345  0.4555 -0.1253  0.0996
 3688TIP3    H132555   2.956   1.533   6.423 -1.0768 -0.9873  1.0972
 3688TIP3    H232556   2.936   1.390   6.375 -1.5142 -0.3807 -0.5762
 3689TIP3   OH232557   6.766   4.281   3.036 -0.0406 -0.1875 -0.4052
 3689TIP3    H132558   6.723   4.195   3.032  0.0013 -0.1490 -1.8137
 3689TIP3    H232559   6.842   4.273   2.979 -0.7024  1.1511 -1.5211
 3690TIP3   OH232560   6.724   4.811   3.226 -0.0411 -0.1548  0.0323
 3690TIP3    H132561   6.756   4.897   3.198  0.6261 -0.5958 -0.5886
 3690TIP3    H232562   6.630   4.822   3.233 -0.0251  0.4641 -0.6225
 3691TIP3   OH232563   5.012   4.653  14.435 -0.2820  0.5940  0.4169
 3691TIP3    H132564   5.094   4.613  14.465 -1.4544 -1.1447  1.4544
 3691TIP3    H232565   4.944   4.610  14.488 -1.8383  2.2101 -0.2127
 3692TIP3   OH232566   4.926   5.796   2.508  0.3132 -0.4338  0.0160
 3692TIP3    H132567   5.003   5.769   2.458 -1.9863 -2.4216 -2.6121
 3692TIP3    H232568   4.904   5.719   2.560 -1.7177 -1.0155 -1.6413
 3693TIP3   OH232569   2.280   3.784  10.760  0.2001 -0.1874 -0.3237
 3693TIP3    H132570   2.199   3.834  10.771  0.8274  0.1450  3.7644
 3693TIP3    H232571   2.349   3.851  10.754  0.8417 -0.4220  3.3018
 3694TIP3   OH232572   5.096   2.014  11.172 -0.1212 -0.0553 -0.0205
 3694TIP3    H132573   5.184   1.981  11.155  0.2645  0.2050  1.3383
 3694TIP3    H232574   5.089   2.093  11.118  0.5772  0.0607  0.0498
 3695TIP3   OH232575   3.138   3.503  17.243 -0.3753  0.0721  0.0376
 3695TIP3    H132576   3.177   3.475  17.160  2.2962  0.8664  0.9922
 3695TIP3    H232577   3.143   3.599  17.241 -1.1954  0.1417  0.7247
 3696TIP3   OH232578   2.432   3.732  14.099 -0.6861  0.2714 -0.1489
 3696TIP3    H132579   2.448   3.646  14.138  2.8927  1.2852  0.8920
 3696TIP3    H232580   2.501   3.741  14.033 -1.0931  2.2915 -0.3314
 3697TIP3   OH232581   3.936   1.557   1.952  0.1637  0.4461  0.1343
 3697TIP3    H132582   3.974   1.505   2.023 -1.1736  0.8154  1.1395
 3697TIP3    H232583   3.885   1.624   1.996 -0.1909  1.0593 -1.1844
 3698TIP3   OH232584   2.660   2.694  15.408  0.0990 -0.2348  0.0474
 3698TIP3    H132585   2.753   2.713  15.395  0.3804 -0.2556  1.8208
 3698TIP3    H232586   2.658   2.638  15.485 -1.3679 -0.4855 -0.1616
 3699TIP3   OH232587   6.557   4.045   4.663 -0.0167 -0.2846 -0.3534
 3699TIP3    H132588   6.634   4.057   4.719  0.6510 -0.8486 -1.1318
 3699TIP3    H232589   6.512   3.970   4.700  0.4978 -0.7406 -0.6364
 3700TIP3   OH232590   4.158   0.226  14.383 -0.5536  0.5097  0.5029
 3700TIP3    H132591   4.230   0.227  14.447  0.1976 -0.6246 -0.2939
 3700TIP3    H232592   4.143   0.133  14.366 -0.2712  0.8185 -1.4976
 3701TIP3   OH232593   2.995   1.426   5.734  0.5413  0.8637 -0.5809
 3701TIP3    H132594   2.943   1.488   5.682  1.6141  0.6214 -1.9726
 3701TIP3    H232595   2.944   1.413   5.814 -0.3007  2.5703 -0.8262
 3702TIP3   OH232596   3.267   0.968  12.237 -0.0558 -0.5561 -0.0033
 3702TIP3    H132597   3.225   0.895  12.191  0.3986 -0.2153 -0.9770
 3702TIP3    H232598   3.195   1.010  12.284 -1.2555  1.2977 -3.3413
 3703TIP3   OH232599   4.379   3.409  12.659  0.4337  0.2049  0.1886
 3703TIP3    H132600   4.379   3.426  12.753  1.5672 -0.1249  0.2491
 3703TIP3    H232601   4.291   3.434  12.630  0.4278  1.2992  1.1442
 3704TIP3   OH232602   1.472   2.233   4.952 -0.2873 -0.0329 -0.1489
 3704TIP3    H132603   1.537   2.196   4.893  1.6500  0.8209  1.3940
 3704TIP3    H232604   1.397   2.173   4.945  1.1798 -1.8390 -0.9164
 3705TIP3   OH232605   1.556   5.173  17.156  0.2395  0.2276  0.5758
 3705TIP3    H132606   1.567   5.129  17.241  1.2374 -0.6129  0.0221
 3705TIP3    H232607   1.507   5.252  17.176  0.8140  0.2330  2.0017
 3706TIP3   OH232608   1.604   6.238  15.752 -0.2898  0.0765  0.3815
 3706TIP3    H132609   1.691   6.269  15.729 -1.1705 -0.2382 -3.6981
 3706TIP3    H232610   1.615   6.197  15.839  3.3145  1.1071  0.4718
 3707TIP3   OH232611   5.013   1.794   2.405  0.0045 -0.2421 -0.3004
 3707TIP3    H132612   4.953   1.863   2.433  0.8410  0.8732 -1.1947
 3707TIP3    H232613   5.075   1.784   2.478 -1.2328 -1.3806  0.6146
 3708TIP3   OH232614   0.928   6.096   1.306 -0.1179  0.3199 -0.2665
 3708TIP3    H132615   1.002   6.126   1.358  0.9379 -4.4909  1.2529
 3708TIP3    H232616   0.962   6.087   1.217  0.6921 -0.3177  0.1038
 3709TIP3   OH232617   2.401   2.296  16.223  0.6007 -0.0811  0.5628
 3709TIP3    H132618   2.443   2.362  16.167 -1.3692  0.6324 -0.1267
 3709TIP3    H232619   2.362   2.347  16.294  1.0001 -0.7436  1.2602
 3710TIP3   OH232620   4.776   3.656  13.009 -0.3189 -0.9768  0.7858
 3710TIP3    H132621   4.810   3.634  12.923  0.8032  1.0681  0.6779
 3710TIP3    H232622   4.847   3.704  13.052 -2.5066  2.1729  1.0618
 3711TIP3   OH232623   0.329   6.002   3.460  0.2994 -0.3909 -0.2589
 3711TIP3    H132624   0.266   6.073   3.473 -0.0300 -0.2860 -2.2176
 3711TIP3    H232625   0.405   6.027   3.511 -0.4504  0.5361  0.4172
 3712TIP3   OH232626   3.604   6.458  12.042  0.3721  0.1148 -0.4956
 3712TIP3    H132627   3.663   6.520  12.000  0.4287 -0.5261 -1.3760
 3712TIP3    H232628   3.605   6.483  12.134 -0.6394  2.2322 -1.0280
 3713TIP3   OH232629   4.729   4.022  15.153  0.4057  0.0401  0.4487
 3713TIP3    H132630   4.820   3.999  15.130  0.6145  0.3286  0.9720
 3713TIP3    H232631   4.683   3.938  15.155  0.6473 -0.1041  0.1235
 3714TIP3   OH232632   4.262   3.748  14.987  0.4398 -0.5644  0.0819
 3714TIP3    H132633   4.228   3.702  15.064 -0.6032  2.6752  1.6314
 3714TIP3    H232634   4.185   3.764  14.933  0.7933 -0.6814 -0.4551
 3715TIP3   OH232635   6.319   6.645   5.872  0.1071 -0.3400  0.1001
 3715TIP3    H132636   6.325   6.714   5.938 -0.2649 -0.6746  0.4865
 3715TIP3    H232637   6.408   6.638   5.837 -0.0105  0.8645 -0.4898
 3716TIP3   OH232638   0.485   2.078   2.835  0.5476  0.5343 -0.0132
 3716TIP3    H132639   0.492   2.049   2.744  1.9084 -1.3144  0.6572
 3716TIP3    H232640   0.406   2.133   2.836  0.0134 -0.1283 -2.1067
 3717TIP3   OH232641   6.046   0.362   3.785 -0.6067 -0.1461  0.1484
 3717TIP3    H132642   6.010   0.426   3.724  0.9501 -0.1068 -0.7495
 3717TIP3    H232643   6.081   0.414   3.858  2.5999  0.2272 -1.5832
 3718TIP3   OH232644   3.426   4.123   4.907 -1.5560 -0.1813 -0.6563
 3718TIP3    H132645   3.388   4.071   4.836 -1.8448  0.4682 -0.9800
 3718TIP3    H232646   3.352   4.144   4.963 -1.5685  0.5193 -0.9299
 3719TIP3   OH232647   1.376   2.744   3.186  0.0214 -0.3318  0.1260
 3719TIP3    H132648   1.323   2.815   3.223  0.2018 -0.1047 -0.0498
 3719TIP3    H232649   1.462   2.756   3.225  1.0165  1.6511 -2.5278
 3720TIP3   OH232650   5.049   6.660   0.667  0.6367 -0.1125 -0.1638
 3720TIP3    H132651   5.119   6.595   0.674  0.1499 -0.5281  0.9726
 3720TIP3    H232652   4.999   6.633   0.590  1.1071 -0.4299 -0.3620
 3721TIP3   OH232653   6.433   3.878   6.740  0.2420 -0.3471  0.6582
 3721TIP3    H132654   6.390   3.835   6.666 -0.8135 -1.3132  1.8245
 3721TIP3    H232655   6.462   3.806   6.796  1.7566  0.3551  0.8022
 3722TIP3   OH232656   4.139   2.955   5.596  0.2915 -0.2935  0.5678
 3722TIP3    H132657   4.162   2.977   5.686  0.2765 -0.3708  0.5909
 3722TIP3    H232658   4.200   3.006   5.542  1.6970 -1.8092  0.6527
 3723TIP3   OH232659   6.231   3.799   1.564 -0.3925 -0.3016 -0.5503
 3723TIP3    H132660   6.150   3.850   1.564 -0.4140 -0.2463  2.2828
 3723TIP3    H232661   6.221   3.739   1.638  2.4106  0.1495  0.2386
 3724TIP3   OH232662   0.764   3.024   2.302 -1.2417  0.0123  0.1939
 3724TIP3    H132663   0.694   3.076   2.261  0.0094 -0.0691 -2.1575
 3724TIP3    H232664   0.844   3.073   2.283 -0.3847 -1.2539  0.5229
 3725TIP3   OH232665   0.954   6.241  16.869  0.1910 -0.3233 -0.5873
 3725TIP3    H132666   1.027   6.182  16.853 -0.1661 -0.1676 -2.8863
 3725TIP3    H232667   0.995   6.325  16.888  0.6186 -0.2335 -1.8851
 3726TIP3   OH232668   4.121   5.310   1.453  0.5190 -0.0738  0.5399
 3726TIP3    H132669   4.086   5.399   1.451  0.1049 -0.1876  2.2819
 3726TIP3    H232670   4.214   5.321   1.473  0.5229 -0.0205  0.4924
 3727TIP3   OH232671   4.332   5.981  12.228 -0.1448  0.1848  0.4822
 3727TIP3    H132672   4.243   5.997  12.259 -0.0027 -2.3942  2.4347
 3727TIP3    H232673   4.325   5.899  12.178  1.1181 -0.0430  0.6666
 3728TIP3   OH232674   2.107   4.889   6.882 -0.5441 -0.2349  0.1657
 3728TIP3    H132675   2.045   4.819   6.859  0.2666 -2.9149  5.3849
 3728TIP3    H232676   2.054   4.956   6.925 -0.4107 -0.8791  1.3712
 3729TIP3   OH232677   5.360   4.587   2.773  0.1609  0.1499 -0.2903
 3729TIP3    H132678   5.453   4.607   2.762  0.5282 -0.5668  1.4647
 3729TIP3    H232679   5.358   4.494   2.798 -1.0660 -0.0075 -0.9356
 3730TIP3   OH232680   6.620   6.725   4.751 -0.5649  0.0280 -0.2601
 3730TIP3    H132681   6.667   6.805   4.727 -0.4385  0.5158  1.5137
 3730TIP3    H232682   6.621   6.672   4.672 -0.1032  1.5219 -1.2902
 3731TIP3   OH232683   2.324   4.933   0.372  0.1128 -0.0055  0.0042
 3731TIP3    H132684   2.263   4.870   0.410 -0.5132  1.5021  1.5893
 3731TIP3    H232685   2.341   4.900   0.284 -0.7474 -1.9889  0.5493
 3732TIP3   OH232686   1.729   4.927  13.690 -0.1861 -0.2875  0.1816
 3732TIP3    H132687   1.711   4.919  13.784  0.7863  0.4988  0.4565
 3732TIP3    H232688   1.751   5.020  13.678  2.3943 -0.9188 -0.3176
 3733TIP3   OH232689   5.784   2.470  12.463  0.7344 -0.0738  0.0932
 3733TIP3    H132690   5.755   2.472  12.554  0.8885  0.6145  0.1335
 3733TIP3    H232691   5.831   2.387  12.453 -0.7608 -0.9448  0.1806
 3734TIP3   OH232692   4.694   1.989   0.801 -0.1592  0.6431  0.3097
 3734TIP3    H132693   4.701   1.950   0.714  0.0313 -2.9252  1.8563
 3734TIP3    H232694   4.609   2.035   0.800 -0.0183  0.8928 -1.8263
 3735TIP3   OH232695   4.878   3.155   5.992  0.0307 -0.2781 -0.1282
 3735TIP3    H132696   4.835   3.176   5.909  1.3675  0.2284 -0.7209
 3735TIP3    H232697   4.842   3.217   6.054 -0.7563 -0.4566 -0.4024
 3736TIP3   OH232698   5.521   5.770  12.612  0.2059 -0.5276 -0.4094
 3736TIP3    H132699   5.449   5.813  12.657  1.2721 -1.1342  1.9484
 3736TIP3    H232700   5.578   5.738  12.682  1.2035 -2.7340 -2.1484
 3737TIP3   OH232701   3.330   6.642  13.568  0.2938 -0.6010  0.0518
 3737TIP3    H132702   3.262   6.602  13.623 -2.3885  1.6737 -1.4363
 3737TIP3    H232703   3.340   6.730  13.604  2.2587 -0.7935  0.0258
 3738TIP3   OH232704   3.380   5.376   1.845 -0.4573 -0.3239 -0.0895
 3738TIP3    H132705   3.454   5.379   1.784 -0.9028  1.7825 -0.5587
 3738TIP3    H232706   3.312   5.429   1.803 -1.6357 -0.8455  1.1235
 3739TIP3   OH232707   0.392   5.530  13.084 -0.0446  0.5612 -0.0157
 3739TIP3    H132708   0.342   5.448  13.085 -1.8693  1.6005 -1.9884
 3739TIP3    H232709   0.336   5.593  13.129  0.2973  1.2818 -0.5753
 3740TIP3   OH232710   5.068   4.201   1.631  0.2620 -0.4100  0.0303
 3740TIP3    H132711   5.020   4.120   1.618 -0.6184  0.1788 -0.4531
 3740TIP3    H232712   5.019   4.267   1.581  2.2356 -0.0303 -1.4813
 3741TIP3   OH232713   6.410   3.081   1.342 -0.3124  0.0047  0.3119
 3741TIP3    H132714   6.408   3.007   1.403  3.3255 -0.0075  0.5065
 3741TIP3    H232715   6.362   3.050   1.265 -2.6326 -0.9355  2.0644
 3742TIP3   OH232716   4.436   4.725   2.693  0.1966 -0.3685 -0.3702
 3742TIP3    H132717   4.404   4.640   2.661 -0.1860  0.3142 -1.8557
 3742TIP3    H232718   4.530   4.724   2.674 -0.4119  1.0250 -3.9905
 3743TIP3   OH232719   0.088   4.217   0.358 -0.3918  0.3300  0.3271
 3743TIP3    H132720   0.168   4.187   0.313  0.2289  3.0362 -0.4635
 3743TIP3    H232721   0.053   4.138   0.400  0.8552 -1.5972 -2.1241
 3744TIP3   OH232722   4.085   2.983   4.595 -0.4262  0.6430 -0.0588
 3744TIP3    H132723   4.081   3.078   4.610  2.4433  0.8956 -0.5807
 3744TIP3    H232724   4.165   2.955   4.640 -1.0025 -1.4709 -0.2860
 3745TIP3   OH232725   1.870   5.491  16.237  0.6032  0.5690  0.1625
 3745TIP3    H132726   1.842   5.416  16.183 -1.5114  0.0363  1.9160
 3745TIP3    H232727   1.925   5.543  16.179 -1.2509 -0.2158 -2.3819
 3746TIP3   OH232728   3.981   6.375  12.408 -0.1554 -0.4437  0.1879
 3746TIP3    H132729   4.075   6.359  12.400  0.1085  0.4578  1.3696
 3746TIP3    H232730   3.943   6.329  12.333  1.0767 -2.0239  0.4988
 3747TIP3   OH232731   6.006   1.902  12.716  0.0016 -0.0859 -0.3263
 3747TIP3    H132732   6.059   1.939  12.645  0.4907  2.3686  1.2414
 3747TIP3    H232733   6.056   1.827  12.747  0.2698 -0.5780 -1.9234
 3748TIP3   OH232734   5.346   0.269   0.801  0.0266 -0.0246  0.2625
 3748TIP3    H132735   5.258   0.303   0.787  1.2914  2.2040 -2.5861
 3748TIP3    H232736   5.344   0.182   0.760 -1.0401 -0.3273  0.9188
 3749TIP3   OH232737   4.068   5.545   4.135 -0.2864 -0.1911  0.4636
 3749TIP3    H132738   4.048   5.608   4.204  2.2340  0.2298  0.8425
 3749TIP3    H232739   4.097   5.467   4.183  1.4426  0.0937 -0.0951
 3750TIP3   OH232740   2.665   1.616  17.143 -0.4050  0.2995 -0.2431
 3750TIP3    H132741   2.712   1.633  17.225 -0.2621  0.5741 -0.3756
 3750TIP3    H232742   2.573   1.609  17.168 -0.2835 -0.3203  0.0329
 3751TIP3   OH232743   0.027   5.951   0.388 -0.2513 -0.2779 -0.3353
 3751TIP3    H132744   0.057   6.033   0.427  0.5663 -0.5977 -0.2942
 3751TIP3    H232745  -0.032   5.914   0.455 -1.2055  0.6226 -0.6627
 3752TIP3   OH232746   6.467   6.278  17.143 -0.2748 -0.1768  0.1828
 3752TIP3    H132747   6.403   6.296  17.211  0.1618 -0.3942  0.6516
 3752TIP3    H232748   6.552   6.288  17.187 -0.0050 -1.2432 -0.0999
 3753TIP3   OH232749   5.283   3.504   1.793  0.0578 -0.5038  0.8725
 3753TIP3    H132750   5.221   3.515   1.721 -1.1379 -0.5814  1.8693
 3753TIP3    H232751   5.368   3.523   1.754 -0.6501  0.2151 -0.3767
 3754TIP3   OH232752   5.915   1.723   0.396 -0.1981  0.4671 -0.0666
 3754TIP3    H132753   5.964   1.656   0.444  1.1905  1.0117 -0.7124
 3754TIP3    H232754   5.900   1.793   0.460  1.1329  0.9329 -0.2625
 3755TIP3   OH232755   4.338   3.145   2.739 -0.2522 -0.5878  0.0031
 3755TIP3    H132756   4.244   3.162   2.730 -0.3862 -1.0839  0.4531
 3755TIP3    H232757   4.343   3.060   2.782  0.3935 -1.5829 -1.9426
 3756TIP3   OH232758   2.891   6.254  16.433  0.3379 -0.0438  0.0247
 3756TIP3    H132759   2.830   6.296  16.373 -0.8516 -0.2789  1.0506
 3756TIP3    H232760   2.835   6.212  16.499  1.4951 -2.8727 -0.7236
 3757TIP3   OH232761   6.065   1.366   1.728 -0.3662  0.7341  0.1850
 3757TIP3    H132762   6.047   1.374   1.822 -0.2224  3.1272  0.0521
 3757TIP3    H232763   6.002   1.424   1.686  1.0435  1.4453 -1.0186
 3758TIP3   OH232764   0.276   3.899   1.443 -0.1278  0.0810 -0.4895
 3758TIP3    H132765   0.217   3.960   1.488 -1.6437 -0.5092 -1.6291
 3758TIP3    H232766   0.347   3.885   1.505 -1.3231  0.5860  1.0458
 3759TIP3   OH232767   2.659   0.360  12.444  0.0547  0.5035 -0.3032
 3759TIP3    H132768   2.753   0.372  12.427  0.1884 -1.8099 -1.4467
 3759TIP3    H232769   2.616   0.393  12.366  0.0757 -0.6488 -0.8137
 3760TIP3   OH232770   0.306   0.205   0.754 -0.2915 -0.1138  0.3061
 3760TIP3    H132771   0.291   0.114   0.727 -0.6219 -0.2050  0.7940
 3760TIP3    H232772   0.358   0.197   0.835 -0.6214  0.1227  0.5400
 3761TIP3   OH232773   1.157   6.169   2.872  0.0157  0.2755  0.3247
 3761TIP3    H132774   1.062   6.168   2.880 -0.0420  1.4838 -0.1376
 3761TIP3    H232775   1.189   6.156   2.961 -0.5798 -0.2253  0.4673
 3762TIP3   OH232776   6.581   4.921  12.787  0.0018  0.3328 -0.7016
 3762TIP3    H132777   6.653   4.858  12.781  0.0646  0.1766  1.5747
 3762TIP3    H232778   6.521   4.895  12.716  1.9497  0.2018 -2.3345
 3763TIP3   OH232779   3.244   0.444  13.496  0.3962 -0.7544 -0.3744
 3763TIP3    H132780   3.161   0.472  13.456 -0.1503  2.2011  2.5844
 3763TIP3    H232781   3.218   0.393  13.573  1.2860  0.3242  0.6604
 3764TIP3   OH232782   6.027   0.677  14.469  0.2526 -0.0373 -0.3280
 3764TIP3    H132783   6.036   0.761  14.515  0.6011 -0.6966  0.8185
 3764TIP3    H232784   6.088   0.684  14.395 -0.4376  1.0930 -0.8199
 3765TIP3   OH232785   1.709   4.413  17.252  0.3400 -0.1925 -0.2282
 3765TIP3    H132786   1.772   4.474  17.291  0.5702 -0.7782  0.3172
 3765TIP3    H232787   1.744   4.393  17.166 -1.0175  2.4483 -1.4892
 3766TIP3   OH232788   5.503   6.778   0.433 -0.1758  0.1425 -0.0236
 3766TIP3    H132789   5.536   6.761   0.522  1.3474 -1.9818 -0.9531
 3766TIP3    H232790   5.409   6.761   0.439  0.3355 -2.8770  0.5595
 3767TIP3   OH232791   3.848   5.134  15.571 -0.2170 -0.3389 -0.2264
 3767TIP3    H132792   3.816   5.223  15.588 -0.2565 -0.5392  0.7776
 3767TIP3    H232793   3.773   5.078  15.588 -0.2834 -0.5468 -1.1766
 3768TIP3   OH232794   2.127   2.795   0.180 -0.1075 -0.1372 -0.1919
 3768TIP3    H132795   2.089   2.866   0.232  0.4894  0.7768 -0.9827
 3768TIP3    H232796   2.143   2.725   0.243 -1.3900  0.1470  0.4721
 3769TIP3   OH232797   1.415   4.721   3.254  0.2374  0.1577 -0.6699
 3769TIP3    H132798   1.427   4.630   3.282  1.8980  1.1255  2.0533
 3769TIP3    H232799   1.333   4.721   3.205 -0.3136 -2.6342  0.1551
 3770TIP3   OH232800   6.811   6.597  11.929  0.0006 -0.2296  0.2682
 3770TIP3    H132801   6.904   6.577  11.925  0.0455  0.2465 -1.6528
 3770TIP3    H232802   6.807   6.690  11.952  0.0004 -0.2823  0.4796
 3771TIP3   OH232803   6.579   3.722   0.648  0.4088  0.4452 -0.2562
 3771TIP3    H132804   6.666   3.751   0.675  0.7740 -1.4247  0.6513
 3771TIP3    H232805   6.589   3.699   0.556  0.7404  0.7654 -0.3014
 3772TIP3   OH232806   0.252   0.968  15.110  0.0204  0.5212  0.7330
 3772TIP3    H132807   0.237   0.986  15.017  2.8780 -0.2663  0.0647
 3772TIP3    H232808   0.184   0.905  15.133  0.0167 -0.2151 -1.1553
 3773TIP3   OH232809   2.014   0.878   6.169  0.0536  0.6069 -0.3027
 3773TIP3    H132810   1.966   0.900   6.249 -0.2108  0.0887 -0.3196
 3773TIP3    H232811   1.995   0.786   6.154  1.5696  0.2250  0.0323
 3774TIP3   OH232812   2.034   0.058   4.263  0.0842  0.1996  0.6873
 3774TIP3    H132813   2.101  -0.007   4.240  0.7715  1.1594 -0.0635
 3774TIP3    H232814   2.026   0.052   4.358  1.1309 -0.0279  0.7622
 3775TIP3   OH232815   5.947   1.885   0.629 -0.2383 -0.0191  0.3700
 3775TIP3    H132816   6.014   1.825   0.662  2.6104  2.2390 -1.0479
 3775TIP3    H232817   5.913   1.929   0.707  0.4786 -0.6459  1.0459
 3776TIP3   OH232818   1.602   0.772  11.324 -0.2725 -0.3819  0.1981
 3776TIP3    H132819   1.583   0.679  11.333 -0.3424 -0.4824 -0.9291
 3776TIP3    H232820   1.532   0.816  11.374  0.1678 -0.9446  1.3273
 3777TIP3   OH232821   6.687   1.240   0.374 -0.1994  0.3517 -0.4522
 3777TIP3    H132822   6.759   1.202   0.323 -0.0667  0.9356 -0.7150
 3777TIP3    H232823   6.703   1.211   0.464  0.4933  0.6566 -0.4693
 3778TIP3   OH232824   3.498   2.989  15.858 -0.1435  0.2527  0.2636
 3778TIP3    H132825   3.526   2.903  15.888 -0.6344 -0.2772 -0.7927
 3778TIP3    H232826   3.564   3.015  15.793  1.7491  2.0388  2.8007
 3779TIP3   OH232827   4.054   1.868   3.580 -0.4996 -0.3101 -0.5184
 3779TIP3    H132828   4.045   1.785   3.628 -1.0124 -0.2766 -0.5507
 3779TIP3    H232829   4.107   1.846   3.504 -0.6870 -0.6284 -0.5592
 3780TIP3   OH232830   0.682   6.014  13.939  0.1505  0.7854  0.1136
 3780TIP3    H132831   0.619   6.039  13.871  0.8408  1.7167 -0.2013
 3780TIP3    H232832   0.742   5.954  13.896 -2.3151 -2.6411  1.2307
 3781TIP3   OH232833   2.119   3.815  15.865 -0.6854 -0.3307 -0.0139
 3781TIP3    H132834   2.107   3.754  15.938  1.6194 -0.4280  0.3466
 3781TIP3    H232835   2.072   3.894  15.892  0.0104 -0.4165  1.5486
 3782TIP3   OH232836   0.503   0.891  17.245  1.0575 -0.2398  0.4649
 3782TIP3    H132837   0.547   0.964  17.290 -0.5080  0.9019  0.1794
 3782TIP3    H232838   0.477   0.927  17.161  0.6498 -1.2796  0.1368
 3783TIP3   OH232839   1.475   6.809   2.339  0.0921 -0.0993  0.0724
 3783TIP3    H132840   1.386   6.815   2.373  0.1390  0.7585  0.0459
 3783TIP3    H232841   1.528   6.860   2.401  1.2766 -4.0970  2.5590
 3784TIP3   OH232842   6.629   5.367  13.602  0.1906 -0.0873 -0.5980
 3784TIP3    H132843   6.534   5.351  13.601  0.3464 -1.0377 -0.7437
 3784TIP3    H232844   6.637   5.462  13.595 -0.7892  0.1120  0.7542
 3785TIP3   OH232845   0.790   2.810   5.770 -0.2513  0.0948  0.3740
 3785TIP3    H132846   0.827   2.815   5.858  0.9119 -0.5981 -0.0612
 3785TIP3    H232847   0.703   2.773   5.782  0.0426 -0.3377  1.2003
 3786TIP3   OH232848   3.287   6.065   1.371 -0.0190 -0.4901  0.0070
 3786TIP3    H132849   3.357   6.020   1.419 -1.3145 -1.5611  0.9086
 3786TIP3    H232850   3.245   5.997   1.319 -1.2787 -0.0983  0.5103
 3787TIP3   OH232851   0.007   5.297   1.401  0.2997  0.6223  0.0368
 3787TIP3    H132852   0.057   5.222   1.433  0.3835  0.3648 -0.6994
 3787TIP3    H232853  -0.084   5.268   1.406  0.1669  1.2348  1.7664
 3788TIP3   OH232854   1.114   0.294   1.503  0.0506  0.4150 -0.2075
 3788TIP3    H132855   1.020   0.310   1.495  0.1606  1.5805  0.8240
 3788TIP3    H232856   1.129   0.278   1.596  0.8048 -0.2537 -0.4329
 3789TIP3   OH232857   0.234   3.513  12.332 -0.5474  0.3646 -0.6848
 3789TIP3    H132858   0.236   3.588  12.274 -0.3511 -0.3874 -1.6587
 3789TIP3    H232859   0.267   3.546  12.416 -0.3693  1.3214 -1.1330
 3790TIP3   OH232860   5.273   2.579   5.142  0.7593  0.3893 -0.2913
 3790TIP3    H132861   5.231   2.662   5.122  1.8217  1.2130  0.7806
 3790TIP3    H232862   5.308   2.548   5.059  2.1890  2.0844 -0.3551
 3791TIP3   OH232863   1.402   2.968   0.279  0.7376  0.6813 -0.1112
 3791TIP3    H132864   1.388   2.947   0.371  1.4607  1.5144  0.1926
 3791TIP3    H232865   1.315   2.993   0.246  0.5127  0.5527  0.3909
 3792TIP3   OH232866   1.976   2.895  15.856  0.4196 -0.1335  0.3302
 3792TIP3    H132867   1.915   2.968  15.848  1.6924  0.9439  0.3094
 3792TIP3    H232868   2.036   2.905  15.782 -0.7442 -2.5194 -1.0001
 3793TIP3   OH232869   3.114   6.393   1.629  0.2793  0.7821  0.2045
 3793TIP3    H132870   3.070   6.358   1.552 -0.7529  1.5779  0.4200
 3793TIP3    H232871   3.206   6.399   1.604  0.1684 -0.2570 -0.4841
 3794TIP3   OH232872   1.223   1.551  17.045  0.1486  0.0086 -0.1263
 3794TIP3    H132873   1.306   1.542  17.093  1.1055  0.4171 -1.6700
 3794TIP3    H232874   1.211   1.466  17.002 -1.3205 -0.7697  1.7577
 3795TIP3   OH232875   2.668   0.538  14.837  0.6342 -0.3530  0.1656
 3795TIP3    H132876   2.716   0.614  14.806 -0.6833  1.2496  1.9055
 3795TIP3    H232877   2.681   0.538  14.932  2.3146 -3.5331  0.0146
 3796TIP3   OH232878   2.054   2.731  15.457 -0.0022 -0.0516 -0.1970
 3796TIP3    H132879   2.007   2.679  15.523 -0.0212 -1.3078 -1.1750
 3796TIP3    H232880   1.992   2.736  15.384 -0.1599  1.7239  0.0440
 3797TIP3   OH232881   3.482   3.754  14.140 -0.9416  0.3823 -0.1915
 3797TIP3    H132882   3.418   3.683  14.153 -0.5922 -0.2911 -1.9947
 3797TIP3    H232883   3.440   3.814  14.080 -0.0500  0.1478 -1.0655
 3798TIP3   OH232884   5.219   4.295   5.831  0.2729 -0.0744 -0.3725
 3798TIP3    H132885   5.284   4.359   5.803 -0.2416  0.1702 -1.0289
 3798TIP3    H232886   5.163   4.342   5.892 -1.5261  0.8084 -2.6375
 3799TIP3   OH232887   1.623   4.954  15.328 -0.4253 -0.0664 -0.1421
 3799TIP3    H132888   1.556   4.982  15.265 -0.3408  0.2518 -0.0901
 3799TIP3    H232889   1.583   4.880  15.374 -1.0229  0.5749  0.3913
 3800TIP3   OH232890   2.715   3.960  11.785  0.6023  0.1817 -0.3338
 3800TIP3    H132891   2.692   4.043  11.742 -0.1448  0.9421  1.4620
 3800TIP3    H232892   2.720   3.897  11.714  2.0299  1.9415 -1.8514
 3801TIP3   OH232893   2.653   2.445   5.192  0.5732 -0.6305 -0.5139
 3801TIP3    H132894   2.669   2.362   5.236 -0.5623 -0.7548 -0.3197
 3801TIP3    H232895   2.718   2.505   5.229  0.6264 -1.1322  0.2096
 3802TIP3   OH232896   1.338   3.277  12.154 -0.2999  0.9865 -0.0850
 3802TIP3    H132897   1.354   3.359  12.200 -1.4712  1.6996 -0.9341
 3802TIP3    H232898   1.246   3.256  12.172  0.0003 -0.1892  0.1795
 3803TIP3   OH232899   4.701   2.068   2.216 -0.4052 -0.4912  0.1826
 3803TIP3    H132900   4.775   2.022   2.176  0.4879  1.4069 -0.4025
 3803TIP3    H232901   4.724   2.074   2.309  0.6089  0.8522 -0.1374
 3804TIP3   OH232902   2.679   1.746   5.292 -0.2441 -0.3038  0.2366
 3804TIP3    H132903   2.587   1.748   5.320  0.2908 -2.9504  2.3522
 3804TIP3    H232904   2.678   1.693   5.212 -0.6470  0.3663 -0.2122
 3805TIP3   OH232905   5.901   1.470   0.543 -0.0341 -0.1031 -0.1132
 3805TIP3    H132906   5.962   1.397   0.549  0.7202  0.4954 -0.4213
 3805TIP3    H232907   5.889   1.498   0.634 -0.7875 -0.9905  0.0561
 3806TIP3   OH232908   6.391   4.483  16.603 -0.1778  0.4754  0.1729
 3806TIP3    H132909   6.356   4.400  16.571 -2.7488  2.1408 -1.4124
 3806TIP3    H232910   6.315   4.530  16.638  1.3813  1.8476  1.8641
 3807TIP3   OH232911   4.446   3.974  11.379 -0.2086  0.3320  0.0613
 3807TIP3    H132912   4.403   3.912  11.438  1.7046  0.9852  2.1969
 3807TIP3    H232913   4.539   3.965  11.399  0.3158  1.8725 -1.6172
 3808TIP3   OH232914   3.272   0.294  10.670  0.0548 -0.2658 -0.0554
 3808TIP3    H132915   3.185   0.330  10.654  0.7012  1.0236 -0.6933
 3808TIP3    H232916   3.259   0.199  10.671 -1.3261 -0.0841 -0.3061
 3809TIP3   OH232917   2.484   2.525  14.380  0.0101 -0.6386  0.1028
 3809TIP3    H132918   2.561   2.504  14.327 -0.1654  1.6434 -1.0684
 3809TIP3    H232919   2.505   2.608  14.422 -2.8079  1.3145 -2.2154
 3810TIP3   OH232920   1.637   4.221  14.287 -0.3414 -0.4282 -0.1611
 3810TIP3    H132921   1.686   4.239  14.368 -0.0352 -0.5805 -0.3148
 3810TIP3    H232922   1.703   4.225  14.218 -0.3861 -1.5561 -0.2637
 3811TIP3   OH232923   4.518   0.685  12.938 -0.3889 -0.2641  0.3402
 3811TIP3    H132924   4.433   0.710  12.902 -0.5745 -0.0619  0.9130
 3811TIP3    H232925   4.505   0.686  13.033  0.7032  1.3592  0.4842
 3812TIP3   OH232926   0.230   3.961  11.076 -0.4182 -0.0484 -0.1416
 3812TIP3    H132927   0.261   4.052  11.076 -0.2637 -0.1002 -0.5640
 3812TIP3    H232928   0.264   3.924  11.157 -1.0153  0.4548  0.3489
 3813TIP3   OH232929   6.038   3.066  13.721 -0.0940  0.2818 -0.4309
 3813TIP3    H132930   5.990   2.989  13.751 -0.4454  0.1638 -1.2781
 3813TIP3    H232931   5.977   3.112  13.663  0.4584  0.6647 -0.7244
 3814TIP3   OH232932   4.276   2.177   4.735  0.0825 -0.0251  0.3501
 3814TIP3    H132933   4.279   2.253   4.677 -0.0715 -1.2960 -1.3436
 3814TIP3    H232934   4.183   2.162   4.750  0.0969 -0.2425  0.2148
 3815TIP3   OH232935   4.299   4.283  15.398 -0.5263  0.0724 -0.5171
 3815TIP3    H132936   4.332   4.356  15.345 -1.5995  1.6643  0.9188
 3815TIP3    H232937   4.349   4.207  15.370  0.5313  1.3534 -2.1569
 3816TIP3   OH232938   5.310   2.204   2.455 -0.4813  0.1469  0.2209
 3816TIP3    H132939   5.273   2.128   2.411 -1.2401  0.7244 -0.1480
 3816TIP3    H232940   5.404   2.188   2.456 -0.7093 -1.1652  0.8540
 3817TIP3   OH232941   1.033   0.075   4.779 -0.2110 -0.6945 -0.3692
 3817TIP3    H132942   1.020   0.038   4.867  1.6291  0.5187  0.4531
 3817TIP3    H232943   1.124   0.105   4.780 -1.4307  3.2866 -1.1765
 3818TIP3   OH232944   5.455   4.213   5.918 -0.0265  0.5112 -0.6984
 3818TIP3    H132945   5.394   4.258   5.860 -2.2521 -2.2223 -0.6195
 3818TIP3    H232946   5.446   4.120   5.894  2.5958 -0.1577  0.7394
 3819TIP3   OH232947   1.762   6.566   4.657  0.0121 -0.0319  0.9895
 3819TIP3    H132948   1.679   6.520   4.643  0.7151 -1.1322  0.4388
 3819TIP3    H232949   1.784   6.601   4.571  0.4703 -0.3300  0.9864
 3820TIP3   OH232950   6.514   6.617  16.221 -0.2483 -0.9079 -0.2501
 3820TIP3    H132951   6.525   6.522  16.228  2.5375 -0.5585  0.9936
 3820TIP3    H232952   6.544   6.651  16.305 -0.5703  1.1215 -0.9214
 3821TIP3   OH232953   4.992   1.410   4.039 -0.0590 -0.2829  0.6380
 3821TIP3    H132954   4.929   1.483   4.037 -1.8383 -1.7704  0.6656
 3821TIP3    H232955   5.023   1.402   3.949 -2.4211 -1.6065 -0.1116
 3822TIP3   OH232956   2.084   5.673  13.612  0.4358 -0.5138 -0.0430
 3822TIP3    H132957   2.097   5.706  13.523  2.2131 -0.7655  0.1046
 3822TIP3    H232958   2.007   5.720  13.644 -1.0348 -1.3928 -2.1792
 3823TIP3   OH232959   5.227   5.431   0.240  0.0205 -0.3368 -0.0913
 3823TIP3    H132960   5.183   5.474   0.314 -0.7913 -0.5875 -0.4202
 3823TIP3    H232961   5.158   5.418   0.175  0.3380 -1.7163 -0.1811
 3824TIP3   OH232962   2.827   2.248   0.834 -0.4815  0.0980  0.1451
 3824TIP3    H132963   2.751   2.301   0.811  1.4948  2.2059 -1.8792
 3824TIP3    H232964   2.855   2.281   0.919 -1.1209  0.1699  0.3260
 3825TIP3   OH232965   5.151   0.248  16.968  0.4546  0.1110  0.0858
 3825TIP3    H132966   5.058   0.238  16.988 -0.0037  0.6872 -1.7102
 3825TIP3    H232967   5.186   0.299  17.041 -0.9511  1.1818  0.0247
 3826TIP3   OH232968   1.185   3.998   0.078 -0.6372  0.8479  0.2528
 3826TIP3    H132969   1.238   3.990   0.157 -1.5639  0.0516  0.7995
 3826TIP3    H232970   1.140   4.082   0.088  0.9595  1.8156 -0.4964
 3827TIP3   OH232971   6.439   4.518   5.098 -0.1461  0.0518 -0.0093
 3827TIP3    H132972   6.501   4.591   5.098  0.2022 -0.2413  0.2978
 3827TIP3    H232973   6.358   4.556   5.132  0.1293  0.2167  0.4638
 3828TIP3   OH232974   2.226   0.393  16.810  0.1822 -0.4231  0.0709
 3828TIP3    H132975   2.187   0.413  16.895 -1.2568 -1.4819 -0.3206
 3828TIP3    H232976   2.182   0.454  16.750 -0.6138 -1.3679 -0.3113
 3829TIP3   OH232977   1.063   6.797  13.587  0.2875  0.0680  0.3532
 3829TIP3    H132978   0.975   6.761  13.582  0.0776  0.4439  1.2505
 3829TIP3    H232979   1.097   6.791  13.498 -0.0383 -1.5957  0.3244
 3830TIP3   OH232980   2.161   5.905   5.739 -0.2031 -0.0602  0.6427
 3830TIP3    H132981   2.072   5.880   5.715 -0.5468  1.2881  0.4774
 3830TIP3    H232982   2.174   5.866   5.826 -1.3927  0.7434  1.1970
 3831TIP3   OH232983   3.107   0.197   3.812  0.1636  0.7710  0.3038
 3831TIP3    H132984   3.089   0.106   3.789  0.4703  0.9690 -0.7376
 3831TIP3    H232985   3.082   0.203   3.905  0.6693 -0.5006  0.5392
 3832TIP3   OH232986   1.259   3.567  10.883  0.4610 -0.4617 -0.3374
 3832TIP3    H132987   1.167   3.569  10.911  0.6539 -1.4424  0.4163
 3832TIP3    H232988   1.290   3.656  10.896 -0.4680 -0.0581 -0.8757
 3833TIP3   OH232989   3.997   2.577  11.316 -0.0717  0.3791 -0.1134
 3833TIP3    H132990   3.989   2.602  11.409  0.0504  1.5342 -0.4065
 3833TIP3    H232991   3.918   2.613  11.276  0.2844  0.5960 -0.6129
 3834TIP3   OH232992   5.574   3.685   4.533 -0.3458 -0.2998  0.9271
 3834TIP3    H132993   5.521   3.606   4.536  0.2292 -0.7538 -0.2100
 3834TIP3    H232994   5.531   3.741   4.468 -0.0516 -0.2175  0.7983
 3835TIP3   OH232995   4.497   5.108  12.739 -0.1357 -0.1948  0.4215
 3835TIP3    H132996   4.578   5.073  12.774  0.6321 -0.8341 -1.9031
 3835TIP3    H232997   4.516   5.200  12.721  0.1507 -0.4013 -0.3400
 3836TIP3   OH232998   1.968   0.236  12.346  0.5794 -0.3356 -0.1648
 3836TIP3    H132999   1.999   0.186  12.422 -1.6092  0.6974  1.4592
 3836TIP3    H233000   1.885   0.194  12.323 -0.6469  1.7496  0.4111
 3837TIP3   OH233001   4.896   1.125  16.380  0.4219 -0.1377 -0.2618
 3837TIP3    H133002   4.830   1.165  16.436  0.9599 -0.7230  0.8017
 3837TIP3    H233003   4.921   1.045  16.426 -0.7108 -1.7738 -2.3928
 3838TIP3   OH233004   0.464   6.526  12.671 -0.7360 -0.5494 -0.0661
 3838TIP3    H133005   0.478   6.606  12.620  0.1028 -0.3682  0.4359
 3838TIP3    H233006   0.472   6.455  12.607 -0.6237 -0.2725 -0.3580
 3839TIP3   OH233007   1.836   0.834   3.494 -0.9590  0.3158 -0.7960
 3839TIP3    H133008   1.922   0.875   3.505 -1.1084  0.5226 -0.3826
 3839TIP3    H233009   1.814   0.849   3.402  0.2964 -1.4135 -1.4047
 3840TIP3   OH233010   3.781   2.112   5.655 -0.6759  0.4031 -0.1458
 3840TIP3    H133011   3.839   2.090   5.582  0.3597 -0.7438  0.9918
 3840TIP3    H233012   3.712   2.164   5.615 -1.5845 -2.4085 -2.4709
 3841TIP3   OH233013   5.147   1.765  16.897 -0.1999 -0.2080  0.3387
 3841TIP3    H133014   5.056   1.767  16.870 -0.7194 -2.7001  1.7950
 3841TIP3    H233015   5.192   1.718  16.827  0.0198  1.0914 -0.4170
 3842TIP3   OH233016   1.675   2.772  12.518  0.6188  0.4500  0.2141
 3842TIP3    H133017   1.648   2.683  12.495  0.5049  0.9253 -1.5715
 3842TIP3    H233018   1.650   2.782  12.610 -1.0007 -0.7416 -0.0769
 3843TIP3   OH233019   2.718   6.033  14.550  0.4825 -0.3955  0.1871
 3843TIP3    H133020   2.773   5.958  14.573  2.3803  0.9792  0.2522
 3843TIP3    H233021   2.725   6.092  14.625 -0.7232 -0.0011 -0.0035
 3844TIP3   OH233022   4.188   2.185   1.966  0.3932  0.0137  0.2938
 3844TIP3    H133023   4.269   2.233   1.948  1.7467 -1.5626  1.9483
 3844TIP3    H233024   4.214   2.093   1.965 -1.9123 -0.6460 -1.6375
 3845TIP3   OH233025   2.953   4.884   1.743 -0.6809 -0.2032 -0.5394
 3845TIP3    H133026   2.993   4.950   1.799 -0.2556 -2.7627  2.2577
 3845TIP3    H233027   3.008   4.884   1.664  2.4374 -0.7669  1.5311
 3846TIP3   OH233028   3.187   2.776  11.228  0.5306 -0.4042  0.1089
 3846TIP3    H133029   3.209   2.700  11.174  0.1613 -1.2371  1.1119
 3846TIP3    H233030   3.097   2.797  11.204  0.6204 -0.3127 -0.1445
 3847TIP3   OH233031   1.973   4.889   6.132 -0.0809  0.5054  0.4441
 3847TIP3    H133032   1.975   4.870   6.038 -0.7296 -0.9162  0.7114
 3847TIP3    H233033   1.881   4.903   6.153  0.0972  1.1641  0.8043
 3848TIP3   OH233034   1.266   0.349   5.730  0.2500 -0.2553  0.2781
 3848TIP3    H133035   1.282   0.254   5.737 -1.9265 -0.7514 -1.1020
 3848TIP3    H233036   1.185   0.356   5.680  0.0408  2.3496  0.9225
 3849TIP3   OH233037   0.729   4.790   5.111  0.3671 -0.2963 -0.2578
 3849TIP3    H133038   0.714   4.845   5.034 -1.4452 -0.0128  0.2764
 3849TIP3    H233039   0.678   4.832   5.181 -1.8374 -3.1215 -0.0586
 3850TIP3   OH233040   2.141   3.673  16.129 -0.0144  0.4325 -0.0649
 3850TIP3    H133041   2.111   3.693  16.218  0.1200  3.3376 -0.6299
 3850TIP3    H233042   2.061   3.647  16.082 -0.6154  1.8501  0.1335
 3851TIP3   OH233043   6.398   1.592  15.776 -0.3784 -0.5612 -0.4428
 3851TIP3    H133044   6.358   1.522  15.724 -1.2230 -0.5384  0.1706
 3851TIP3    H233045   6.325   1.651  15.797 -0.2135 -0.9915  1.4552
 3852TIP3   OH233046   4.949   3.529  13.549 -0.4513  0.6273  0.1717
 3852TIP3    H133047   4.995   3.567  13.624 -0.4689  0.4120  0.2925
 3852TIP3    H233048   5.005   3.456  13.521 -0.0398  1.2085 -0.5257
 3853TIP3   OH233049   1.045   5.801   1.348 -0.2137 -0.3311  0.2085
 3853TIP3    H133050   1.002   5.763   1.271  0.0913  2.4311 -1.3928
 3853TIP3    H233051   1.131   5.761   1.350 -0.7469 -1.5081 -0.0123
 3854TIP3   OH233052   4.641   3.991  13.791 -0.1681 -0.0100  0.0471
 3854TIP3    H133053   4.569   4.016  13.733  0.6679  1.1950 -0.4867
 3854TIP3    H233054   4.600   3.981  13.877 -1.0857  0.0305 -0.3787
 3855TIP3   OH233055   5.017   1.671  11.732 -0.2004 -0.0507  0.5900
 3855TIP3    H133056   5.034   1.764  11.717 -0.9748  0.0410  0.2286
 3855TIP3    H233057   4.982   1.667  11.821  2.7318 -0.3812  1.7858
 3856TIP3   OH233058   2.209   0.023  14.720  0.0543 -0.6500 -0.2672
 3856TIP3    H133059   2.245   0.066  14.643  2.8872 -0.4654  1.0560
 3856TIP3    H233060   2.242  -0.067  14.714  0.4622 -0.5853  0.7754
 3857TIP3   OH233061   4.346   0.447   5.873 -0.0139 -0.3921  0.5310
 3857TIP3    H133062   4.261   0.436   5.916 -0.9967  0.6712 -1.0666
 3857TIP3    H233063   4.338   0.397   5.792  0.7127  0.0798  0.1664
 3858TIP3   OH233064   2.415   6.703  10.739  0.0689 -0.4594 -0.3626
 3858TIP3    H133065   2.469   6.779  10.715  1.0943 -0.7920  0.8271
 3858TIP3    H233066   2.331   6.741  10.765  0.2590  0.1920 -0.6855
 3859TIP3   OH233067   5.739   2.945   3.613 -0.3412 -0.2682  1.0397
 3859TIP3    H133068   5.774   2.944   3.524 -1.6566 -0.3112  0.5250
 3859TIP3    H233069   5.762   2.859   3.649  0.7442 -0.0180  0.9687
 3860TIP3   OH233070   6.746   5.873  13.407 -0.0412  0.1043 -1.1474
 3860TIP3    H133071   6.710   5.961  13.393 -1.7311  0.0133  2.3414
 3860TIP3    H233072   6.689   5.815  13.356  0.5482  0.8696 -2.7365
 3861TIP3   OH233073   0.823   2.561  15.626 -0.2632 -0.8008 -0.1422
 3861TIP3    H133074   0.733   2.593  15.619 -0.3689 -1.0833 -0.1090
 3861TIP3    H233075   0.841   2.560  15.720  0.4568  1.0971 -0.2450
 3862TIP3   OH233076   0.472   4.762   2.931 -0.2546 -0.2053  0.0003
 3862TIP3    H133077   0.474   4.857   2.947 -0.1929 -0.4740  1.6556
 3862TIP3    H233078   0.491   4.723   3.016  0.8086 -1.7074 -0.9058
 3863TIP3   OH233079   1.581   5.856  13.528 -0.0887 -0.3906 -0.2791
 3863TIP3    H133080   1.649   5.799  13.563 -2.2128 -3.6310 -1.1746
 3863TIP3    H233081   1.612   5.879  13.440  0.4325 -0.8204 -0.2073
 3864TIP3   OH233082   6.783   3.072  16.731  0.7674  0.0117 -0.1407
 3864TIP3    H133083   6.812   3.163  16.740  0.2702  0.2521 -0.9209
 3864TIP3    H233084   6.694   3.072  16.765 -0.2633  0.4253 -2.8023
 3865TIP3   OH233085   5.484   6.813   1.540 -0.6093  0.7091  0.6875
 3865TIP3    H133086   5.458   6.775   1.456  0.2174  1.0369  0.2798
 3865TIP3    H233087   5.519   6.899   1.518 -0.2692  0.7479  1.3618
 3866TIP3   OH233088   5.087   4.428   6.038 -0.2545 -0.2068 -0.1608
 3866TIP3    H133089   5.095   4.515   5.999 -1.4605  0.4389  0.9960
 3866TIP3    H233090   4.994   4.417   6.055 -0.1264 -1.7532 -0.3245
 3867TIP3   OH233091   4.779   2.591   2.579  0.6139 -0.2967  0.2828
 3867TIP3    H133092   4.696   2.605   2.533  1.5015  1.6760 -0.7651
 3867TIP3    H233093   4.809   2.506   2.548 -1.9686 -1.9789  2.1886
 3868TIP3   OH233094   6.703   3.872  10.644 -0.2820  0.0753 -0.1256
 3868TIP3    H133095   6.718   3.933  10.571  2.0847 -0.8603 -0.4711
 3868TIP3    H233096   6.729   3.921  10.722 -0.3205  0.2132 -0.1993
 3869TIP3   OH233097   2.496   3.331   4.282 -0.4746 -0.0898 -0.9226
 3869TIP3    H133098   2.403   3.327   4.259 -0.6955  0.8590 -0.2004
 3869TIP3    H233099   2.502   3.398   4.350  0.7911  0.1359 -1.2312
 3870TIP3   OH233100   2.036   4.213  16.748 -0.5798 -0.0614  0.2766
 3870TIP3    H133101   2.066   4.290  16.699 -2.6140  0.9979  0.6423
 3870TIP3    H233102   1.946   4.199  16.717 -2.4378  1.4730  4.6318
 3871TIP3   OH233103   4.223   0.972  11.306  0.3888  0.5105 -0.1184
 3871TIP3    H133104   4.300   0.984  11.362  0.0531 -0.4192  0.5566
 3871TIP3    H233105   4.196   0.882  11.322 -1.3198  1.0778  0.2369
 3872TIP3   OH233106   3.249   1.903   1.933  0.2262  0.4264 -0.3316
 3872TIP3    H133107   3.162   1.874   1.960  0.2718  0.9610  0.3987
 3872TIP3    H233108   3.279   1.834   1.873  0.6544 -1.4951  1.9964
 3873TIP3   OH233109   0.865   6.323  14.258 -0.3800 -0.0598 -0.8900
 3873TIP3    H133110   0.898   6.233  14.257  2.5228  0.8828  1.5500
 3873TIP3    H233111   0.944   6.378  14.256 -1.9525  2.3731  0.5099
 3874TIP3   OH233112   2.737   6.476   3.627  0.3496  0.0567  0.4125
 3874TIP3    H133113   2.731   6.572   3.636 -1.3956  0.2486 -2.2228
 3874TIP3    H233114   2.711   6.443   3.713  1.4333  1.9366  1.5063
 3875TIP3   OH233115   5.694   5.334  12.629  0.2176  0.1347 -0.0828
 3875TIP3    H133116   5.599   5.345  12.630  0.3202  1.0853 -0.2107
 3875TIP3    H233117   5.707   5.243  12.601 -0.6931 -0.6134  1.8082
 3876TIP3   OH233118   4.863   0.542  13.432  0.0029 -0.2209 -0.0837
 3876TIP3    H133119   4.858   0.620  13.376 -0.3680  0.1572  0.4669
 3876TIP3    H233120   4.774   0.531  13.465  0.4046  0.0711  1.1123
 3877TIP3   OH233121   1.822   1.250   1.641  0.1811 -0.5213 -0.1100
 3877TIP3    H133122   1.874   1.298   1.577  0.0401 -0.2929 -0.0534
 3877TIP3    H233123   1.740   1.299   1.647 -1.6122 -2.9355 -3.0150
 3878TIP3   OH233124   5.085   0.416   3.224  0.0266 -0.9639 -0.0135
 3878TIP3    H133125   5.109   0.404   3.133  0.4381  0.3219 -0.0871
 3878TIP3    H233126   5.168   0.422   3.271 -0.1771 -1.0560  0.3643
 3879TIP3   OH233127   5.520   2.901  11.619  0.2765  0.7700 -0.0097
 3879TIP3    H133128   5.607   2.918  11.582  1.6244 -3.6920  0.8972
 3879TIP3    H233129   5.530   2.920  11.712  0.4002 -0.1474  0.1644
 3880TIP3   OH233130   2.669   2.809  10.812 -0.4449 -0.0228  0.1469
 3880TIP3    H133131   2.745   2.756  10.835  0.2781 -1.2662 -4.5537
 3880TIP3    H233132   2.703   2.898  10.803 -0.1164 -0.0865  0.8117
 3881TIP3   OH233133   4.319   1.350   2.232  0.0831  0.3730  0.0839
 3881TIP3    H133134   4.315   1.398   2.150  2.5595  1.0387  0.2971
 3881TIP3    H233135   4.411   1.354   2.257 -0.9501  1.8758  3.9185
 3882TIP3   OH233136   2.824   5.423  11.651  0.0310  0.2082  0.5464
 3882TIP3    H133137   2.855   5.462  11.733  0.6140  0.8539  0.0197
 3882TIP3    H233138   2.857   5.481  11.583  0.5032 -0.9512 -0.2178
 3883TIP3   OH233139   3.554   3.496  12.434 -0.5444 -0.7629  0.5541
 3883TIP3    H133140   3.645   3.513  12.408 -1.0295 -0.3263 -0.8560
 3883TIP3    H233141   3.558   3.412  12.480  0.9096  0.2570  2.3836
 3884TIP3   OH233142   3.644   5.593   1.794  0.3267 -0.0310 -0.3710
 3884TIP3    H133143   3.737   5.613   1.785  0.1250  0.3377 -1.7056
 3884TIP3    H233144   3.638   5.500   1.771 -0.1873  0.9034 -4.4237
 3885TIP3   OH233145   1.470   5.382   2.080  0.9539 -0.0630 -0.3523
 3885TIP3    H133146   1.462   5.356   2.171  1.2151 -1.8787 -0.8263
 3885TIP3    H233147   1.432   5.470   2.076  1.9720  0.4815  1.6998
 3886TIP3   OH233148   6.404   4.128  16.275  0.1160  0.0003  0.6259
 3886TIP3    H133149   6.393   4.033  16.284 -0.1449 -0.0654 -0.2901
 3886TIP3    H233150   6.398   4.161  16.364  0.9225 -0.9162  1.0434
 3887TIP3   OH233151   1.297   3.218   4.739 -0.7896  0.3684  0.0008
 3887TIP3    H133152   1.331   3.302   4.709 -0.2384 -0.1662 -0.8621
 3887TIP3    H233153   1.206   3.236   4.763 -0.4349  1.3910  0.6078
 3888TIP3   OH233154   3.469   0.150  12.890 -0.2046  0.1304  1.0517
 3888TIP3    H133155   3.375   0.162  12.904 -0.4237 -0.4405  0.1117
 3888TIP3    H233156   3.495   0.225  12.837  0.2003  1.1491  2.6595
 3889TIP3   OH233157   1.143   6.670  11.600  0.5762  0.0371  0.2575
 3889TIP3    H133158   1.167   6.604  11.535 -0.1781  0.0238 -0.0186
 3889TIP3    H233159   1.133   6.620  11.681  1.4008  0.0335  0.3578
 3890TIP3   OH233160   3.632   4.967  15.620 -0.2995 -0.5487  0.7269
 3890TIP3    H133161   3.599   4.920  15.697 -1.4532  0.0704  0.6194
 3890TIP3    H233162   3.561   4.961  15.556  1.2506 -2.4005 -0.8751
 3891TIP3   OH233163   3.944   1.739  16.307 -0.4213 -0.6272 -0.0198
 3891TIP3    H133164   3.882   1.717  16.376 -1.0322 -0.1988 -0.4371
 3891TIP3    H233165   3.891   1.775  16.236  0.4445  1.0671  0.1752
 3892TIP3   OH233166   0.073   5.923  13.062  0.0986  0.1690 -0.1989
 3892TIP3    H133167   0.026   5.850  13.023 -0.5565  0.7162 -0.4307
 3892TIP3    H233168   0.133   5.952  12.994 -0.6763  0.7873 -0.6221
 3893TIP3   OH233169   1.147   4.693  11.852 -0.5929  0.2446  0.1490
 3893TIP3    H133170   1.120   4.620  11.796  0.9693 -1.0378  1.0228
 3893TIP3    H233171   1.080   4.695  11.921 -1.3743  0.5068 -0.6056
 3894TIP3   OH233172   0.866   1.537   5.220  0.4252 -0.0868  0.0411
 3894TIP3    H133173   0.864   1.589   5.301 -1.2918  0.8172 -0.5559
 3894TIP3    H233174   0.918   1.590   5.159 -0.2567  0.3373 -0.1733
 3895TIP3   OH233175   4.086   3.129  15.091 -0.2082 -0.3466 -0.2302
 3895TIP3    H133176   4.117   3.072  15.020 -1.6069 -0.2506 -0.9320
 3895TIP3    H233177   4.053   3.069  15.157 -1.0652 -0.3821 -0.6822
 3896TIP3   OH233178   0.521   1.781  17.131 -0.1952 -0.1317  0.0465
 3896TIP3    H133179   0.472   1.856  17.097 -0.2929  0.0183  0.5183
 3896TIP3    H233180   0.606   1.817  17.157 -0.0445 -0.2851 -0.2300
 3897TIP3   OH233181   6.292   3.227   0.528  0.2231  0.1215 -0.6645
 3897TIP3    H133182   6.339   3.159   0.577  0.4853  0.1378 -0.8922
 3897TIP3    H233183   6.273   3.294   0.593  2.4504  1.1332 -0.9995
 3898TIP3   OH233184   3.425   4.035   3.636 -0.1882  0.0273 -0.1895
 3898TIP3    H133185   3.344   4.035   3.685  0.0144  2.3233  0.1651
 3898TIP3    H233186   3.471   4.114   3.664  0.9650  0.1639 -2.3440
 3899TIP3   OH233187   2.001   0.149  10.386 -0.5503 -0.5887  0.3390
 3899TIP3    H133188   2.075   0.204  10.360 -0.0966 -0.7703  1.2219
 3899TIP3    H233189   2.023   0.062  10.353  0.2395 -0.9184  1.6694
 3900TIP3   OH233190   3.704   5.637  15.239  0.1610  0.1059  0.1704
 3900TIP3    H133191   3.687   5.586  15.160  0.9130 -0.9939  0.6952
 3900TIP3    H233192   3.618   5.665  15.270 -0.3404 -1.5093  0.2908
 3901TIP3   OH233193   5.975   4.614   0.875 -0.0660 -0.2100 -0.2423
 3901TIP3    H133194   5.973   4.520   0.857  2.4142 -1.0142  3.1331
 3901TIP3    H233195   6.068   4.637   0.871 -0.6140  2.0253 -0.6542
 3902TIP3   OH233196   4.926   4.910   2.542 -0.1933  0.3741 -0.1040
 3902TIP3    H133197   4.941   4.820   2.515  0.8130  0.6042 -0.3113
 3902TIP3    H233198   4.920   4.959   2.460 -1.6874  0.3517 -0.0203
 3903TIP3   OH233199   6.144   5.827   0.859  0.3823  0.6286 -0.0857
 3903TIP3    H133200   6.149   5.881   0.780 -1.7713 -0.1500 -0.8071
 3903TIP3    H233201   6.143   5.889   0.931  0.0778  1.4685 -0.8030
 3904TIP3   OH233202   1.023   6.105  12.201 -0.2532  0.2591 -0.0331
 3904TIP3    H133203   1.083   6.039  12.168  1.1797  0.5887  1.7981
 3904TIP3    H233204   0.939   6.059  12.212 -0.1049 -0.4349 -1.7180
 3905TIP3   OH233205   3.971   3.591  14.201 -0.2970  0.3833 -0.2334
 3905TIP3    H133206   3.913   3.575  14.275 -1.7501 -2.4178 -1.8856
 3905TIP3    H233207   3.925   3.655  14.147 -0.3431  0.6100  0.0727
 3906TIP3   OH233208   4.847   0.356  13.734  0.6733  0.1091  0.3360
 3906TIP3    H133209   4.880   0.278  13.688  1.0478 -0.6023  1.7802
 3906TIP3    H233210   4.753   0.355  13.719  0.6657 -0.6779  0.4084
 3907TIP3   OH233211   5.675   6.591   2.525 -0.2140  0.8872 -0.1116
 3907TIP3    H133212   5.743   6.645   2.484  0.4834 -1.3701 -2.0438
 3907TIP3    H233213   5.610   6.580   2.456 -0.7920  0.0161  0.5726
 3908TIP3   OH233214   6.743   1.910   3.397  0.2295  0.3325  0.2841
 3908TIP3    H133215   6.708   1.889   3.484 -0.0416 -0.7624 -0.0764
 3908TIP3    H233216   6.782   1.997   3.407  0.2101  0.2131  1.5020
 3909TIP3   OH233217   5.433   4.408  11.257 -0.4151  0.3670 -0.1716
 3909TIP3    H133218   5.406   4.322  11.288 -0.5575  0.7372  0.7636
 3909TIP3    H233219   5.476   4.448  11.332  1.7212  0.2360 -1.2963
 3910TIP3   OH233220   2.097   1.302   1.670  0.1374  0.1146  0.4247
 3910TIP3    H133221   2.014   1.272   1.706 -0.4637  0.7951 -0.3570
 3910TIP3    H233222   2.072   1.360   1.598  1.3200 -1.5751 -1.3708
 3911TIP3   OH233223   4.746   1.769  11.901 -0.3783 -0.3409 -0.5198
 3911TIP3    H133224   4.755   1.838  11.835  3.7312  1.1237  1.4266
 3911TIP3    H233225   4.734   1.817  11.983  0.5534 -1.9668  0.5861
 3912TIP3   OH233226   1.291   1.520  12.956 -0.2404 -0.0186 -0.3302
 3912TIP3    H133227   1.283   1.571  13.037  2.0654 -1.4244  0.8194
 3912TIP3    H233228   1.242   1.571  12.891 -2.8378  0.7192  2.1017
 3913TIP3   OH233229   6.739   1.433   0.920  0.3779 -0.2615  0.2372
 3913TIP3    H133230   6.689   1.451   0.841  1.1132  2.3078  0.2965
 3913TIP3    H233231   6.768   1.343   0.911 -2.1107 -0.9708 -0.9690
 3914TIP3   OH233232   2.847   0.546   0.468  0.0223 -0.0380  0.3584
 3914TIP3    H133233   2.919   0.539   0.530  1.1427  0.4145 -0.8583
 3914TIP3    H233234   2.805   0.461   0.470 -0.1001  0.0380  1.8946
 3915TIP3   OH233235   0.846   0.999  12.332 -1.0127 -0.5448  0.3055
 3915TIP3    H133236   0.761   1.041  12.315 -0.8018  0.0180  0.6333
 3915TIP3    H233237   0.825   0.907  12.343 -1.5724 -0.4266  0.2673
 3916TIP3   OH233238   0.469   2.464  13.835  0.1163  0.2500  0.2079
 3916TIP3    H133239   0.424   2.427  13.911 -2.9145 -1.1876 -2.1707
 3916TIP3    H233240   0.495   2.388  13.784  2.7026  1.1869  0.0702
 3917TIP3   OH233241   1.133   1.778   4.648  0.5020 -0.6269  0.2205
 3917TIP3    H133242   1.219   1.754   4.612  0.7462  0.8011 -0.2027
 3917TIP3    H233243   1.070   1.748   4.583  0.7878 -0.3303 -0.1976
 3918TIP3   OH233244   1.080   1.208   1.050 -0.2417 -0.0092  0.2588
 3918TIP3    H133245   1.027   1.195   0.971  0.3161 -0.3015 -0.0707
 3918TIP3    H233246   1.154   1.261   1.022  0.4166 -0.8444  0.3906
 3919TIP3   OH233247   3.149   3.989  12.049  0.0156  0.6860  0.2394
 3919TIP3    H133248   3.147   3.902  12.010  3.0823  0.7430 -0.1995
 3919TIP3    H233249   3.100   4.045  11.988 -0.0917 -0.3199 -0.5993
 3920TIP3   OH233250   0.226   4.235   6.287 -0.7328 -0.0782 -0.3853
 3920TIP3    H133251   0.280   4.310   6.262 -1.0796 -0.1793 -1.4384
 3920TIP3    H233252   0.186   4.261   6.370  0.1003  0.4199 -0.1335
 3921TIP3   OH233253   6.400   1.830  14.049 -0.0657 -0.1288 -0.2583
 3921TIP3    H133254   6.457   1.792  14.116  0.0229 -0.2884 -0.4240
 3921TIP3    H233255   6.312   1.820  14.085 -0.2489 -2.4448 -1.2158
 3922TIP3   OH233256   4.611   3.622  12.110 -0.5775 -0.2790  0.3987
 3922TIP3    H133257   4.570   3.583  12.034 -1.2163  0.5136  0.3366
 3922TIP3    H233258   4.643   3.547  12.161 -1.1450 -0.8465 -0.0771
 3923TIP3   OH233259   0.853   4.355   2.879  0.1914  0.0908  0.1454
 3923TIP3    H133260   0.821   4.288   2.939 -0.3235 -1.2306 -1.5361
 3923TIP3    H233261   0.940   4.324   2.854  0.1750  0.3332 -0.2123
 3924TIP3   OH233262   3.906   4.883  13.122 -0.6128  0.0352 -0.7941
 3924TIP3    H133263   3.814   4.892  13.147 -0.4726 -1.3218  0.2853
 3924TIP3    H233264   3.905   4.827  13.045 -0.7354  0.6409 -1.2376
 3925TIP3   OH233265   0.613   1.606  15.257  0.2669  0.4746  0.2967
 3925TIP3    H133266   0.543   1.546  15.231  0.4130 -0.1184  1.2443
 3925TIP3    H233267   0.694   1.558  15.241  0.4867  1.2950 -1.1311
 3926TIP3   OH233268   2.682   4.956   2.931  0.2776 -0.2071 -0.5393
 3926TIP3    H133269   2.755   4.979   2.873  0.6798 -1.6004 -0.6071
 3926TIP3    H233270   2.605   4.958   2.874  0.4491 -0.0236 -0.7670
 3927TIP3   OH233271   6.068   2.279  11.234 -0.4714  0.5073 -0.4726
 3927TIP3    H133272   6.126   2.224  11.180 -0.1202  0.6298 -0.2213
 3927TIP3    H233273   6.101   2.368  11.220  0.3252  0.4254  0.8133
 3928TIP3   OH233274   0.556   3.235   5.039  0.3461  0.4725 -0.6537
 3928TIP3    H133275   0.534   3.144   5.016 -0.3314  0.7973 -1.2990
 3928TIP3    H233276   0.649   3.243   5.020  0.4283 -0.1188 -0.5098
 3929TIP3   OH233277   2.302   1.266   3.131 -0.2782  0.1216  0.6131
 3929TIP3    H133278   2.308   1.271   3.226 -1.1897 -1.5947  0.7781
 3929TIP3    H233279   2.314   1.174   3.111 -1.1374  0.3102 -0.8556
 3930TIP3   OH233280   4.492   4.561  13.897 -0.0611  0.3444  0.6186
 3930TIP3    H133281   4.572   4.597  13.859 -0.2039 -0.6866 -0.7218
 3930TIP3    H233282   4.422   4.596  13.841 -0.6449  1.9164  2.2855
 3931TIP3   OH233283   6.781   0.867  16.698 -0.0306  1.0269 -0.5238
 3931TIP3    H133284   6.698   0.872  16.745 -0.8829 -1.5779 -1.6538
 3931TIP3    H233285   6.804   0.774  16.701  2.0567  1.4906 -1.5738
 3932TIP3   OH233286   2.652   4.635   2.162  0.0594 -0.2296 -0.0224
 3932TIP3    H133287   2.673   4.577   2.236  3.4089  0.9208 -0.0003
 3932TIP3    H233288   2.731   4.634   2.109 -2.2081 -0.8242 -3.5202
 3933TIP3   OH233289   2.947   2.593  15.108  0.2450  0.2775  0.0497
 3933TIP3    H133290   3.031   2.566  15.072  0.3127  0.0495  0.3737
 3933TIP3    H233291   2.910   2.652  15.042  0.5787  0.2388 -0.1732
 3934TIP3   OH233292   1.998   1.720  12.636  0.1828 -0.1781  0.3579
 3934TIP3    H133293   2.076   1.772  12.655 -0.3519  0.1488  1.6979
 3934TIP3    H233294   1.925   1.782  12.641 -0.5418 -1.1452  2.7212
 3935TIP3   OH233295   4.339   2.570   5.605  0.7419 -0.1491 -0.7401
 3935TIP3    H133296   4.407   2.571   5.673 -0.7963  0.3533  0.8501
 3935TIP3    H233297   4.334   2.478   5.578 -0.1550 -0.7924  1.4658
 3936TIP3   OH233298   2.776   4.448   1.826  0.1963  0.0051  0.1214
 3936TIP3    H133299   2.860   4.488   1.803  0.7388 -1.3786 -0.3175
 3936TIP3    H233300   2.799   4.373   1.881 -0.9036  1.2344  2.3392
 3937TIP3   OH233301   5.651   1.343  14.054 -0.0020  0.4738 -0.0922
 3937TIP3    H133302   5.557   1.337  14.070 -0.2685  1.9613 -1.0131
 3937TIP3    H233303   5.659   1.359  13.960  1.1000  1.8432  0.2037
 3938TIP3   OH233304   4.477   4.625  14.949  0.6379 -0.2311  0.6190
 3938TIP3    H133305   4.450   4.553  15.006 -1.1067 -0.2538 -0.1936
 3938TIP3    H233306   4.409   4.692  14.960 -1.3446 -1.3610 -3.4535
 3939TIP3   OH233307   2.427   1.345  12.511  0.0050 -0.2887  0.5390
 3939TIP3    H133308   2.364   1.339  12.584 -0.3095 -1.4874  0.1754
 3939TIP3    H233309   2.377   1.318  12.434  0.5160  0.3761 -0.0292
 3940TIP3   OH233310   4.385   2.206   5.358  0.6414  0.2996 -0.1245
 3940TIP3    H133311   4.296   2.178   5.377  1.2176 -0.8360  1.0100
 3940TIP3    H233312   4.398   2.285   5.411  0.6282 -0.0763  0.4345
 3941TIP3   OH233313   4.505   3.775   1.302  0.2095  0.3549 -0.0550
 3941TIP3    H133314   4.424   3.732   1.278 -0.5750  1.9085 -0.2542
 3941TIP3    H233315   4.572   3.707   1.295 -0.9873 -0.7885 -0.4265
 3942TIP3   OH233316   3.433   5.356  12.292  0.0129  0.1318  0.4503
 3942TIP3    H133317   3.386   5.438  12.303  0.2082  0.0151  2.3364
 3942TIP3    H233318   3.366   5.288  12.304  0.0212  0.0029 -0.2155
 3943TIP3   OH233319   3.628   3.495   3.132  0.2649 -0.2536  0.2653
 3943TIP3    H133320   3.673   3.490   3.047 -1.8172 -1.4192 -0.8047
 3943TIP3    H233321   3.581   3.579   3.129 -0.5781 -0.7329 -0.1476
 3944TIP3   OH233322   0.125   3.500  11.424 -0.0424 -0.0166 -0.2977
 3944TIP3    H133323   0.212   3.529  11.453  0.8970 -2.4751 -0.5835
 3944TIP3    H233324   0.089   3.576  11.378  1.4507  1.4412  0.8475
 3945TIP3   OH233325   3.374   3.346  15.815 -0.5442  0.0888 -0.7544
 3945TIP3    H133326   3.339   3.277  15.871 -0.4019  0.2558 -0.4560
 3945TIP3    H233327   3.466   3.353  15.841 -0.3750 -0.1162 -1.2984
 3946TIP3   OH233328   4.917   3.154  15.305 -0.4234  0.1119  0.5990
 3946TIP3    H133329   4.934   3.221  15.239  0.2105 -0.4391  0.2001
 3946TIP3    H233330   5.004   3.120  15.328 -0.6884 -0.1374  1.2559
 3947TIP3   OH233331   2.494   1.124   2.076 -0.1077  0.4080 -0.3058
 3947TIP3    H133332   2.526   1.101   1.989 -0.2944  1.4303 -0.6428
 3947TIP3    H233333   2.406   1.086   2.081  0.5785 -1.2048  0.1144
 3948TIP3   OH233334   1.765   2.945  12.094  0.0530 -0.5730 -0.0577
 3948TIP3    H133335   1.720   3.018  12.052 -1.2235 -1.0357  0.4997
 3948TIP3    H233336   1.749   2.871  12.035 -1.2160 -1.0816  0.9088
 3949TIP3   OH233337   0.485   5.071  11.109  0.0985  0.0129 -0.1209
 3949TIP3    H133338   0.447   5.113  11.186 -0.8016  0.1341 -0.6206
 3949TIP3    H233339   0.531   4.994  11.143  0.4088  0.5201  0.6209
 3950TIP3   OH233340   3.511   4.029  16.261  0.0389  0.4467  0.1551
 3950TIP3    H133341   3.580   4.051  16.199  0.6039  0.1073  0.6625
 3950TIP3    H233342   3.549   4.047  16.347 -0.5001  0.2467  0.4406
 3951TIP3   OH233343   5.064   2.635   3.518  0.2437 -0.2571 -0.2451
 3951TIP3    H133344   5.099   2.551   3.549  0.6727 -0.7800 -2.0686
 3951TIP3    H233345   5.131   2.668   3.458 -0.4671  0.8330 -0.4556
 3952TIP3   OH233346   1.547   0.800   2.142 -0.0527  0.3470 -0.4310
 3952TIP3    H133347   1.486   0.728   2.159 -0.6420  1.3194  1.7729
 3952TIP3    H233348   1.495   0.864   2.093 -0.2925  0.3873 -0.1296
 3953TIP3   OH233349   4.385   5.267  17.030  0.6593  0.0538  0.0995
 3953TIP3    H133350   4.315   5.309  16.980 -1.0137 -1.4861  1.0772
 3953TIP3    H233351   4.366   5.173  17.023  2.7775 -0.4039  0.1908
 3954TIP3   OH233352   4.322   2.012   4.475  0.1221 -0.1573  0.1745
 3954TIP3    H133353   4.233   2.035   4.448  0.9305  1.0357 -1.5212
 3954TIP3    H233354   4.340   2.067   4.551 -0.6786 -0.6234  0.7133
 3955TIP3   OH233355   2.154   2.558  12.799  0.0530 -0.6881  0.5824
 3955TIP3    H133356   2.214   2.497  12.842  2.2169  0.0207 -1.3328
 3955TIP3    H233357   2.178   2.643  12.836  0.8459 -0.2893 -0.8415
 3956TIP3   OH233358   1.555   2.514   0.619 -0.1029 -0.3575  0.1334
 3956TIP3    H133359   1.599   2.568   0.553 -1.2464  0.3890 -0.0282
 3956TIP3    H233360   1.626   2.465   0.660  0.5751 -1.1832 -1.9616
 3957TIP3   OH233361   0.354   4.452  16.184  0.0365 -0.5253  0.1577
 3957TIP3    H133362   0.314   4.447  16.271 -0.3044  0.7803  0.0898
 3957TIP3    H233363   0.447   4.465  16.201  0.1116 -1.2563  0.3244
 3958TIP3   OH233364   2.133   5.791  15.892  0.9943 -0.0035  0.1735
 3958TIP3    H133365   2.204   5.808  15.831  0.3278  1.7106 -0.1576
 3958TIP3    H233366   2.059   5.766  15.837  0.2341  2.0848  0.1992
 3959TIP3   OH233367   6.554   1.363  15.280  0.0491  0.7294  0.4303
 3959TIP3    H133368   6.607   1.442  15.280 -0.3807  1.0197  1.0381
 3959TIP3    H233369   6.483   1.381  15.342  1.0250 -0.8465  2.0624
 3960TIP3   OH233370   4.823   6.234  11.049  0.4253 -0.0448 -0.1340
 3960TIP3    H133371   4.754   6.259  11.111 -0.4442 -2.8729  0.1136
 3960TIP3    H233372   4.846   6.145  11.075 -1.7173 -2.3097 -5.3584
 3961TIP3   OH233373   3.934   4.391  10.543 -0.2563  0.3662 -0.2877
 3961TIP3    H133374   3.925   4.486  10.543 -2.2166  0.2001  0.4270
 3961TIP3    H233375   4.002   4.374  10.609  0.5806  1.2965 -0.8961
 3962TIP3   OH233376   5.353   6.611   5.559 -0.3337 -0.4312  0.5941
 3962TIP3    H133377   5.375   6.702   5.579  0.3032 -0.0968 -1.5748
 3962TIP3    H233378   5.434   6.563   5.575 -0.7773 -0.7023  2.1241
 3963TIP3   OH233379   0.636   4.726  13.090  0.3968  0.5851  0.4976
 3963TIP3    H133380   0.656   4.756  13.179  0.4995 -0.6133  0.8856
 3963TIP3    H233381   0.702   4.660  13.071 -2.7065 -2.9845  1.5539
 3964TIP3   OH233382   3.090   6.029   0.251 -0.0994 -0.0087 -0.2438
 3964TIP3    H133383   3.105   5.938   0.277  0.4119  0.1935  0.1814
 3964TIP3    H233384   3.123   6.035   0.162  0.4768 -0.0704 -0.0316
 3965TIP3   OH233385   3.392   4.445  13.987 -0.6217 -0.1441  0.3874
 3965TIP3    H133386   3.324   4.386  13.955 -0.8614  0.4491 -0.2156
 3965TIP3    H233387   3.371   4.458  14.079 -1.7562  0.6084  0.0320
 3966TIP3   OH233388   3.831   6.477  11.295 -0.6167  0.4577  0.0059
 3966TIP3    H133389   3.913   6.524  11.285 -1.5422  2.0620 -0.2286
 3966TIP3    H233390   3.772   6.517  11.231 -0.4662 -3.2792 -2.5901
 3967TIP3   OH233391   6.748   5.032  16.323 -0.9956 -0.4323 -0.0394
 3967TIP3    H133392   6.771   4.963  16.385  1.6887  0.9130  0.5406
 3967TIP3    H233393   6.693   5.092  16.373 -0.1193 -0.1602  0.6085
 3968TIP3   OH233394   4.376   3.511   3.199  0.3257  0.4018  0.2993
 3968TIP3    H133395   4.374   3.486   3.107 -0.9298 -0.7528  0.6197
 3968TIP3    H233396   4.445   3.577   3.205 -0.5604  1.5845 -1.7473
 3969TIP3   OH233397   1.466   4.279  10.751  0.1806 -0.1805 -0.2728
 3969TIP3    H133398   1.451   4.184  10.753  0.7593 -0.3304 -2.0780
 3969TIP3    H233399   1.448   4.304  10.660  2.6128  0.9950 -0.4600
 3970TIP3   OH233400   6.078   5.255  15.364  0.4830  0.2804 -0.1154
 3970TIP3    H133401   6.158   5.293  15.327  1.1080  1.3179  2.1960
 3970TIP3    H233402   6.106   5.219  15.448 -1.7739  2.0317  1.4342
 3971TIP3   OH233403   2.509   4.335  12.965  0.0429  0.0705  0.5472
 3971TIP3    H133404   2.485   4.425  12.943  1.2880 -0.0724 -1.5005
 3971TIP3    H233405   2.433   4.283  12.939  0.1454  0.2996 -0.2258
 3972TIP3   OH233406   6.364   0.511  11.602 -0.3769 -0.6251  0.7143
 3972TIP3    H133407   6.274   0.516  11.633  0.2709  0.8996  2.4321
 3972TIP3    H233408   6.390   0.602  11.589  1.4907 -0.9588  1.9828
 3973TIP3   OH233409   1.170   1.030  16.157 -0.3725  0.3869  0.5093
 3973TIP3    H133410   1.265   1.031  16.151 -0.4649 -0.6685 -1.5015
 3973TIP3    H233411   1.149   0.944  16.195 -0.6001 -0.3900 -1.3084
 3974TIP3   OH233412   1.242   1.889  12.992  0.1892 -0.0547  0.1264
 3974TIP3    H133413   1.224   1.818  13.053  2.2472  0.1941  1.0574
 3974TIP3    H233414   1.233   1.849  12.906 -1.3326 -0.7562  0.5871
 3975TIP3   OH233415   2.075   5.598   0.340 -0.3083 -0.1827 -0.4605
 3975TIP3    H133416   2.040   5.662   0.278 -0.8648 -0.5141 -0.4876
 3975TIP3    H233417   2.120   5.533   0.285  2.6678  1.6225 -0.2914
 3976TIP3   OH233418   0.684   6.429   2.797  0.1433  0.0738 -0.5375
 3976TIP3    H133419   0.640   6.377   2.865  2.5140 -0.9105  0.2812
 3976TIP3    H233420   0.702   6.367   2.727  1.0377  0.2676 -0.4813
 3977TIP3   OH233421   5.069   3.084   0.450 -0.1100 -0.5675 -0.0205
 3977TIP3    H133422   4.977   3.058   0.458 -0.6094  1.4749  1.0110
 3977TIP3    H233423   5.114   3.031   0.515 -0.7744 -0.4477  0.5401
 3978TIP3   OH233424   2.715   1.222  12.755 -0.9255 -0.6447 -0.1817
 3978TIP3    H133425   2.640   1.281  12.759 -0.9489 -0.6674 -0.2753
 3978TIP3    H233426   2.719   1.195  12.663  0.0531  0.4583 -0.4856
 3979TIP3   OH233427   1.544   5.786  16.418  0.2175 -0.0431  0.2622
 3979TIP3    H133428   1.528   5.700  16.379  0.5471 -0.7095  1.5609
 3979TIP3    H233429   1.619   5.820  16.370  1.1751 -1.2316  0.8576
 3980TIP3   OH233430   3.608   1.162  15.857 -0.4807 -0.3167 -0.5404
 3980TIP3    H133431   3.689   1.133  15.899  0.2275  0.3772 -1.4227
 3980TIP3    H233432   3.609   1.257  15.867 -0.7143 -0.2262 -1.4056
 3981TIP3   OH233433   6.448   6.059  11.867 -0.1562  0.6278  0.6643
 3981TIP3    H133434   6.534   6.030  11.838 -0.7909  0.6169 -1.3178
 3981TIP3    H233435   6.463   6.099  11.953  1.7887  0.4732  0.4093
 3982TIP3   OH233436   4.375   1.511  11.710  0.0450  0.2529 -0.2018
 3982TIP3    H133437   4.299   1.457  11.686  0.9234 -0.9820 -0.2134
 3982TIP3    H233438   4.408   1.544  11.627  0.7503 -0.8812 -0.3813
 3983TIP3   OH233439   5.542   1.762   1.803  0.0090  0.1286 -0.0517
 3983TIP3    H133440   5.533   1.818   1.880 -0.4211  0.0495 -0.0435
 3983TIP3    H233441   5.472   1.790   1.745  0.1177 -0.0499 -0.2687
 3984TIP3   OH233442   0.104   3.634   1.564 -0.0374  0.2658 -0.3488
 3984TIP3    H133443   0.125   3.676   1.648  0.8440  0.0011 -0.4340
 3984TIP3    H233444   0.020   3.672   1.539 -1.2421 -1.0063  1.5745
 3985TIP3   OH233445   0.518   6.137  13.727  0.1322 -0.1128 -0.4395
 3985TIP3    H133446   0.423   6.131  13.718  0.0905  0.1917 -0.2264
 3985TIP3    H233447   0.553   6.102  13.645 -0.1778  0.3778 -0.7851
 3986TIP3   OH233448   0.881   1.581  13.067 -0.2513 -0.0931  0.3958
 3986TIP3    H133449   0.895   1.544  12.980 -0.4793 -0.1212  0.3688
 3986TIP3    H233450   0.886   1.505  13.126 -2.1274 -0.4110  0.1975
 3987TIP3   OH233451   1.886   1.655  11.926  0.4914  0.1874  0.2408
 3987TIP3    H133452   1.803   1.667  11.972 -0.3404 -1.9160 -0.6660
 3987TIP3    H233453   1.898   1.737  11.878 -0.4456  0.9811  1.3415
 3988TIP3   OH233454   1.630   0.659   3.562 -0.0191  0.0555  0.2679
 3988TIP3    H133455   1.697   0.725   3.548 -1.1461  1.0931 -0.3436
 3988TIP3    H233456   1.637   0.601   3.487  1.3288 -0.8399  1.0763
 3989TIP3   OH233457   2.359   1.897  11.287 -0.1767  0.5932  0.0025
 3989TIP3    H133458   2.346   1.948  11.207 -1.2119 -1.3057 -1.0900
 3989TIP3    H233459   2.394   1.813  11.255  1.7282  0.6952  1.7610
 3990TIP3   OH233460   0.638   0.661  16.457 -0.5843  0.8501 -0.0917
 3990TIP3    H133461   0.624   0.641  16.364  0.1657  0.6610 -0.1651
 3990TIP3    H233462   0.558   0.628  16.500 -0.4522 -0.0799 -0.5283
 3991TIP3   OH233463   1.229   3.240  13.151  0.0739 -0.2485  0.0485
 3991TIP3    H133464   1.225   3.146  13.164 -0.1666 -0.1214  0.9138
 3991TIP3    H233465   1.301   3.269  13.206 -1.7564  0.4549  2.1772
 3992TIP3   OH233466   4.972   2.387   5.656  0.1784 -0.4730  0.5556
 3992TIP3    H133467   4.945   2.333   5.581 -0.7132  1.4213 -0.5102
 3992TIP3    H233468   5.068   2.390   5.649  0.0812  0.0297 -0.7709
 3993TIP3   OH233469   4.182   0.762  14.770  1.0564  0.1320  0.5408
 3993TIP3    H133470   4.181   0.856  14.754 -0.2953  0.4616  2.2909
 3993TIP3    H233471   4.274   0.738  14.771  1.3705  1.2068 -1.1130
 3994TIP3   OH233472   2.215   1.496   2.356  0.2816  0.5265  0.2247
 3994TIP3    H133473   2.307   1.494   2.330  0.3956 -0.8406  0.6575
 3994TIP3    H233474   2.168   1.526   2.278  1.1071  1.4185  0.0666
 3995TIP3   OH233475   3.739   4.502  15.308  0.6258 -0.0102 -0.0168
 3995TIP3    H133476   3.659   4.477  15.354  0.3792 -0.2876 -0.5913
 3995TIP3    H233477   3.761   4.425  15.255  1.6196 -0.1691  0.6054
 3996TIP3   OH233478   3.514   3.063   1.122 -0.5701  0.2594 -0.2717
 3996TIP3    H133479   3.522   2.973   1.155  0.0551  0.7242  0.8630
 3996TIP3    H233480   3.517   3.054   1.027 -0.8613 -0.9562 -0.1758
 3997TIP3   OH233481   6.492   2.528  11.977  0.1684 -0.3224 -0.2836
 3997TIP3    H133482   6.483   2.526  11.882 -1.7702 -1.0510 -0.1097
 3997TIP3    H233483   6.448   2.448  12.007 -1.2627  1.0176  1.3389
 3998TIP3   OH233484   3.355   5.071   1.032 -0.1215  0.2690 -0.3464
 3998TIP3    H133485   3.440   5.036   1.005 -1.0247 -2.7766  0.4992
 3998TIP3    H233486   3.291   5.012   0.993 -1.6824  0.0644  2.3883
 3999TIP3   OH233487   4.089   5.416  12.639  0.4279 -0.5546 -0.1054
 3999TIP3    H133488   4.014   5.375  12.682  1.4027 -1.9081  0.3468
 3999TIP3    H233489   4.123   5.349  12.580 -0.0522  0.8225 -2.0063
 4000TIP3   OH233490   1.632   2.908  16.688  0.2829 -0.4946  0.3849
 4000TIP3    H133491   1.720   2.943  16.674  0.5114 -1.1595  0.1158
 4000TIP3    H233492   1.593   2.966  16.753  1.1939 -0.6314  1.0702
 4001TIP3   OH233493   5.125   3.067   3.259  0.0306 -0.1314 -0.0363
 4001TIP3    H133494   5.073   3.065   3.340  0.8146 -2.1460  0.4507
 4001TIP3    H233495   5.070   3.022   3.194  1.0478 -2.1777  0.4542
 4002TIP3   OH233496   4.685   2.337   0.846 -0.3373 -0.8611 -0.7279
 4002TIP3    H133497   4.709   2.252   0.807 -0.7261 -1.3388  0.0752
 4002TIP3    H233498   4.700   2.325   0.939  0.5299  0.2723 -0.7073
 4003TIP3   OH233499   1.056   1.272  12.047  0.2800 -0.2861  0.5024
 4003TIP3    H133500   1.050   1.176  12.041  0.6151 -0.2495 -0.6271
 4003TIP3    H233501   1.144   1.293  12.016 -0.4679  0.5149 -1.1545
 4004TIP3   OH233502   3.902   3.215  11.866 -0.3879 -0.8400  0.2998
 4004TIP3    H133503   3.966   3.220  11.794  1.3254 -0.6435  1.7815
 4004TIP3    H233504   3.909   3.125  11.897  0.0784 -0.4900  1.2452
 4005TIP3   OH233505   0.482   4.731   4.546 -0.1549  0.4421  0.0431
 4005TIP3    H133506   0.535   4.681   4.483 -1.0451 -0.0580 -0.3287
 4005TIP3    H233507   0.458   4.667   4.613 -0.8119  0.5118 -0.1253
 4006TIP3   OH233508   4.512   0.101  16.721  0.6153 -0.5509 -0.2801
 4006TIP3    H133509   4.514   0.051  16.640 -1.3208  0.1189 -0.7920
 4006TIP3    H233510   4.454   0.051  16.778  1.2427 -0.5449  0.3646
 4007TIP3   OH233511   6.604   2.489   0.612  0.1279  1.1594 -0.5220
 4007TIP3    H133512   6.660   2.493   0.690  1.0940  0.7515 -1.1773
 4007TIP3    H233513   6.564   2.402   0.616 -0.8894  1.6548  0.2306
 4008TIP3   OH233514   3.861   0.413  16.978  0.1309  0.5141  0.2761
 4008TIP3    H133515   3.816   0.333  16.951  2.5605 -0.5337 -0.8542
 4008TIP3    H233516   3.896   0.450  16.897  0.0807  2.0606  0.9421
 4009TIP3   OH233517   2.835   3.197   5.060 -0.4275  0.4563 -0.3835
 4009TIP3    H133518   2.896   3.220   4.990  1.4895 -1.3986  0.6481
 4009TIP3    H233519   2.875   3.121   5.104 -2.7735  0.0745  1.1954
 4010TIP3   OH233520   3.599   1.957   0.207 -0.2296  0.4886  0.0287
 4010TIP3    H133521   3.648   1.904   0.144  0.6306  0.3785  0.7595
 4010TIP3    H233522   3.648   1.946   0.289 -1.3364  0.6043  0.7176
 4011TIP3   OH233523   5.409   2.643   4.412  0.1512  0.0919  0.0753
 4011TIP3    H133524   5.433   2.584   4.341 -0.1833  0.0997 -0.0453
 4011TIP3    H233525   5.324   2.678   4.387 -0.0352 -0.0203  0.5488
 4012TIP3   OH233526   1.506   3.865  11.440  0.0546  0.0624  0.0261
 4012TIP3    H133527   1.445   3.856  11.367  0.0668  1.5190 -0.1675
 4012TIP3    H233528   1.545   3.951  11.429 -0.8263  0.8080  2.4305
 4013TIP3   OH233529   0.344   5.809   0.984  0.2189 -0.1360 -0.0882
 4013TIP3    H133530   0.266   5.807   1.039  1.2017 -0.6509  1.3460
 4013TIP3    H233531   0.379   5.897   0.995  0.0016 -0.0041 -0.4769
 4014TIP3   OH233532   5.244   1.441   4.177 -0.1491 -0.3662 -0.5664
 4014TIP3    H133533   5.293   1.381   4.122  0.7651  0.2945 -0.4961
 4014TIP3    H233534   5.156   1.442   4.141 -0.1360 -1.6468 -0.6405
 4015TIP3   OH233535   0.689   0.768  15.471  0.3495 -0.5755 -0.3048
 4015TIP3    H133536   0.694   0.676  15.445  2.3513 -0.9028  1.1276
 4015TIP3    H233537   0.750   0.813  15.413  1.0597 -0.5296  0.4603
 4016TIP3   OH233538   1.478   3.574   0.578 -0.0173 -0.4402 -0.2090
 4016TIP3    H133539   1.423   3.507   0.617  1.1907 -1.0753  0.4515
 4016TIP3    H233540   1.565   3.533   0.571  0.5664  0.8034 -0.4556
 4017TIP3   OH233541   4.029   2.895  15.299 -0.4082  0.2182 -0.5791
 4017TIP3    H133542   4.026   2.811  15.253  1.6693 -0.7300  0.9779
 4017TIP3    H233543   4.095   2.884  15.367 -1.2039  2.6185  0.6593
 4018TIP3   OH233544   5.980   0.014   2.206  0.5886 -0.6412 -0.4243
 4018TIP3    H133545   5.954  -0.013   2.118  1.9564  0.4485 -1.1842
 4018TIP3    H233546   5.930   0.094   2.223  0.0957 -1.0188 -0.0821
 4019TIP3   OH233547   5.952   6.470  17.143  0.4681 -0.1713  0.1401
 4019TIP3    H133548   5.940   6.545  17.201 -0.7524 -0.1137 -0.1774
 4019TIP3    H233549   6.045   6.448  17.152  0.6237  0.7697  0.9678
 4020TIP3   OH233550   2.385   3.782   5.084  0.0240  0.0487  0.4545
 4020TIP3    H133551   2.363   3.717   5.152  3.5036  0.1684  1.8140
 4020TIP3    H233552   2.357   3.866   5.121 -3.2298 -0.4599 -0.7224
 4021TIP3   OH233553   3.526   4.482   1.963 -0.4017 -0.4805  1.0147
 4021TIP3    H133554   3.609   4.527   1.944 -0.2439 -2.2412 -2.9563
 4021TIP3    H233555   3.459   4.547   1.940 -0.1514 -1.6260 -3.4292
 4022TIP3   OH233556   1.236   3.623  14.086  0.0578 -0.2949  0.0101
 4022TIP3    H133557   1.237   3.540  14.133 -0.2557  0.0072  0.5571
 4022TIP3    H233558   1.277   3.685  14.145  1.6968 -0.3706 -1.0139
 4023TIP3   OH233559   5.201   0.512  15.059 -0.2165 -0.3699  0.4526
 4023TIP3    H133560   5.196   0.427  15.103 -0.6920 -0.5911 -0.0271
 4023TIP3    H233561   5.182   0.575  15.129 -1.8501 -0.7711  0.4011
 4024TIP3   OH233562   2.985   6.059   5.563 -0.5144  0.3763 -0.1307
 4024TIP3    H133563   2.952   6.115   5.492  0.1140  1.1243  0.1569
 4024TIP3    H233564   3.031   6.119   5.621 -1.8405 -0.0805  1.4201
 4025TIP3   OH233565   5.061   3.889  12.362  0.4623  0.3282 -0.7765
 4025TIP3    H133566   5.030   3.811  12.316  0.3652  0.3921 -0.8196
 4025TIP3    H233567   4.983   3.923  12.405  0.8038 -0.4483  0.4844
 4026TIP3   OH233568   5.157   2.682  13.015  0.0039  0.3427  0.4810
 4026TIP3    H133569   5.226   2.734  12.975  0.1856 -0.1264  0.1807
 4026TIP3    H233570   5.096   2.663  12.943 -0.2272  0.4125  0.6576
 4027TIP3   OH233571   1.352   0.924   2.333  0.1241  0.2730  0.2036
 4027TIP3    H133572   1.425   0.896   2.278 -0.7717  1.6390 -1.7653
 4027TIP3    H233573   1.297   0.976   2.274  0.1682  3.5188  2.8943
 4028TIP3   OH233574   1.481   2.420   0.183  0.0881 -0.5922 -0.0477
 4028TIP3    H133575   1.419   2.399   0.254 -0.1609 -0.1869 -0.1396
 4028TIP3    H233576   1.443   2.381   0.105  0.2766 -0.8947  0.0125
 4029TIP3   OH233577   5.385   2.189  16.464 -0.1918  0.1324  1.1095
 4029TIP3    H133578   5.473   2.153  16.471 -0.5626 -0.6311  1.7770
 4029TIP3    H233579   5.363   2.218  16.552  0.6847  3.4108  0.3397
 4030TIP3   OH233580   2.619   5.620  12.418 -0.3215  0.1301  0.6078
 4030TIP3    H133581   2.713   5.614  12.402 -0.5843 -3.3336  0.0847
 4030TIP3    H233582   2.612   5.650  12.509  1.2610  0.1975  0.7201
 4031TIP3   OH233583   3.991   4.948   1.514  0.5717  0.0137  0.8485
 4031TIP3    H133584   4.030   4.867   1.482 -2.1659 -1.0171 -0.0413
 4031TIP3    H233585   3.990   5.006   1.438 -0.0513 -0.1337  0.7433
 4032TIP3   OH233586   6.080   2.682   0.361  0.1711  0.0635 -0.0288
 4032TIP3    H133587   6.054   2.746   0.427 -1.1059 -1.0256  0.5470
 4032TIP3    H233588   6.026   2.605   0.379  0.8159 -0.7543 -1.4636
 4033TIP3   OH233589   4.439   6.657   3.835 -0.1727  1.1067 -0.1573
 4033TIP3    H133590   4.478   6.590   3.891 -2.3770  0.0165  0.0956
 4033TIP3    H233591   4.378   6.610   3.779 -0.3654  2.6473 -1.2759
 4034TIP3   OH233592   1.429   0.369  15.658 -0.3750 -0.7878 -0.1580
 4034TIP3    H133593   1.413   0.427  15.732  1.0346  1.7077 -1.7459
 4034TIP3    H233594   1.447   0.284  15.698  0.7743  0.5833  2.3763
 4035TIP3   OH233595   6.153   2.596   0.877 -1.0330  0.4923 -0.7018
 4035TIP3    H133596   6.110   2.521   0.918 -0.5001  0.8837  0.6116
 4035TIP3    H233597   6.168   2.568   0.786  0.5457 -1.5968  0.1432
 4036TIP3   OH233598   3.635   4.487   0.102  0.2220 -0.2451  0.0041
 4036TIP3    H133599   3.652   4.431   0.178 -0.1334 -0.6942 -0.2390
 4036TIP3    H233600   3.613   4.572   0.138 -1.0272 -0.7521  0.4373
 4037TIP3   OH233601   1.047   5.521  16.878  0.4208  0.0318  0.0919
 4037TIP3    H133602   1.028   5.427  16.886  0.2148  0.0225 -0.4508
 4037TIP3    H233603   0.980   5.563  16.931  0.9360 -0.1580  0.9059
 4038TIP3   OH233604   5.430   1.725  11.966  0.4548 -0.1912  0.3459
 4038TIP3    H133605   5.439   1.641  11.921 -0.1971  0.4806 -1.0503
 4038TIP3    H233606   5.520   1.750  11.988  0.5478 -2.2617  2.7218
 4039TIP3   OH233607   4.672   2.488   0.398  0.0649 -0.4794  0.3297
 4039TIP3    H133608   4.628   2.473   0.483  0.7654 -0.9054  0.6205
 4039TIP3    H233609   4.763   2.504   0.421 -0.1336  1.5210 -0.2052
 4040TIP3   OH233610   1.313   6.271   3.408 -0.3262 -0.4190 -0.4790
 4040TIP3    H133611   1.373   6.207   3.447 -2.4691 -2.0226  0.3326
 4040TIP3    H233612   1.325   6.350   3.460  0.8064 -0.8175 -0.1061
 4041TIP3   OH233613   1.429   1.568  11.831  0.1864 -0.1628  0.5590
 4041TIP3    H133614   1.356   1.542  11.886 -0.0112  1.3533  1.0379
 4041TIP3    H233615   1.437   1.663  11.844 -0.3964  0.3974 -2.6299
 4042TIP3   OH233616   4.184   5.462   3.834 -0.1903  0.2930  0.0520
 4042TIP3    H133617   4.221   5.424   3.754 -0.8005 -1.3252  0.5234
 4042TIP3    H233618   4.093   5.433   3.834 -0.1584  0.1660  1.3987
 4043TIP3   OH233619   3.476   0.136   0.673  0.5593  0.1970  0.1368
 4043TIP3    H133620   3.556   0.124   0.724  2.2157 -0.8873 -2.5686
 4043TIP3    H233621   3.501   0.198   0.604 -0.4480 -1.2843 -1.6183
 4044TIP3   OH233622   5.699   2.299  16.801  1.1166  0.1434  0.2735
 4044TIP3    H133623   5.638   2.318  16.873  0.1340  2.1297 -1.0484
 4044TIP3    H233624   5.768   2.365  16.810  2.3202 -1.1780  0.8773
 4045TIP3   OH233625   6.116   0.692   2.563  0.4006 -0.5963  0.1116
 4045TIP3    H133626   6.117   0.701   2.658  0.9075  0.1990  0.0384
 4045TIP3    H233627   6.202   0.724   2.535 -0.2106  0.3747 -0.7034
 4046TIP3   OH233628   2.840   5.287   4.612 -0.2259 -0.2563  0.0365
 4046TIP3    H133629   2.792   5.318   4.535  0.8537  0.8729 -0.1914
 4046TIP3    H233630   2.930   5.273   4.581 -0.3232 -2.1548  0.5080
 4047TIP3   OH233631   4.411   3.628  14.781 -0.3707  0.3767  0.7599
 4047TIP3    H133632   4.384   3.692  14.847  5.4889  3.6598  0.2913
 4047TIP3    H233633   4.419   3.679  14.700  2.1156 -1.4044 -0.1707
 4048TIP3   OH233634   1.203   2.201  16.263  0.4449  0.5480 -0.3356
 4048TIP3    H133635   1.188   2.171  16.352  1.4692 -0.2982 -0.4373
 4048TIP3    H233636   1.119   2.190  16.219 -0.0243  0.8370  0.4781
 4049TIP3   OH233637   4.942   0.715  14.905 -0.0797 -0.0914 -0.2996
 4049TIP3    H133638   5.011   0.649  14.902  0.8743  0.7837  1.4977
 4049TIP3    H233639   4.964   0.777  14.836  1.5754  0.7884  0.9966
 4050TIP3   OH233640   3.961   2.895   4.372 -0.1903 -0.0705  0.6428
 4050TIP3    H133641   3.927   2.967   4.318 -0.2974 -0.0511  0.7354
 4050TIP3    H233642   3.997   2.938   4.449  2.6232  0.1685 -0.7194
 4051TIP3   OH233643   4.737   0.716  14.469 -0.3672  0.0930 -0.0813
 4051TIP3    H133644   4.650   0.754  14.451 -0.6506 -0.7685 -0.5536
 4051TIP3    H233645   4.731   0.684  14.559 -0.7927 -0.6679 -0.3810
 4052TIP3   OH233646   4.887   0.151  12.820  0.5705 -0.5710  0.3118
 4052TIP3    H133647   4.922   0.086  12.881  0.5017 -1.1759 -0.2779
 4052TIP3    H233648   4.828   0.101  12.763 -2.3230  0.6815  2.1272
 4053TIP3   OH233649   0.842   5.946  16.892 -0.0618  0.0285 -0.7586
 4053TIP3    H133650   0.935   5.960  16.908 -0.0357 -1.3101  0.3640
 4053TIP3    H233651   0.835   5.852  16.872 -1.4387 -0.3645  1.3549
 4054TIP3   OH233652   5.416   6.281   0.042  0.4539 -0.5369  0.2557
 4054TIP3    H133653   5.434   6.318  -0.045  1.6607 -2.0155 -0.1557
 4054TIP3    H233654   5.488   6.219   0.057  0.3969 -0.1181  2.4317
 4055TIP3   OH233655   4.303   1.278   1.763 -0.0684 -0.6912 -0.1859
 4055TIP3    H133656   4.299   1.218   1.836  0.1689 -3.0969 -2.0899
 4055TIP3    H233657   4.396   1.283   1.740 -0.1715 -0.1669 -0.5080
 4056TIP3   OH233658   5.372   6.040   1.231 -0.5104 -0.3190 -0.5330
 4056TIP3    H133659   5.459   6.060   1.266 -0.2795 -0.2834 -1.1185
 4056TIP3    H233660   5.328   5.994   1.302  0.0457 -0.4864 -0.2896
 4057TIP3   OH233661   3.290   5.713   0.637 -0.0108  0.0748 -0.4152
 4057TIP3    H133662   3.296   5.809   0.641  2.4548  0.0517 -2.5541
 4057TIP3    H233663   3.333   5.690   0.556 -1.3947 -2.8423 -0.3726
 4058TIP3   OH233664   0.591   4.041  12.998 -0.0616  0.0981 -0.1089
 4058TIP3    H133665   0.646   3.978  12.951  0.3937  0.9312 -0.6994
 4058TIP3    H233666   0.614   4.029  13.090  0.4284 -0.2199 -0.2707
 4059TIP3   OH233667   4.686   5.130  14.731 -0.0900  0.5658 -0.3473
 4059TIP3    H133668   4.629   5.057  14.755  0.1822  0.1626 -0.9253
 4059TIP3    H233669   4.687   5.186  14.809  1.2253 -1.0156  0.8312
 4060TIP3   OH233670   5.633   4.406   2.701 -0.2510  0.1032  1.0728
 4060TIP3    H133671   5.667   4.495   2.710 -0.2712  0.3900 -1.3922
 4060TIP3    H233672   5.645   4.385   2.608  1.4291 -3.1279  1.9183
 4061TIP3   OH233673   2.314   1.302   6.357  0.6708 -0.1654 -0.1172
 4061TIP3    H133674   2.347   1.392   6.356 -0.4642  0.2827  0.7173
 4061TIP3    H233675   2.384   1.250   6.319  1.0027  1.1919 -1.4129
 4062TIP3   OH233676   2.906   6.721   1.250 -0.1808 -0.9247  0.1293
 4062TIP3    H133677   2.941   6.639   1.215  0.6657  0.0196 -1.2531
 4062TIP3    H233678   2.982   6.763   1.292 -0.6752 -0.9762  1.0771
 4063TIP3   OH233679   5.192   3.608  17.091 -0.6300  0.5503 -0.0627
 4063TIP3    H133680   5.147   3.651  17.163  0.9733 -0.7265  1.7716
 4063TIP3    H233681   5.260   3.555  17.133 -1.1308 -2.0729 -2.3273
 4064TIP3   OH233682   0.219   3.360  13.933  0.0195  0.2629 -0.1950
 4064TIP3    H133683   0.295   3.323  13.888  0.1427  1.3658 -0.9128
 4064TIP3    H233684   0.251   3.378  14.022 -0.9435 -4.2528  1.1516
 4065TIP3   OH233685   1.866   0.437  15.699  0.4746  0.4041 -0.4704
 4065TIP3    H133686   1.810   0.429  15.777  1.9754 -0.1514  0.5553
 4065TIP3    H233687   1.819   0.499  15.643 -0.0448  1.7327  1.3847
 4066TIP3   OH233688   2.020   3.463  12.514 -0.3484  0.2430  0.5627
 4066TIP3    H133689   2.073   3.384  12.513  0.5283  0.8257 -1.5354
 4066TIP3    H233690   1.936   3.436  12.478  0.4543  0.5610 -1.6418
 4067TIP3   OH233691   6.114   5.794   1.566  0.0868  0.2308 -0.7734
 4067TIP3    H133692   6.203   5.827   1.575  0.0202  0.1431  0.2321
 4067TIP3    H233693   6.097   5.796   1.472  1.3115 -0.1820 -1.0127
 4068TIP3   OH233694   2.222   1.572  11.887 -0.3828  0.0156  0.1375
 4068TIP3    H133695   2.266   1.641  11.936  0.6444  0.5160 -1.4205
 4068TIP3    H233696   2.224   1.496  11.945  1.3483  0.4131  0.6467
 4069TIP3   OH233697   2.372   0.081   2.839  0.4501 -0.3947 -0.3109
 4069TIP3    H133698   2.386   0.173   2.860  0.5379 -0.5385  0.2512
 4069TIP3    H233699   2.403   0.033   2.915  1.5556 -0.9605 -1.1081
 4070TIP3   OH233700   1.108   2.086  14.776  0.1659 -0.1547  0.2877
 4070TIP3    H133701   1.061   2.019  14.825  0.7068 -1.3226 -0.7811
 4070TIP3    H233702   1.041   2.153  14.757 -1.0423 -1.6796 -1.0113
 4071TIP3   OH233703   1.600   3.963   1.194  0.4217 -0.1160  0.0497
 4071TIP3    H133704   1.634   3.875   1.209  2.2478  0.6614  0.5964
 4071TIP3    H233705   1.513   3.962   1.234  1.2976 -1.0262  2.0068
 4072TIP3   OH233706   1.374   5.498  13.155 -0.2819 -0.3576 -0.1626
 4072TIP3    H133707   1.379   5.403  13.145 -0.7148 -0.2317 -1.6984
 4072TIP3    H233708   1.463   5.524  13.178  0.6087 -0.8002 -2.9684
 4073TIP3   OH233709   0.099   0.572   5.932 -0.6834  0.2648 -0.0686
 4073TIP3    H133710   0.081   0.661   5.963 -1.9628 -0.0657  0.1821
 4073TIP3    H233711   0.174   0.543   5.985 -0.1813  1.2291 -0.2391
 4074TIP3   OH233712   0.438   1.335   1.320 -0.3499 -0.3190  0.5427
 4074TIP3    H133713   0.395   1.326   1.405 -1.9409  2.7986  0.1304
 4074TIP3    H233714   0.498   1.409   1.331  0.4419 -0.7710 -0.6510
 4075TIP3   OH233715   6.147   2.272   3.187  0.0114 -0.5652  0.5392
 4075TIP3    H133716   6.185   2.347   3.234  1.4174 -1.1767  0.4294
 4075TIP3    H233717   6.120   2.212   3.256  0.7747 -0.8450  0.5996
 4076TIP3   OH233718   0.295   1.209   5.674  0.3290 -0.0274  0.4385
 4076TIP3    H133719   0.361   1.262   5.720 -0.6126 -0.2679  2.0982
 4076TIP3    H233720   0.294   1.244   5.585  1.1100  1.4691  1.0034
 4077TIP3   OH233721   4.356   6.424   3.187  0.5730  0.3072 -0.1631
 4077TIP3    H133722   4.363   6.328   3.182 -1.2513  0.1447  0.2865
 4077TIP3    H233723   4.327   6.451   3.101  0.2842  0.3932 -0.0369
 4078TIP3   OH233724   2.392   2.401   1.205 -0.4847  0.1338 -0.7315
 4078TIP3    H133725   2.473   2.351   1.193 -1.0722 -1.6036  2.0394
 4078TIP3    H233726   2.374   2.438   1.119  2.0510 -1.2831 -1.9440
 4079TIP3   OH233727   4.691   4.354   0.573  0.1010  0.0912  0.1229
 4079TIP3    H133728   4.725   4.429   0.622  0.2374 -0.4482  0.8594
 4079TIP3    H233729   4.747   4.349   0.496 -0.3309  1.1563 -0.2766
 4080TIP3   OH233730   3.003   1.142  14.462 -0.1570  0.8150  0.2055
 4080TIP3    H133731   2.953   1.224  14.459  0.4973  1.2014 -0.1117
 4080TIP3    H233732   3.056   1.150  14.541  1.6886  1.7405 -1.1035
 4081TIP3   OH233733   1.594   3.899   5.668  0.3165 -0.0019 -0.4715
 4081TIP3    H133734   1.653   3.938   5.603  0.5777  2.0174  0.9022
 4081TIP3    H233735   1.636   3.918   5.752 -0.7947 -1.1992  0.3708
 4082TIP3   OH233736   2.736   3.271  16.014 -0.4628 -0.1353  0.4441
 4082TIP3    H133737   2.659   3.217  16.033  0.5843 -1.8333 -0.0805
 4082TIP3    H233738   2.802   3.240  16.075  0.3034  0.1991 -0.2122
 4083TIP3   OH233739   5.536   4.596  16.329  0.0136  0.1057 -0.2234
 4083TIP3    H133740   5.445   4.615  16.307  0.0746 -0.2203 -0.7752
 4083TIP3    H233741   5.539   4.595  16.424 -0.8100 -1.0859 -0.2036
 4084TIP3   OH233742   4.762   4.560  15.231  0.5147 -0.1048  0.1703
 4084TIP3    H133743   4.783   4.637  15.179 -2.3902 -0.5117 -1.7211
 4084TIP3    H233744   4.794   4.486  15.179  0.7938 -0.3517  0.6806
 4085TIP3   OH233745   1.882   3.116   0.578 -0.0009 -0.2542  0.1252
 4085TIP3    H133746   1.791   3.093   0.557 -0.5540 -0.1594  2.2946
 4085TIP3    H233747   1.886   3.211   0.566 -0.0884 -0.3066 -0.3225
 4086TIP3   OH233748   6.788   5.845   6.217  0.2257  0.5117 -0.0143
 4086TIP3    H133749   6.697   5.844   6.247 -0.4106 -0.1743 -1.8773
 4086TIP3    H233750   6.829   5.772   6.264 -0.5307 -0.0198 -0.1590
 4087TIP3   OH233751   2.364   3.981  14.179 -0.2872  0.3688 -0.0145
 4087TIP3    H133752   2.374   3.889  14.152  0.2361  1.0727 -2.3687
 4087TIP3    H233753   2.452   4.008  14.205 -0.1721  0.5923 -0.6347
 4088TIP3   OH233754   2.065   0.035  11.733 -0.1736 -0.1540  0.6292
 4088TIP3    H133755   1.977   0.023  11.769 -0.1347  0.2302  0.8483
 4088TIP3    H233756   2.070  -0.027  11.660 -0.9810  0.5392 -0.0218
 4089TIP3   OH233757   1.444   0.809  15.962  0.3882 -0.5248  0.0176
 4089TIP3    H133758   1.404   0.891  15.934  0.6480 -0.5242 -0.3496
 4089TIP3    H233759   1.504   0.786  15.891  0.3725 -0.9920  0.1545
 4090TIP3   OH233760   1.573   4.633   2.487  0.3053  0.0720  0.2711
 4090TIP3    H133761   1.662   4.600   2.500  0.0486 -0.8425 -0.1828
 4090TIP3    H233762   1.524   4.601   2.563  0.2675  0.1737  0.2887
 4091TIP3   OH233763   5.021   1.966   2.861 -0.0313 -0.4495  0.3123
 4091TIP3    H133764   5.114   1.942   2.853 -0.2136 -1.3015  0.6845
 4091TIP3    H233765   4.974   1.886   2.838 -0.7541  0.9810 -3.5627
 4092TIP3   OH233766   4.363   3.813  14.373  0.0554 -0.6541 -0.0300
 4092TIP3    H133767   4.322   3.862  14.303  0.0409 -1.5832 -0.6802
 4092TIP3    H233768   4.294   3.755  14.406  0.4893 -1.3326 -0.3010
 4093TIP3   OH233769   5.494   3.662   2.488  0.0340 -0.2027  0.2148
 4093TIP3    H133770   5.425   3.709   2.442 -0.5740 -1.5782 -0.3074
 4093TIP3    H233771   5.532   3.726   2.548 -1.0001  0.8413 -0.2493
 4094TIP3   OH233772   0.611   5.598  11.781 -0.7092 -0.7470 -0.5470
 4094TIP3    H133773   0.697   5.597  11.824 -0.9873 -1.7756 -0.0113
 4094TIP3    H233774   0.605   5.686  11.744  1.0130 -0.9804 -1.4785
 4095TIP3   OH233775   5.627   2.892   5.494 -0.5043 -0.4853 -0.2739
 4095TIP3    H133776   5.660   2.942   5.569 -0.2449  0.1325 -0.7996
 4095TIP3    H233777   5.532   2.888   5.508 -0.4737 -0.2476  0.0168
 4096TIP3   OH233778   0.440   4.987   3.245  0.0306  0.0233 -0.1103
 4096TIP3    H133779   0.474   5.066   3.204 -1.4966  0.5903 -0.3107
 4096TIP3    H233780   0.369   4.959   3.188  0.0911 -1.0868  0.3453
 4097TIP3   OH233781   0.811   3.884   2.875 -0.0248 -0.3300  0.4644
 4097TIP3    H133782   0.746   3.952   2.890  0.8760  0.5036  0.6217
 4097TIP3    H233783   0.834   3.852   2.962 -1.7702 -2.1290  0.3185
 4098TIP3   OH233784   5.449   2.261  13.279 -0.2112 -0.1891 -0.2163
 4098TIP3    H133785   5.368   2.215  13.300 -0.1828  0.7041  2.0569
 4098TIP3    H233786   5.516   2.217  13.331  0.6328 -0.4093 -1.4633
 4099TIP3   OH233787   4.846   2.193   0.012 -0.0785 -1.0060  0.2479
 4099TIP3    H133788   4.859   2.252   0.086 -0.5450 -0.6787  0.0725
 4099TIP3    H233789   4.764   2.148   0.031 -0.0256 -1.1681  0.0919
 4100TIP3   OH233790   0.556   0.143  11.881 -0.3109 -0.1397  0.3745
 4100TIP3    H133791   0.620   0.119  11.948  0.6298 -0.2725 -0.5638
 4100TIP3    H233792   0.589   0.103  11.800 -1.7887 -0.5635 -0.0465
 4101TIP3   OH233793   4.743   2.622  11.928 -0.6694 -0.7366  0.0087
 4101TIP3    H133794   4.797   2.589  12.000  2.4543  1.2466 -1.3368
 4101TIP3    H233795   4.663   2.652  11.970 -0.1307 -2.3794  2.2748
 4102TIP3   OH233796   5.919   1.156  13.122  0.2581  0.4572 -0.5539
 4102TIP3    H133797   5.959   1.136  13.207  0.5953  0.7777 -0.6372
 4102TIP3    H233798   5.849   1.218  13.143 -0.6817 -0.6589 -0.3131
 4103TIP3   OH233799   2.589   1.650   1.602 -0.6795  0.5531 -0.1486
 4103TIP3    H133800   2.596   1.574   1.544 -0.0428  0.9379 -0.5862
 4103TIP3    H233801   2.609   1.725   1.546  4.0353  0.6026  1.3766
 4104TIP3   OH233802   3.066   3.916   1.652  0.4280 -0.6079 -0.1592
 4104TIP3    H133803   3.009   3.840   1.650  0.3837 -0.5603 -2.7574
 4104TIP3    H233804   3.140   3.892   1.597  0.9856  0.7840 -0.0423
 4105TIP3   OH233805   6.375   4.132  14.777 -0.4736  0.1999  0.9631
 4105TIP3    H133806   6.332   4.047  14.765  0.7324 -0.1535 -1.1414
 4105TIP3    H233807   6.304   4.196  14.773 -0.9600 -0.4272 -1.6941
 4106TIP3   OH233808   1.890   1.218   3.057  0.0072  0.4037  0.1287
 4106TIP3    H133809   1.809   1.178   3.088  0.6038 -0.3418  0.7129
 4106TIP3    H233810   1.896   1.300   3.106 -0.1867  0.2751  0.3711
 4107TIP3   OH233811   1.976   6.108   1.743  0.1236  0.0527 -0.2816
 4107TIP3    H133812   2.058   6.103   1.792  0.2070  0.1137 -0.4169
 4107TIP3    H233813   1.919   6.044   1.787 -0.1669  0.8978  0.5736
 4108TIP3   OH233814   4.848   3.590  14.286  0.4150  0.4996  0.5599
 4108TIP3    H133815   4.841   3.513  14.229  0.7997  1.2464 -0.4959
 4108TIP3    H233816   4.759   3.627  14.286  0.8557  1.6213 -1.1508
 4109TIP3   OH233817   5.558   6.399  10.145  0.5920 -0.0806  1.0995
 4109TIP3    H133818   5.508   6.323  10.172 -1.6726  1.1981  0.6137
 4109TIP3    H233819   5.623   6.412  10.215 -0.8947 -0.7136  2.6200
 4110TIP3   OH233820   3.601   4.721  15.216 -0.2777  0.3097 -0.8691
 4110TIP3    H133821   3.662   4.650  15.236 -0.6992  0.1888 -0.0013
 4110TIP3    H233822   3.652   4.781  15.161 -0.2542 -1.2012 -2.5370
 4111TIP3   OH233823   6.427   3.782   5.511 -0.2565 -0.1839  0.2257
 4111TIP3    H133824   6.433   3.876   5.496 -2.5385  0.1971  1.3826
 4111TIP3    H233825   6.374   3.749   5.438  0.5926 -0.6003 -0.2125
 4112TIP3   OH233826   2.821   0.156   4.455 -0.1286 -0.4247  0.1546
 4112TIP3    H133827   2.725   0.150   4.453 -0.0798 -1.0408 -0.4879
 4112TIP3    H233828   2.840   0.202   4.536 -1.0175  0.6192 -0.2129
 4113TIP3   OH233829   1.859   4.559   0.204 -0.5066  0.3477 -0.7944
 4113TIP3    H133830   1.922   4.549   0.132 -1.4253  0.9634 -1.7019
 4113TIP3    H233831   1.897   4.509   0.276  1.9374  2.2447 -0.7288
 4114TIP3   OH233832   5.964   0.432  16.040 -0.2591 -0.2119  0.3791
 4114TIP3    H133833   5.895   0.448  15.975 -0.5264  1.8448  1.1334
 4114TIP3    H233834   6.045   0.434  15.989 -0.2367  4.0335  0.4032
 4115TIP3   OH233835   1.552   5.415  12.628  0.1427 -0.4130  0.1312
 4115TIP3    H133836   1.526   5.350  12.692 -2.2458  0.7954  0.4532
 4115TIP3    H233837   1.472   5.433  12.578  1.5923 -0.2781 -2.2424
 4116TIP3   OH233838   6.628   4.338   3.952 -0.2028 -0.1222  0.2802
 4116TIP3    H133839   6.677   4.266   3.991 -1.1512 -1.3467 -0.7757
 4116TIP3    H233840   6.675   4.358   3.871  0.6343  1.1254  1.0549
 4117TIP3   OH233841   3.220   5.669  15.116 -0.6592 -0.5870 -0.3710
 4117TIP3    H133842   3.206   5.742  15.055 -1.2299 -0.4008 -0.0228
 4117TIP3    H233843   3.214   5.591  15.062 -0.7066 -0.4010 -0.6362
 4118TIP3   OH233844   1.080   0.534   2.454  0.2317  0.5495  0.3600
 4118TIP3    H133845   1.106   0.625   2.446  0.8090  0.4832  1.3740
 4118TIP3    H233846   0.999   0.535   2.506  0.9953  0.4002  1.5822
 4119TIP3   OH233847   6.468   5.873   0.614 -0.3909  0.1680  0.2297
 4119TIP3    H133848   6.464   5.959   0.573  2.0149 -0.1472 -0.7635
 4119TIP3    H233849   6.478   5.812   0.541  0.5312 -0.7135  1.0872
 4120TIP3   OH233850   3.065   2.984  12.130 -0.3156  0.2019  0.3676
 4120TIP3    H133851   2.991   2.932  12.100 -0.6598  1.0013 -0.1707
 4120TIP3    H233852   3.099   3.026  12.051  1.7142 -1.4214  0.3525
 4121TIP3   OH233853   3.385   0.391   0.180  0.4795  0.0689  0.4813
 4121TIP3    H133854   3.422   0.325   0.239  2.1725  1.0471  0.5653
 4121TIP3    H233855   3.376   0.346   0.097 -1.1867 -1.1001  1.2719
 4122TIP3   OH233856   4.288   5.879   1.168  0.2410  0.9212 -0.0817
 4122TIP3    H133857   4.383   5.871   1.162  0.1748  1.0372 -1.5180
 4122TIP3    H233858   4.256   5.789   1.156  0.1096  1.1227 -1.3034
 4123TIP3   OH233859   3.285   0.356  15.350  0.1492  0.3482 -0.2846
 4123TIP3    H133860   3.288   0.260  15.347 -0.1249  0.3625 -1.1481
 4123TIP3    H233861   3.356   0.383  15.291 -0.2942  0.6796 -0.6623
 4124TIP3   OH233862   1.531   1.179   1.215  0.3272 -0.1871 -0.6272
 4124TIP3    H133863   1.447   1.138   1.195  0.3109  0.9118 -2.9886
 4124TIP3    H233864   1.546   1.159   1.308 -0.9676 -3.1350 -1.0150
 4125TIP3   OH233865   4.687   3.158  10.571 -0.4298  0.4309 -0.7998
 4125TIP3    H133866   4.598   3.160  10.535 -0.6877  0.3181 -0.1785
 4125TIP3    H233867   4.703   3.066  10.591 -0.5266  0.5749 -0.0462
 4126TIP3   OH233868   5.003   1.099  12.316  0.3180 -0.0836  0.4189
 4126TIP3    H133869   5.084   1.092  12.266 -0.6187  1.6867 -1.4310
 4126TIP3    H233870   4.934   1.099  12.250 -0.9773  2.0562  1.7168
 4127TIP3   OH233871   0.272   4.761  14.548  0.4952 -0.0093 -0.1460
 4127TIP3    H133872   0.347   4.719  14.508 -0.2050 -1.8557  0.4390
 4127TIP3    H233873   0.219   4.792  14.475 -0.3387 -2.5796 -0.6743
 4128TIP3   OH233874   2.909   5.637   5.270 -0.5607  0.7569 -0.4248
 4128TIP3    H133875   2.907   5.542   5.256  0.1719  0.5050  1.0454
 4128TIP3    H233876   2.972   5.669   5.205  0.7455 -0.0366  0.4156
 4129TIP3   OH233877   2.077   3.566  14.022  0.1516 -0.0929 -0.8216
 4129TIP3    H133878   2.021   3.591  13.948  0.8067  1.8600 -0.6845
 4129TIP3    H233879   2.107   3.649  14.059  1.9486 -1.0817  0.0330
 4130TIP3   OH233880   5.088   0.652  12.480  0.1589  0.1892  0.2320
 4130TIP3    H133881   5.156   0.585  12.482  0.1858  0.0590 -2.9463
 4130TIP3    H233882   5.007   0.604  12.459 -0.1526  0.8959 -0.2134
 4131TIP3   OH233883   5.950   2.475   1.738  1.0109  0.2595  0.6178
 4131TIP3    H133884   5.949   2.393   1.787 -0.8234 -0.3535 -0.3773
 4131TIP3    H233885   5.908   2.538   1.797 -0.1193 -0.1985  0.3248
 4132TIP3   OH233886   5.835   1.693   1.442 -0.5620 -0.5860 -0.6258
 4132TIP3    H133887   5.757   1.748   1.448 -0.9741 -1.1477 -0.7350
 4132TIP3    H233888   5.885   1.714   1.521 -0.7899 -0.1642 -0.5916
 4133TIP3   OH233889   3.273   0.344   5.433  0.4967 -0.3252  0.7255
 4133TIP3    H133890   3.212   0.398   5.483 -1.0223 -0.1457 -1.2600
 4133TIP3    H233891   3.337   0.407   5.399  0.3521 -0.1707  0.7382
 4134TIP3   OH233892   0.995   2.357  16.487 -0.3040 -0.2198 -0.5232
 4134TIP3    H133893   1.090   2.358  16.494 -0.4550 -1.1888  2.5763
 4134TIP3    H233894   0.974   2.267  16.460 -0.2948  0.4055 -2.6804
 4135TIP3   OH233895   4.419   0.539   4.953  0.1597 -0.3108  0.0869
 4135TIP3    H133896   4.501   0.578   4.983 -0.8673 -0.8885  3.9831
 4135TIP3    H233897   4.352   0.605   4.972 -0.4125 -0.0855 -2.4907
 4136TIP3   OH233898   6.005   1.255  15.339 -0.1434  0.6679  0.2804
 4136TIP3    H133899   5.960   1.265  15.423  1.1019 -0.8961  1.1772
 4136TIP3    H233900   6.098   1.268  15.360  0.2224 -0.1916 -0.7419
 4137TIP3   OH233901   3.513   0.696  14.853 -0.3314  0.3960 -0.1791
 4137TIP3    H133902   3.591   0.711  14.801 -0.7436 -0.8582 -1.1997
 4137TIP3    H233903   3.515   0.602  14.872 -0.4529  0.7440  1.6471
 4138TIP3   OH233904   6.114   6.266   4.590  0.4038 -0.2997  0.2475
 4138TIP3    H133905   6.059   6.273   4.512 -0.6369 -0.9593  0.8975
 4138TIP3    H233906   6.171   6.192   4.573  0.6836  0.0199 -0.1936
 4139TIP3   OH233907   6.277   5.883  11.213 -0.5555 -0.0419  0.8750
 4139TIP3    H133908   6.324   5.918  11.289 -1.3036  3.6547 -0.2469
 4139TIP3    H233909   6.185   5.885  11.239 -0.6642 -0.4244  0.5149
 4140TIP3   OH233910   4.048   1.662   0.015  0.0393 -0.7288  0.1016
 4140TIP3    H133911   4.112   1.633  -0.049 -0.6875 -1.5405 -0.2710
 4140TIP3    H233912   4.003   1.735  -0.027  0.1526 -0.6951  0.0391
 4141TIP3   OH233913   2.197   6.590   2.892 -0.4526 -0.1384  0.5776
 4141TIP3    H133914   2.145   6.671   2.893 -0.5979 -0.2296  0.5538
 4141TIP3    H233915   2.144   6.529   2.840 -0.7115 -0.4934  1.2611
 4142TIP3   OH233916   0.805   5.575   4.452 -0.3188 -0.1796 -0.0502
 4142TIP3    H133917   0.755   5.561   4.532 -1.1118  0.6229 -0.3996
 4142TIP3    H233918   0.793   5.668   4.432 -0.1115 -0.3698 -1.0913
 4143TIP3   OH233919   5.252   3.854   0.555  0.7988  0.0809 -0.4265
 4143TIP3    H133920   5.256   3.896   0.641 -3.9698 -1.2431  0.5865
 4143TIP3    H233921   5.217   3.922   0.497  0.4297 -0.1358 -0.4629
 4144TIP3   OH233922   1.204   6.461  13.415  0.0228 -0.0754 -0.2554
 4144TIP3    H133923   1.191   6.456  13.510 -1.5904  1.6890 -0.3609
 4144TIP3    H233924   1.116   6.455  13.378  0.4778  1.0169 -1.5488
 4145TIP3   OH233925   6.780   4.894   3.791  0.3917 -0.0940 -0.6371
 4145TIP3    H133926   6.853   4.837   3.816  0.6830  0.2000 -0.8112
 4145TIP3    H233927   6.736   4.914   3.873 -0.2670 -1.3195 -0.6837
 4146TIP3   OH233928   2.352   6.478   0.389 -0.4053  0.3443  1.0477
 4146TIP3    H133929   2.316   6.404   0.341 -1.5997  3.3289 -2.8956
 4146TIP3    H233930   2.437   6.494   0.348 -0.2788  1.3267  1.6765
 4147TIP3   OH233931   5.747   5.620  12.797 -0.0757  0.3096 -0.0632
 4147TIP3    H133932   5.717   5.555  12.734 -3.0669 -0.0273  1.6268
 4147TIP3    H233933   5.777   5.693  12.742  0.2580 -1.1524 -1.9026
 4148TIP3   OH233934   6.496   4.730   3.824 -0.5983  0.1565 -0.0465
 4148TIP3    H133935   6.534   4.707   3.739 -0.5454 -1.6847  0.4726
 4148TIP3    H233936   6.406   4.755   3.804 -0.3747  0.4336 -0.7270
 4149TIP3   OH233937   5.997   5.030  12.942 -0.2430  0.4116 -0.2737
 4149TIP3    H133938   6.045   5.112  12.952 -0.7967  0.9118 -1.5556
 4149TIP3    H233939   6.042   4.968  12.999  1.5169  1.0324 -0.9688
 4150TIP3   OH233940   1.567   0.159   4.425  0.2221 -0.1203 -0.2016
 4150TIP3    H133941   1.512   0.212   4.367 -1.2083 -1.3268  0.0240
 4150TIP3    H233942   1.627   0.113   4.366  0.0908  0.1651 -0.5590
 4151TIP3   OH233943   0.143   1.607  10.519  0.0209  0.4367  0.6604
 4151TIP3    H133944   0.154   1.583  10.611  0.6020 -0.5882  0.3275
 4151TIP3    H233945   0.208   1.554  10.473 -1.2263 -0.1053 -0.4863
 4152TIP3   OH233946   3.793   3.043  12.581  0.4746  0.2520  0.4505
 4152TIP3    H133947   3.817   3.135  12.591  0.0319  0.4422 -0.1667
 4152TIP3    H233948   3.765   3.035  12.490  0.9379 -0.5976  0.3774
 4153TIP3   OH233949   3.766   5.883  11.048 -0.0998 -0.1116 -0.1457
 4153TIP3    H133950   3.723   5.798  11.037  0.0341  0.0322 -1.9250
 4153TIP3    H233951   3.797   5.905  10.960  0.2020  1.5981  0.3859
 4154TIP3   OH233952   1.873   5.084   6.638 -0.1224  0.3639 -0.3589
 4154TIP3    H133953   1.869   5.070   6.732 -2.2638  1.6434 -0.2330
 4154TIP3    H233954   1.866   5.179   6.627 -1.7715  0.1066 -1.8615
 4155TIP3   OH233955   3.005   4.433   4.188 -0.8001  0.7186 -0.4634
 4155TIP3    H133956   3.083   4.417   4.135  0.0432  0.5902  0.7963
 4155TIP3    H233957   2.967   4.347   4.202 -0.3710  0.6226  0.1178
 4156TIP3   OH233958   4.079   6.732   6.216  0.0678 -0.5862 -0.0595
 4156TIP3    H133959   4.102   6.820   6.186 -0.2351  0.3680  2.3462
 4156TIP3    H233960   4.151   6.707   6.274  0.0897 -1.8802 -0.6345
 4157TIP3   OH233961   0.870   5.047   4.079 -0.0236  0.1579  0.2476
 4157TIP3    H133962   0.835   5.131   4.110 -1.0991 -0.3642  0.4623
 4157TIP3    H233963   0.812   4.982   4.116  0.3608 -0.6471 -0.5502
 4158TIP3   OH233964   0.089   3.835  15.397 -0.6225  0.0917  0.1018
 4158TIP3    H133965   0.107   3.925  15.368 -0.3224  0.3550  1.0734
 4158TIP3    H233966   0.095   3.782  15.318 -0.0004  0.8209 -0.3431
 4159TIP3   OH233967   0.988   2.432  12.768  0.0651  0.1526 -0.5602
 4159TIP3    H133968   1.075   2.398  12.748  0.2883  0.8501 -0.7900
 4159TIP3    H233969   0.996   2.466  12.857 -0.1346 -0.3041 -0.3644
 4160TIP3   OH233970   0.162   0.971  12.606 -0.1153 -0.0865  0.0433
 4160TIP3    H133971   0.197   0.947  12.521  2.0973 -1.3522  1.2688
 4160TIP3    H233972   0.125   0.890  12.641  1.1811 -0.1803  1.2795
 4161TIP3   OH233973   5.529   4.269   5.048  0.4223  0.6435  0.3723
 4161TIP3    H133974   5.453   4.327   5.041  0.6877  0.8254 -1.1604
 4161TIP3    H233975   5.539   4.254   5.142 -1.6894  0.3730  0.5812
 4162TIP3   OH233976   0.128   4.488  12.873  0.1774 -0.3337  0.9857
 4162TIP3    H133977   0.099   4.406  12.911 -1.1251 -0.0932  0.5211
 4162TIP3    H233978   0.125   4.473  12.778  0.8791 -0.0635  0.9113
 4163TIP3   OH233979   5.490   3.424  13.859 -0.1043 -0.1527  0.7080
 4163TIP3    H133980   5.456   3.345  13.901 -0.4183 -2.2753 -3.2671
 4163TIP3    H233981   5.579   3.400  13.833  0.8120  1.8197  1.9132
 4164TIP3   OH233982   3.208   2.905   1.322  0.0255  0.3103  0.3303
 4164TIP3    H133983   3.253   2.977   1.278 -0.2205  0.3554  0.1531
 4164TIP3    H233984   3.130   2.889   1.269 -0.7405  0.9600  1.2292
 4165TIP3   OH233985   3.636   5.701  14.314  0.5890  0.3329 -0.5489
 4165TIP3    H133986   3.586   5.735  14.240 -0.4980 -1.0017 -0.4395
 4165TIP3    H233987   3.684   5.627  14.278 -0.5832 -0.8338  0.2588
 4166TIP3   OH233988   5.887   3.390   1.644 -0.5095  0.2846 -0.1327
 4166TIP3    H133989   5.902   3.453   1.574 -0.4190 -0.3390 -0.6768
 4166TIP3    H233990   5.846   3.441   1.714 -1.4758  0.7176 -1.0002
 4167TIP3   OH233991   3.514   4.777  14.110  0.5099  1.1723  0.2828
 4167TIP3    H133992   3.474   4.724  14.179  0.0648  2.3573  0.9435
 4167TIP3    H233993   3.582   4.827  14.155  0.6497  1.4706 -0.2580
 4168TIP3   OH233994   3.034   1.486  14.995 -0.5445 -0.4641  0.1996
 4168TIP3    H133995   3.085   1.555  15.038 -1.1593  0.5537 -0.6612
 4168TIP3    H233996   3.099   1.423  14.964  0.1866  0.6413 -0.5828
 4169TIP3   OH233997   6.370   3.250   3.307  0.2763  0.3012  0.3012
 4169TIP3    H133998   6.382   3.179   3.370  2.6199 -0.9799 -1.4788
 4169TIP3    H233999   6.348   3.205   3.225  0.9235  1.6777 -0.6455
 4170TIP3   OH234000   1.656   1.269  17.284 -0.2445 -0.4444  0.1291
 4170TIP3    H134001   1.716   1.281  17.358 -1.4289 -0.4870  1.1217
 4170TIP3    H234002   1.711   1.233  17.214  1.8539  3.8092 -0.5566
 4171TIP3   OH234003   3.049   2.061  15.568  0.1851  0.2854  0.0939
 4171TIP3    H134004   2.957   2.069  15.592 -0.0664 -0.5873 -0.5692
 4171TIP3    H234005   3.048   2.038  15.475  1.0557 -0.3386  0.2297
 4172TIP3   OH234006   6.733   0.633  16.486  0.3160  0.3971 -0.1183
 4172TIP3    H134007   6.700   0.544  16.501  0.4845  0.1789 -1.0213
 4172TIP3    H234008   6.653   0.685  16.473  0.2749  0.0738 -1.1983
 4173TIP3   OH234009   3.771   6.613   3.590  0.1862  0.1918  0.2833
 4173TIP3    H134010   3.694   6.564   3.562 -0.4241  0.8700  0.7242
 4173TIP3    H234011   3.846   6.565   3.555 -0.4117 -0.8837  0.4757
 4174TIP3   OH234012   3.295   5.960   1.023  0.0245 -0.1460 -0.1558
 4174TIP3    H134013   3.279   5.868   1.001  0.9429  0.0806 -1.7560
 4174TIP3    H234014   3.382   5.979   0.989 -1.1559  2.0182 -2.0490
 4175TIP3   OH234015   1.535   4.282  11.267  0.0371  0.8972 -0.5349
 4175TIP3    H134016   1.504   4.290  11.177 -0.1071 -0.1416 -0.5785
 4175TIP3    H234017   1.536   4.372  11.300  0.0961  1.2744 -1.5715
 4176TIP3   OH234018   4.774   1.528  12.809  0.6279 -0.3531 -0.4629
 4176TIP3    H134019   4.810   1.444  12.778 -0.4313 -0.0286 -2.6782
 4176TIP3    H234020   4.722   1.560  12.735  0.0743  1.7071  0.7927
 4177TIP3   OH234021   6.155   2.370  15.707  0.1611 -0.0952  0.2743
 4177TIP3    H134022   6.209   2.364  15.628  0.8077 -3.1468  0.9068
 4177TIP3    H234023   6.067   2.389  15.674  0.9490  1.5491 -0.9774
 4178TIP3   OH234024   4.046   2.400  12.871  0.4534  0.1917  0.4298
 4178TIP3    H134025   4.001   2.333  12.923 -0.1023 -0.6011 -1.0172
 4178TIP3    H234026   3.976   2.458  12.842  0.7693  0.6725  0.6258
 4179TIP3   OH234027   3.227   1.251  14.277  0.2889  0.0187 -0.3639
 4179TIP3    H134028   3.149   1.244  14.331 -1.1110  0.7964 -2.2042
 4179TIP3    H234029   3.222   1.176  14.218  0.5479  0.4611 -0.9570
 4180TIP3   OH234030   5.796   6.132  14.052  0.7057  0.1946  0.2677
 4180TIP3    H134031   5.835   6.219  14.055 -0.9945  0.9950 -0.0235
 4180TIP3    H234032   5.808   6.103  13.962  0.1295  0.6892  0.0241
 4181TIP3   OH234033   0.470   5.235   1.053 -0.0743  0.0124  0.7248
 4181TIP3    H134034   0.539   5.274   1.107  0.4980 -0.5651  0.4287
 4181TIP3    H234035   0.483   5.140   1.063 -1.9657 -0.1203  2.1006
 4182TIP3   OH234036   2.628   6.088  12.282  0.1223  0.6363  0.3785
 4182TIP3    H134037   2.560   6.154  12.269 -0.6216 -0.2477 -0.3883
 4182TIP3    H234038   2.709   6.137  12.293 -0.2145  1.6396 -1.4509
 4183TIP3   OH234039   1.187   2.574   5.128 -0.0598 -0.1006  0.0572
 4183TIP3    H134040   1.158   2.581   5.037  2.3567  2.9610 -0.5553
 4183TIP3    H234041   1.188   2.480   5.146  0.3727 -0.8146 -3.4093
 4184TIP3   OH234042   5.902   2.582  16.149  0.5088  0.8306  0.1223
 4184TIP3    H134043   5.830   2.626  16.104  0.3540  0.2538 -0.1963
 4184TIP3    H234044   5.880   2.489  16.143  0.0253  0.7927  2.1543
 4185TIP3   OH234045   1.254   5.445  12.217 -0.1751  0.4642  0.9542
 4185TIP3    H134046   1.270   5.423  12.309 -2.9314  1.0903  1.6417
 4185TIP3    H234047   1.273   5.365  12.169  1.0993  0.0706  2.0774
 4186TIP3   OH234048   1.815   6.090  13.088  0.3938  0.2302 -1.0262
 4186TIP3    H134049   1.781   6.075  13.000  0.5172 -1.4117 -0.8077
 4186TIP3    H234050   1.891   6.147  13.075 -1.0450  2.0737 -1.7296
 4187TIP3   OH234051   2.715   3.464   0.505 -0.3787  0.2929 -0.7133
 4187TIP3    H134052   2.735   3.377   0.539 -2.6903  0.6858  1.8462
 4187TIP3    H234053   2.785   3.520   0.541 -0.8407  0.0794  0.5470
 4188TIP3   OH234054   6.658   3.809  11.097  0.0630  0.0319  0.1866
 4188TIP3    H134055   6.594   3.880  11.110  1.3927  1.1473  0.8164
 4188TIP3    H234056   6.692   3.823  11.008  0.0923 -0.0048  0.1921
 4189TIP3   OH234057   4.058   3.946  11.148  0.3953  0.2171 -0.0039
 4189TIP3    H134058   4.022   3.874  11.095  1.2582 -0.0419 -0.2429
 4189TIP3    H234059   4.061   4.021  11.089 -2.3408  1.0061  0.7730
 4190TIP3   OH234060   3.210   3.150   3.871 -0.0569 -0.6453  0.3613
 4190TIP3    H134061   3.142   3.108   3.924  0.2568 -0.5942  0.8003
 4190TIP3    H234062   3.274   3.081   3.855 -0.2093 -0.6911 -0.0462
 4191TIP3   OH234063   6.171   3.713  16.608  0.7352 -0.3450  0.0441
 4191TIP3    H134064   6.114   3.650  16.565 -0.2843  0.1707  0.6192
 4191TIP3    H234065   6.209   3.665  16.681  2.3792 -1.1878 -1.3373
 4192TIP3   OH234066   2.481   1.742  14.044 -0.3033  0.1835  0.5251
 4192TIP3    H134067   2.413   1.676  14.038 -0.0755 -0.0924  1.0044
 4192TIP3    H234068   2.451   1.803  14.111  0.0115 -0.0443  0.8741
 4193TIP3   OH234069   6.687   0.393   0.063 -0.1174  0.1040  0.6838
 4193TIP3    H134070   6.743   0.468   0.082  0.3597 -0.3674  1.1657
 4193TIP3    H234071   6.684   0.343   0.145 -0.1739 -0.5589  0.2866
 4194TIP3   OH234072   4.205   3.085  16.996  0.0427 -0.7841  0.3531
 4194TIP3    H134073   4.203   3.038  16.913 -0.0373  1.1347 -0.7388
 4194TIP3    H234074   4.130   3.144  16.994  1.2207  0.7840  0.8752
 4195TIP3   OH234075   6.576   6.606   1.815  0.0352 -0.1149  0.1946
 4195TIP3    H134076   6.602   6.581   1.904 -1.1797  0.9108  0.8463
 4195TIP3    H234077   6.488   6.644   1.825 -0.4987 -0.8395 -1.5679
 4196TIP3   OH234078   5.243   6.336  14.188 -1.0298  0.5183  0.3648
 4196TIP3    H134079   5.299   6.266  14.154 -2.4351 -0.7525  0.5757
 4196TIP3    H234080   5.236   6.317  14.282 -0.4925  1.6165  0.6283
 4197TIP3   OH234081   3.920   0.750   1.205  0.3743  0.0665  0.4277
 4197TIP3    H134082   3.942   0.710   1.289 -0.6131  1.2665  1.2741
 4197TIP3    H234083   3.951   0.840   1.212  0.3505  0.1584 -0.5301
 4198TIP3   OH234084   1.315   0.194  11.063  0.3598  0.0167 -0.1306
 4198TIP3    H134085   1.279   0.179  10.976 -1.7989  0.2079  0.7106
 4198TIP3    H234086   1.383   0.127  11.073 -0.1447 -0.7058 -1.5207
 4199TIP3   OH234087   3.780   5.740  10.627  0.0354 -0.0801  0.5113
 4199TIP3    H134088   3.700   5.695  10.654  0.9264 -0.4537  2.6045
 4199TIP3    H234089   3.835   5.670  10.591 -0.0400 -0.0437  0.3216
 4200TIP3   OH234090   6.547   2.210   0.596 -0.2644 -0.1960 -0.3893
 4200TIP3    H134091   6.551   2.127   0.643  0.2579 -0.3690 -0.7359
 4200TIP3    H234092   6.542   2.185   0.504 -1.7625  0.1301 -0.4175
 4201TIP3   OH234093   6.199   4.847   1.111  0.0461  0.2700  0.0143
 4201TIP3    H134094   6.106   4.823   1.103  0.0693  0.6669 -1.4919
 4201TIP3    H234095   6.207   4.928   1.061  1.2533  0.1378 -0.0130
 4202TIP3   OH234096   4.114   2.529   3.928 -0.2248 -0.1054  0.2025
 4202TIP3    H134097   4.178   2.557   3.993 -0.3073  0.3185  0.1026
 4202TIP3    H234098   4.112   2.433   3.936  2.1896 -0.3572 -1.4406
 4203TIP3   OH234099   0.737   1.490  14.092 -0.2810 -0.7594  0.4431
 4203TIP3    H134100   0.806   1.440  14.050 -1.1961  0.4092 -2.6332
 4203TIP3    H234101   0.723   1.565  14.034 -2.8102  0.0319  1.9791
 4204TIP3   OH234102   0.957   5.139  15.910  0.2686  0.5632 -0.0915
 4204TIP3    H134103   1.051   5.127  15.921 -0.1836 -1.0683  2.2017
 4204TIP3    H234104   0.942   5.128  15.816  1.9408 -2.5654 -0.0534
 4205TIP3   OH234105   5.739   1.570  13.240  0.1131  0.2856  0.2845
 4205TIP3    H134106   5.744   1.475  13.225 -1.8333  0.2171 -0.0960
 4205TIP3    H234107   5.753   1.608  13.153 -0.1599  0.3010  0.2459
 4206TIP3   OH234108   0.369   6.137   4.413 -0.4126  0.1435 -0.0272
 4206TIP3    H134109   0.441   6.146   4.351  0.3349 -0.0460  0.7995
 4206TIP3    H234110   0.307   6.206   4.390  0.7967  1.3467  0.2831
 4207TIP3   OH234111   4.939   0.588   0.842 -0.2107  0.0489  0.6915
 4207TIP3    H134112   4.949   0.577   0.748 -0.7350 -0.6467  0.7145
 4207TIP3    H234113   4.854   0.629   0.853 -0.1223  0.1891  0.8622
 4208TIP3   OH234114   2.983   4.331  12.552  0.1787 -0.4481 -0.5688
 4208TIP3    H134115   2.973   4.359  12.461 -3.4815 -1.1882 -0.4858
 4208TIP3    H234116   2.951   4.241  12.553  1.6294 -0.9746  1.1884
 4209TIP3   OH234117   2.036   3.608   1.645  0.2526 -0.0994 -0.2008
 4209TIP3    H134118   1.965   3.592   1.707 -1.0506  0.9410 -1.3931
 4209TIP3    H234119   2.103   3.543   1.668 -1.4723 -1.7340  0.3353
 4210TIP3   OH234120   1.101   1.958   5.239 -0.2558  0.6421  0.0770
 4210TIP3    H134121   1.116   2.016   5.165 -2.7757  0.3522 -0.7365
 4210TIP3    H234122   1.160   1.989   5.307  2.4080  0.6508 -2.1805
 4211TIP3   OH234123   5.212   1.726   2.620 -0.3770 -0.1017 -0.0756
 4211TIP3    H134124   5.255   1.660   2.566  0.5850  1.9742 -1.9071
 4211TIP3    H234125   5.242   1.707   2.709  2.0368 -0.4651 -0.9434
 4212TIP3   OH234126   4.541   4.589   3.673  0.2635  0.1613 -0.6272
 4212TIP3    H134127   4.463   4.619   3.625 -2.4220 -3.5020  1.2208
 4212TIP3    H234128   4.599   4.555   3.605 -1.9312 -1.6478 -1.6736
 4213TIP3   OH234129   0.601   6.118   0.173  0.4604 -0.5720  0.0496
 4213TIP3    H134130   0.681   6.169   0.186 -0.8181  1.6271 -0.4943
 4213TIP3    H234131   0.543   6.145   0.244 -1.0512  0.4016 -1.5235
 4214TIP3   OH234132   4.447   2.345  13.528  0.4846 -0.2927  0.3494
 4214TIP3    H134133   4.466   2.368  13.437  0.2116 -0.1127  0.3386
 4214TIP3    H234134   4.485   2.417  13.579 -2.2684  1.3326  0.2093
 4215TIP3   OH234135   0.192   6.338   1.892  0.0284 -0.6091 -0.2817
 4215TIP3    H134136   0.198   6.422   1.938  0.8537  0.2288 -1.8941
 4215TIP3    H234137   0.201   6.273   1.961  0.5715  0.6316  0.8477
 4216TIP3   OH234138   3.549   6.680   2.347  0.8199  0.4874  0.0148
 4216TIP3    H134139   3.585   6.632   2.421  1.1024  1.1845  0.3387
 4216TIP3    H234140   3.464   6.638   2.330  0.8971  0.1219  0.5251
 4217TIP3   OH234141   4.639   0.708  11.571 -0.1111 -0.0750  0.1706
 4217TIP3    H134142   4.698   0.647  11.527 -1.7756 -1.0282 -0.7693
 4217TIP3    H234143   4.592   0.655  11.635  1.6681  1.1289  2.5382
 4218TIP3   OH234144   3.362   2.701  16.747 -0.0767 -0.2742 -0.7447
 4218TIP3    H134145   3.330   2.677  16.834  0.6042  2.3097  0.2539
 4218TIP3    H234146   3.457   2.698  16.756 -0.0081 -0.2128 -1.4719
 4219TIP3   OH234147   4.436   0.092   4.981 -0.7351 -0.4160 -0.2252
 4219TIP3    H134148   4.363   0.154   4.975  1.2142  1.9093 -0.9373
 4219TIP3    H234149   4.450   0.081   5.075 -0.4330  1.1026 -0.0734
 4220TIP3   OH234150   1.175   4.172   5.148 -0.6134  0.2245  0.1990
 4220TIP3    H134151   1.081   4.161   5.156 -0.7519 -0.4171 -2.0880
 4220TIP3    H234152   1.210   4.144   5.233 -2.3523 -1.0322  0.5118
 4221TIP3   OH234153   5.909   0.631   4.512  0.1541 -0.1848  0.2099
 4221TIP3    H134154   5.847   0.696   4.477 -1.1083 -0.5328  1.7524
 4221TIP3    H234155   5.985   0.683   4.537  0.7889  0.1766 -2.2729
 4222TIP3   OH234156   5.291   1.715   0.106 -0.0478  0.0995  0.0638
 4222TIP3    H134157   5.367   1.676   0.062 -0.4914 -2.2236  1.2851
 4222TIP3    H234158   5.224   1.722   0.038 -0.8314 -3.7230  0.3389
 4223TIP3   OH234159   4.510   3.678  15.892 -0.1056  0.3329 -0.5950
 4223TIP3    H134160   4.582   3.658  15.833  1.8268  0.6303  1.6006
 4223TIP3    H234161   4.552   3.696  15.977 -2.6339  1.8320  0.4104
 4224TIP3   OH234162   5.696   1.326   4.958 -0.1415 -0.1916 -0.2704
 4224TIP3    H134163   5.684   1.322   5.053  0.2041 -2.8193 -0.2987
 4224TIP3    H234164   5.609   1.340   4.923 -0.2746  0.7773  0.4383
 4225TIP3   OH234165   1.720   0.647  11.995  0.0040  0.4721  0.9369
 4225TIP3    H134166   1.729   0.647  11.899 -1.9389 -1.4113  0.7092
 4225TIP3    H234167   1.797   0.695  12.026 -0.0947  2.4390 -1.6226
 4226TIP3   OH234168   6.634   5.328  10.988  0.4753 -0.4950 -0.6149
 4226TIP3    H134169   6.650   5.423  10.986 -2.0703 -0.0358 -1.4897
 4226TIP3    H234170   6.603   5.310  11.077 -1.1619 -0.0926 -1.0840
 4227TIP3   OH234171   1.986   0.241  13.776  0.0042 -0.3215  0.3768
 4227TIP3    H134172   1.929   0.230  13.852  0.1298 -0.1046  0.5017
 4227TIP3    H234173   1.978   0.334  13.753 -0.7627 -0.5784 -0.4439
 4228TIP3   OH234174   4.815   1.641  13.493  0.1161 -0.0539  0.2376
 4228TIP3    H134175   4.720   1.631  13.499  0.3205 -2.0974  0.2079
 4228TIP3    H234176   4.835   1.627  13.401  0.5873 -1.0028  0.4782
 4229TIP3   OH234177   1.056   3.508   2.792 -0.3827 -0.0456 -0.0450
 4229TIP3    H134178   1.145   3.480   2.815 -0.5373  0.8665  1.7177
 4229TIP3    H234179   1.066   3.600   2.766 -0.4710 -0.5931 -2.1319
 4230TIP3   OH234180   0.266   2.407  11.039  0.7131  0.1481  0.8281
 4230TIP3    H134181   0.243   2.332  10.984  0.4826 -0.0845  1.2464
 4230TIP3    H234182   0.235   2.483  10.990 -0.6168 -0.1366  1.2236
 4231TIP3   OH234183   0.335   0.147   0.272  0.3343  0.0055 -0.2748
 4231TIP3    H134184   0.287   0.230   0.261 -0.2329 -0.1338  1.1222
 4231TIP3    H234185   0.345   0.114   0.182 -1.4769  0.4522 -0.6722
 4232TIP3   OH234186   2.555   5.757   6.450  0.2144  0.1940 -0.1158
 4232TIP3    H134187   2.601   5.733   6.531  0.7364 -0.6292 -0.6380
 4232TIP3    H234188   2.595   5.839   6.423  0.6649  0.0103 -0.0113
 4233TIP3   OH234189   1.271   4.609  13.123  0.4121  0.2084 -0.0563
 4233TIP3    H134190   1.294   4.538  13.183 -0.5797  0.1291  0.2419
 4233TIP3    H234191   1.211   4.569  13.060  0.0840  0.7092 -0.0635
 4234TIP3   OH234192   5.701   4.790   5.706  0.3716  0.0360  0.1598
 4234TIP3    H134193   5.624   4.826   5.751 -0.2989 -2.4180  1.0405
 4234TIP3    H234194   5.739   4.728   5.768 -0.0396 -2.7566 -2.2660
 4235TIP3   OH234195   6.109   3.166   5.466 -0.5756  0.4373  0.3939
 4235TIP3    H134196   6.080   3.114   5.541  2.7266  0.7587  2.0162
 4235TIP3    H234197   6.069   3.252   5.480 -0.2790  0.3902  1.6134
 4236TIP3   OH234198   4.789   0.505   2.919  0.0226  0.4471 -0.0464
 4236TIP3    H134199   4.794   0.582   2.976 -1.2950  0.7348 -0.2982
 4236TIP3    H234200   4.846   0.525   2.845 -0.2874  1.1641 -0.0914
 4237TIP3   OH234201   1.372   1.515  14.783 -0.3125  0.0459 -0.0114
 4237TIP3    H134202   1.446   1.485  14.731 -0.4478 -0.5005  0.1018
 4237TIP3    H234203   1.334   1.587  14.733 -1.1383 -1.2271 -1.2559
 4238TIP3   OH234204   6.761   2.787   1.940 -0.1602 -0.4286  0.2601
 4238TIP3    H134205   6.810   2.705   1.945 -0.2451 -0.5302 -0.6539
 4238TIP3    H234206   6.682   2.770   1.991 -0.1510 -0.8878  0.1226
 4239TIP3   OH234207   2.778   0.092   1.485 -0.5189 -0.2239 -0.5840
 4239TIP3    H134208   2.869   0.101   1.458 -0.9758  0.0898 -2.0579
 4239TIP3    H234209   2.759   0.172   1.534  0.0715 -0.4140 -0.0456
 4240TIP3   OH234210   2.241   0.306  11.364 -0.6234 -0.6354  0.4170
 4240TIP3    H134211   2.329   0.269  11.356 -0.8011 -0.8373 -0.7278
 4240TIP3    H234212   2.255   0.396  11.392  0.0841  0.0259 -1.9517
 4241TIP3   OH234213   5.711   0.138   5.615 -0.2127  0.6148  0.4229
 4241TIP3    H134214   5.625   0.099   5.629 -0.2205  0.1763 -0.7950
 4241TIP3    H234215   5.763   0.110   5.691 -1.3795  1.5953  1.6017
 4242TIP3   OH234216   2.448   4.701   3.890 -0.0832 -0.0336 -0.4345
 4242TIP3    H134217   2.409   4.729   3.807  0.8296 -0.9668 -1.1846
 4242TIP3    H234218   2.517   4.765   3.907 -1.1389  0.9248  0.2872
 4243TIP3   OH234219   1.984   5.981   1.020  0.7590  0.2266 -0.1662
 4243TIP3    H134220   2.079   5.970   1.009  0.4585 -0.6266 -2.1607
 4243TIP3    H234221   1.952   5.891   1.032  0.1463  0.4662 -0.0290
 4244TIP3   OH234222   5.919   0.825   0.496 -0.1497  0.2935  0.1118
 4244TIP3    H134223   5.929   0.740   0.539 -0.0372 -0.0690 -0.6387
 4244TIP3    H234224   5.971   0.819   0.416  1.6764  1.8420  1.1358
 4245TIP3   OH234225   3.572   5.637  15.938 -0.3518 -1.1226 -0.4339
 4245TIP3    H134226   3.488   5.683  15.942  0.2413 -0.0698  0.1499
 4245TIP3    H234227   3.548   5.546  15.921 -1.5963 -0.7754 -0.6369
 4246TIP3   OH234228   2.837   0.664   5.170  0.4879  0.6748  0.1646
 4246TIP3    H134229   2.773   0.684   5.102 -1.4353 -0.9424  1.4567
 4246TIP3    H234230   2.884   0.587   5.137 -0.1200  0.1817  0.4413
 4247TIP3   OH234231   3.992   1.953  17.208 -0.0422 -0.4040  0.1553
 4247TIP3    H134232   3.897   1.955  17.197 -0.0256 -1.0599 -0.1399
 4247TIP3    H234233   4.019   2.045  17.203 -0.7664 -0.1230  1.1695
 4248TIP3   OH234234   3.345   2.172   0.155  0.5182 -0.4733 -0.4891
 4248TIP3    H134235   3.414   2.141   0.097  0.1039  0.6337 -1.5902
 4248TIP3    H234236   3.265   2.130   0.122  0.4320 -0.6391 -0.0832
 4249TIP3   OH234237   0.515   5.785   2.001 -0.1774 -0.1353 -0.1310
 4249TIP3    H134238   0.482   5.741   1.923 -0.1843 -1.0847  0.3970
 4249TIP3    H234239   0.469   5.743   2.073 -0.2577  0.8196  0.3738
 4250TIP3   OH234240   3.708   0.033   1.072 -0.3121 -0.1024  0.0342
 4250TIP3    H134241   3.706   0.122   1.108 -0.6735 -0.2202  0.3081
 4250TIP3    H234242   3.748   0.043   0.986 -0.4097  0.3362  0.0378
 4251TIP3   OH234243   0.864   0.956   0.131  0.3523 -0.1861  0.3714
 4251TIP3    H134244   0.935   0.894   0.116  0.0781 -0.0889 -1.4937
 4251TIP3    H234245   0.811   0.951   0.051 -0.5938  1.2424  0.8885
 4252TIP3   OH234246   2.944   3.069   1.721  0.4071 -0.6387  0.4769
 4252TIP3    H134247   2.901   3.006   1.663 -0.0329  0.7201 -0.7033
 4252TIP3    H234248   2.902   3.056   1.805 -1.0446 -0.5831 -0.2283
 4253TIP3   OH234249   3.117   5.847  16.339 -0.1853 -1.1043 -0.1177
 4253TIP3    H134250   3.088   5.935  16.313 -2.8999 -2.2006 -0.9191
 4253TIP3    H234251   3.172   5.862  16.415  2.0926  1.5779 -2.1702
 4254TIP3   OH234252   3.753   6.254   2.162 -0.4233  0.7943 -0.1856
 4254TIP3    H134253   3.664   6.282   2.180 -0.7327  0.2526 -0.8709
 4254TIP3    H234254   3.747   6.204   2.081  0.1857 -0.9330  0.8037
 4255TIP3   OH234255   4.635   1.245   4.857  0.0487  0.2121 -0.0964
 4255TIP3    H134256   4.574   1.300   4.905 -1.4945 -0.8252 -0.8216
 4255TIP3    H234257   4.638   1.282   4.769 -0.0554 -0.1173 -0.2424
 4256TIP3   OH234258   4.107   5.439  14.618 -0.3234  0.0048  0.4757
 4256TIP3    H134259   4.188   5.487  14.631 -1.3735  1.3790  2.2287
 4256TIP3    H234260   4.112   5.406  14.529  2.2133 -0.0588  0.6216
 4257TIP3   OH234261   5.483   3.952  10.802 -0.0161 -0.5768  0.3210
 4257TIP3    H134262   5.416   3.966  10.869 -2.3803  0.9534 -2.2745
 4257TIP3    H234263   5.451   3.878  10.750  0.0226  0.4926 -1.2599
 4258TIP3   OH234264   4.023   6.156   1.857 -0.9175 -0.1912  0.4407
 4258TIP3    H134265   4.002   6.161   1.763  1.3840 -1.0377 -0.1589
 4258TIP3    H234266   4.000   6.066   1.881  1.0971 -0.8541 -0.0142
 4259TIP3   OH234267   2.793   2.906   0.016  0.5152 -0.6429  0.4247
 4259TIP3    H134268   2.846   2.976  -0.019  1.9988 -0.7713  2.3328
 4259TIP3    H234269   2.842   2.826  -0.002 -0.8858 -1.1798 -1.2193
 4260TIP3   OH234270   1.264   1.075   0.105  0.9261 -0.7020  0.2571
 4260TIP3    H134271   1.221   1.149   0.061  4.3172  1.7557  0.8721
 4260TIP3    H234272   1.215   1.064   0.186  0.9780  1.5983  0.6488
 4261TIP3   OH234273   4.438   1.563  11.443 -1.0220  0.3532 -0.3149
 4261TIP3    H134274   4.498   1.556  11.369  0.0575  2.5993  0.2767
 4261TIP3    H234275   4.433   1.657  11.461 -4.2800  0.1914  0.0438
 4262TIP3   OH234276   2.142   3.303   5.230 -0.2986 -1.0359 -0.3038
 4262TIP3    H134277   2.089   3.269   5.157  0.7085 -1.2069 -0.9742
 4262TIP3    H234278   2.224   3.328   5.189 -0.6085  1.1796  0.3822
 4263TIP3   OH234279   2.593   1.023   0.456 -0.0063 -0.5228  0.0781
 4263TIP3    H134280   2.618   0.943   0.502 -1.1308 -0.5851  0.6104
 4263TIP3    H234281   2.672   1.050   0.409  1.6713  0.4355  3.3061
 4264TIP3   OH234282   1.995   0.554  14.723 -0.0286 -0.5923  0.0948
 4264TIP3    H134283   2.083   0.571  14.688  0.5670 -0.0346  1.8199
 4264TIP3    H234284   1.972   0.468  14.687  1.8480 -1.4285  0.8220
 4265TIP3   OH234285   4.632   2.747   1.156  0.4067  0.9892 -0.4733
 4265TIP3    H134286   4.602   2.666   1.199  3.4040  0.7351  1.2824
 4265TIP3    H234287   4.641   2.722   1.064  0.1233 -0.3399 -0.1650
 4266TIP3   OH234288   3.398   3.728  15.424  0.2306  0.6203 -0.0033
 4266TIP3    H134289   3.377   3.671  15.499 -0.1578 -0.6019 -1.0247
 4266TIP3    H234290   3.469   3.784  15.455  0.6716 -0.4804  0.9835
 4267TIP3   OH234291   4.636   6.194   4.377  0.0812  0.1301 -0.1756
 4267TIP3    H134292   4.649   6.164   4.467  0.0983  0.0447 -0.2072
 4267TIP3    H234293   4.548   6.231   4.377 -0.0811 -0.2651 -0.2358
 4268TIP3   OH234294   6.547   5.238  11.253  0.2118 -0.0785 -0.4368
 4268TIP3    H134295   6.513   5.245  11.343 -0.5873  0.2226 -0.7591
 4268TIP3    H234296   6.519   5.152  11.223  0.8210 -0.3427 -0.2660
 4269TIP3   OH234297   0.152   2.075   0.931 -0.0548  0.1407  0.0095
 4269TIP3    H134298   0.176   2.167   0.926  0.8517 -0.1833 -1.8745
 4269TIP3    H234299   0.207   2.032   0.866 -0.5301 -1.7223  0.8073
 4270TIP3   OH234300   3.355   2.648   4.214 -0.1225 -0.2479 -0.3259
 4270TIP3    H134301   3.438   2.661   4.168  1.0402  0.1619  1.8462
 4270TIP3    H234302   3.300   2.721   4.187  0.9852  0.6655 -0.1136
 4271TIP3   OH234303   1.777   1.603   4.870  0.4243  0.0096  0.5551
 4271TIP3    H134304   1.866   1.626   4.843  1.0142 -0.4196  2.1173
 4271TIP3    H234305   1.727   1.684   4.859  1.4084  0.7358  1.3416
 4272TIP3   OH234306   4.611   0.793   3.754 -0.9450  0.1477 -0.3759
 4272TIP3    H134307   4.682   0.766   3.696 -0.0914  0.9162  0.2968
 4272TIP3    H234308   4.612   0.729   3.825 -0.5581  0.4815 -0.0788
 4273TIP3   OH234309   4.501   2.949   5.712 -0.3126 -0.0004 -0.2939
 4273TIP3    H134310   4.426   2.924   5.767  0.1683 -0.6827  0.0595
 4273TIP3    H234311   4.539   2.866   5.684  0.3476  0.3403 -0.4198
 4274TIP3   OH234312   5.128   1.666   5.131 -0.2580  0.3810 -0.8082
 4274TIP3    H134313   5.087   1.753   5.132 -2.8281 -0.7991  0.3651
 4274TIP3    H234314   5.156   1.654   5.040 -0.8883  1.9540 -1.2238
 4275TIP3   OH234315   6.269   0.743  13.353  0.0223  0.2255 -0.2878
 4275TIP3    H134316   6.187   0.760  13.307  0.3955 -2.5896 -2.0740
 4275TIP3    H234317   6.296   0.830  13.385 -2.9761  1.3863 -0.7154
 4276TIP3   OH234318   1.115   3.449  15.064  0.5645  0.4418 -0.3235
 4276TIP3    H134319   1.073   3.524  15.022 -0.0121 -1.2724 -2.9084
 4276TIP3    H234320   1.047   3.383  15.069  0.9561  0.1832  2.3083
 4277TIP3   OH234321   5.463   0.896   0.003  0.1478  0.2015  0.6033
 4277TIP3    H134322   5.517   0.939  -0.063  1.2358 -1.9553  0.0390
 4277TIP3    H234323   5.498   0.928   0.087 -0.5024  2.0722  0.1874
 4278TIP3   OH234324   0.314   2.604   0.396 -1.1348  0.0154 -0.6473
 4278TIP3    H134325   0.242   2.548   0.366 -0.2410 -0.7110 -1.4708
 4278TIP3    H234326   0.333   2.660   0.320 -0.3249 -0.3257 -0.6979
 4279TIP3   OH234327   3.231   2.813  12.321 -0.0606  0.3278  0.2231
 4279TIP3    H134328   3.209   2.888  12.266 -3.1983 -1.3507 -0.9699
 4279TIP3    H234329   3.169   2.818  12.394  1.2641  0.1729  1.3788
 4280TIP3   OH234330   6.425   4.631   1.452 -0.0233  0.0253 -0.7187
 4280TIP3    H134331   6.358   4.578   1.496 -1.0893  2.0884  0.2131
 4280TIP3    H234332   6.505   4.613   1.501 -0.9800  1.4678  1.4546
 4281TIP3   OH234333   5.227   2.481   5.689 -0.4936 -0.2420  0.0442
 4281TIP3    H134334   5.288   2.453   5.621  1.0786  0.2531  1.1918
 4281TIP3    H234335   5.198   2.568   5.661 -1.2227 -0.7735 -0.8607
 4282TIP3   OH234336   1.629   2.784   3.459 -0.0713  0.0776  1.2519
 4282TIP3    H134337   1.626   2.878   3.477 -0.0927  0.1578  0.8262
 4282TIP3    H234338   1.681   2.777   3.379 -0.6098 -0.2251  0.9264
 4283TIP3   OH234339   4.247   2.018   0.976  0.4802  0.3165  0.0957
 4283TIP3    H134340   4.246   1.923   0.989 -0.8415  0.5343  1.5990
 4283TIP3    H234341   4.156   2.041   0.960  1.0707  1.0636 -2.4382
 4284TIP3   OH234342   3.537   3.691   5.230  0.1084  0.0761  0.4042
 4284TIP3    H134343   3.585   3.757   5.179  0.8073 -0.7151  0.0244
 4284TIP3    H234344   3.460   3.672   5.177  0.8130 -0.7157 -0.3532
 4285TIP3   OH234345   4.153   3.821  14.198  0.5024  0.0976 -0.7086
 4285TIP3    H134346   4.197   3.741  14.168  0.0303  0.8928 -3.6991
 4285TIP3    H234347   4.065   3.793  14.221  0.1810 -0.1966 -2.2283
 4286TIP3   OH234348   4.902   5.379  11.167  0.5736 -0.1754  0.3544
 4286TIP3    H134349   4.921   5.394  11.075 -0.6339 -1.8148 -0.1682
 4286TIP3    H234350   4.831   5.440  11.187 -0.3291 -1.0216 -0.2477
 4287TIP3   OH234351   1.730   4.784  12.095 -0.1696  0.0366  0.7345
 4287TIP3    H134352   1.706   4.877  12.098  1.3217  0.5167 -0.7948
 4287TIP3    H234353   1.649   4.737  12.113 -1.2194  1.6313  0.2745
 4288TIP3   OH234354   3.226   6.073  14.777 -0.1726  0.3561  0.0649
 4288TIP3    H134355   3.312   6.115  14.781  0.4908 -1.1006  1.6594
 4288TIP3    H234356   3.207   6.066  14.683  1.4561  0.6890 -0.3077
 4289TIP3   OH234357   2.847   3.632   4.923  0.0485 -0.2500  0.0990
 4289TIP3    H134358   2.833   3.584   5.004 -0.9538  1.3286  0.8831
 4289TIP3    H234359   2.802   3.581   4.856 -0.5350 -0.7020  0.8311
 4290TIP3   OH234360   3.206   4.200   5.374  0.6899 -0.3273 -0.0298
 4290TIP3    H134361   3.201   4.230   5.464 -0.3440  1.8831 -0.7734
 4290TIP3    H234362   3.115   4.176   5.352  1.0613 -1.5539 -0.2616
 4291TIP3   OH234363   3.971   0.717  14.951  0.5792 -0.0600 -0.1383
 4291TIP3    H134364   4.058   0.714  14.912  0.8030 -1.1981  0.4279
 4291TIP3    H234365   3.914   0.750  14.881  1.6610  1.9022 -0.1242
 4292TIP3   OH234366   2.695   3.668   2.013  0.4798 -0.0520 -0.1167
 4292TIP3    H134367   2.636   3.704   2.079  0.2428  1.5299 -1.1656
 4292TIP3    H234368   2.742   3.598   2.058 -0.1330  0.5881  1.5388
 4293TIP3   OH234369   4.379   3.826  16.563 -0.5810  0.4213 -0.1876
 4293TIP3    H134370   4.373   3.909  16.515 -1.5681  0.3230 -0.2481
 4293TIP3    H234371   4.361   3.850  16.654 -0.0195  0.4073 -0.0734
 4294TIP3   OH234372   0.729   2.181  15.581 -0.0386  0.7358  0.0971
 4294TIP3    H134373   0.819   2.192  15.550 -0.0025 -0.0003 -0.0732
 4294TIP3    H234374   0.738   2.138  15.666 -0.1756  1.9607  0.7405
 4295TIP3   OH234375   5.921   1.808  16.444 -0.7384 -0.5898  0.4874
 4295TIP3    H134376   6.015   1.824  16.434 -0.6393 -0.9366  0.8551
 4295TIP3    H234377   5.906   1.722  16.403 -1.1007 -0.0223 -0.6047
 4296TIP3   OH234378   6.566   4.312   5.434  0.1535  0.0611 -0.8223
 4296TIP3    H134379   6.660   4.318   5.449 -0.0475  0.2756  0.4829
 4296TIP3    H234380   6.529   4.379   5.492 -0.7423  0.6176 -2.0199
 4297TIP3   OH234381   4.585   2.583  16.686 -0.0186 -0.2209 -0.7841
 4297TIP3    H134382   4.669   2.628  16.677 -0.3419  0.3756 -0.8722
 4297TIP3    H234383   4.600   2.496  16.651  0.5387 -0.0837 -0.8841
 4298TIP3   OH234384   2.950   2.724  15.353 -0.0294 -0.4094  0.6977
 4298TIP3    H134385   2.950   2.651  15.415  2.5687 -1.2731 -0.2589
 4298TIP3    H234386   2.948   2.683  15.267  2.9694  0.5172  0.1102
 4299TIP3   OH234387   3.202   5.500  12.253 -0.6610 -0.1263 -0.0239
 4299TIP3    H134388   3.162   5.510  12.166  0.4842 -2.6565 -0.8846
 4299TIP3    H234389   3.128   5.487  12.312 -1.4417  1.4657 -0.6441
 4300TIP3   OH234390   2.571   0.241   1.958  0.4518 -0.5918  0.1424
 4300TIP3    H134391   2.481   0.210   1.944  0.3503 -0.6385  0.8898
 4300TIP3    H234392   2.570   0.332   1.928 -0.0738 -0.3188  0.9632
 4301TIP3   OH234393   4.240   3.250   1.152  0.0318 -0.2084 -0.3963
 4301TIP3    H134394   4.178   3.178   1.148  0.2040 -0.3220 -1.0239
 4301TIP3    H234395   4.249   3.269   1.246 -1.2887  0.1156 -0.3287
 4302TIP3   OH234396   0.368   1.503  13.495  0.2217  0.2508  0.2628
 4302TIP3    H134397   0.306   1.571  13.472  0.4834  0.4243  0.0646
 4302TIP3    H234398   0.324   1.421  13.470  0.3927  0.4208 -0.6138
 4303TIP3   OH234399   2.548   6.270   2.247  0.2404  0.1832  0.2494
 4303TIP3    H134400   2.609   6.342   2.263  0.4641  0.1502 -0.3989
 4303TIP3    H234401   2.550   6.219   2.327 -0.4215  1.2618  0.9699
 4304TIP3   OH234402   1.359   6.538  16.860  0.5402 -0.3100 -0.1971
 4304TIP3    H134403   1.266   6.560  16.853  0.4591 -0.6884 -0.2814
 4304TIP3    H234404   1.361   6.445  16.879  0.8445  0.1308  2.0563
 4305TIP3   OH234405   2.874   3.884  12.454 -0.3149 -0.6111 -0.4506
 4305TIP3    H134406   2.958   3.878  12.499 -1.1414  0.8403  1.3580
 4305TIP3    H234407   2.868   3.804  12.402  1.6191 -1.3111  0.3821
 4306TIP3   OH234408   5.718   2.056  14.472 -0.2339  0.1135 -0.7576
 4306TIP3    H134409   5.623   2.064  14.465 -0.2070  2.2889  0.7016
 4306TIP3    H234410   5.746   2.137  14.516  2.3124 -0.3990 -1.3296
 4307TIP3   OH234411   3.862   4.109   4.192  0.0765  0.9115  0.0293
 4307TIP3    H134412   3.926   4.055   4.146  0.9413  2.5838 -0.7380
 4307TIP3    H234413   3.914   4.170   4.244 -0.8968  1.6347  0.1684
 4308TIP3   OH234414   6.136   6.819  14.431 -0.7194  0.2317  0.4458
 4308TIP3    H134415   6.113   6.764  14.506  1.3300  0.3774  1.2043
 4308TIP3    H234416   6.231   6.827  14.435 -0.6482  0.8186 -1.7820
 4309TIP3   OH234417   2.521   3.895  15.999  0.1857 -0.1550 -0.3330
 4309TIP3    H134418   2.438   3.878  16.043  0.3204 -0.6354 -0.2576
 4309TIP3    H234419   2.588   3.872  16.064  0.3799  2.2625  0.3547
 4310TIP3   OH234420   6.111   5.482   3.757  0.1178 -0.0813  0.5499
 4310TIP3    H134421   6.159   5.407   3.793  1.5760 -0.0774 -1.2697
 4310TIP3    H234422   6.104   5.462   3.663 -0.2780  1.6250  0.2014
 4311TIP3   OH234423   4.621   2.949  16.637  0.1140  0.1941 -0.1273
 4311TIP3    H134424   4.531   2.973  16.655  0.6836  3.6865 -1.5764
 4311TIP3    H234425   4.669   2.974  16.716  0.0783 -0.0811 -0.0175
 4312TIP3   OH234426   6.530   1.053   3.008  0.2297 -0.1123  0.2540
 4312TIP3    H134427   6.570   1.137   3.033 -0.3620 -0.1228  1.2752
 4312TIP3    H234428   6.604   0.995   2.992  0.6613  0.9011 -1.5428
 4313TIP3   OH234429   4.342   2.104   0.475 -0.8564 -0.2913  0.0684
 4313TIP3    H134430   4.413   2.135   0.533 -0.0275 -4.1461  1.2232
 4313TIP3    H234431   4.267   2.158   0.500  0.6725  1.3008  1.4704
 4314TIP3   OH234432   1.285   5.620  13.381  0.3982 -0.1172 -0.5236
 4314TIP3    H134433   1.256   5.698  13.333 -1.1300 -0.6254 -0.4435
 4314TIP3    H234434   1.300   5.554  13.313  0.2146 -0.2147 -0.4697
 4315TIP3   OH234435   3.208   5.275   1.137  0.5637  0.1207  0.2355
 4315TIP3    H134436   3.274   5.216   1.101  1.2634  1.2849 -0.4000
 4315TIP3    H234437   3.127   5.224   1.135  0.4343  0.3406 -3.5295
 4316TIP3   OH234438   0.751   3.574  17.287  0.0221 -0.1021 -0.0535
 4316TIP3    H134439   0.733   3.650  17.342 -1.1317 -1.0595  0.9047
 4316TIP3    H234440   0.781   3.611  17.204 -1.5971  1.4189  0.0236
 4317TIP3   OH234441   5.116   3.324   1.542 -0.3806  0.4275 -0.3653
 4317TIP3    H134442   5.142   3.416   1.546 -2.1089  0.8938  1.6464
 4317TIP3    H234443   5.150   3.286   1.623  0.5547 -0.7811 -1.3120
 4318TIP3   OH234444   5.819   5.568   0.781 -0.0663  0.2909 -0.3214
 4318TIP3    H134445   5.839   5.602   0.868 -0.3297  1.2905 -0.6446
 4318TIP3    H234446   5.760   5.633   0.743 -1.1242 -0.8651 -0.7013
 4319TIP3   OH234447   2.411   3.441  14.579  0.3167  0.1043 -0.9564
 4319TIP3    H134448   2.379   3.376  14.641 -0.2357  0.5736 -0.7360
 4319TIP3    H234449   2.452   3.508  14.633 -1.5469  1.2877 -0.9609
 4320TIP3   OH234450   1.400   2.637   6.477 -0.2127 -0.4055  0.5324
 4320TIP3    H134451   1.444   2.554   6.461  0.8657  0.3047 -0.2948
 4320TIP3    H234452   1.471   2.700   6.488 -0.9985  1.0161 -2.1227
 4321TIP3   OH234453   4.753   3.502   4.187  0.3241 -0.1554  0.4304
 4321TIP3    H134454   4.763   3.408   4.172  1.2187  0.1253 -0.8363
 4321TIP3    H234455   4.837   3.530   4.224  0.7477  0.4438 -0.9183
 4322TIP3   OH234456   0.282   5.869  15.423 -0.4652 -0.5848  0.4032
 4322TIP3    H134457   0.361   5.895  15.377  0.4896 -0.9675  1.7975
 4322TIP3    H234458   0.214   5.871  15.356  0.5616  0.4918 -0.6409
 4323TIP3   OH234459   3.938   6.302  14.243 -0.0161 -0.2623  0.0054
 4323TIP3    H134460   3.920   6.385  14.199 -0.4844 -2.0779 -3.4277
 4323TIP3    H234461   3.883   6.304  14.321 -0.3297  2.4609 -0.2446
 4324TIP3   OH234462   2.018   5.985   3.126 -0.2614  0.2057  0.6126
 4324TIP3    H134463   1.989   6.066   3.167 -0.6018  0.0628  0.6497
 4324TIP3    H234464   2.108   6.003   3.098 -0.6811  0.9294 -0.2852
 4325TIP3   OH234465   2.535   3.768   5.356 -0.4976 -0.0130  0.2592
 4325TIP3    H134466   2.538   3.811   5.442 -0.3573 -0.7059  0.6066
 4325TIP3    H234467   2.448   3.729   5.352 -0.6964  0.4788 -0.1387
 4326TIP3   OH234468   4.642   2.094   1.366 -0.1156 -0.4384  0.2912
 4326TIP3    H134469   4.622   2.187   1.367  0.9258 -0.2071  2.1646
 4326TIP3    H234470   4.564   2.053   1.328 -0.9048  1.1192  0.1959
 4327TIP3   OH234471   0.258   0.371   4.203 -0.1756  0.5447 -0.0797
 4327TIP3    H134472   0.223   0.424   4.132 -1.7410 -1.2856 -0.7135
 4327TIP3    H234473   0.181   0.340   4.250  0.6852 -1.1680  0.2542
 4328TIP3   OH234474   4.137   6.297   4.187 -0.7488  0.5451  0.1889
 4328TIP3    H134475   4.082   6.331   4.117 -1.2405  2.7063  1.5871
 4328TIP3    H234476   4.087   6.312   4.267  1.7467  2.4465  1.4820
 4329TIP3   OH234477   1.990   4.469   3.099  0.5704  0.1931  0.2000
 4329TIP3    H134478   2.021   4.482   3.189  1.0499 -1.6549  0.3162
 4329TIP3    H234479   2.064   4.497   3.045  0.6400  0.3876  0.3916
 4330TIP3   OH234480   1.454   5.629   3.922  0.0093 -0.2578 -0.2370
 4330TIP3    H134481   1.375   5.681   3.935 -0.7177 -1.3671 -0.2480
 4330TIP3    H234482   1.490   5.661   3.839 -0.8009 -0.2439 -0.5854
 4331TIP3   OH234483   3.446   0.195   1.325 -0.1231  0.2995 -0.2500
 4331TIP3    H134484   3.397   0.190   1.243 -1.7943 -0.6670  0.7911
 4331TIP3    H234485   3.408   0.270   1.371  0.4682  0.5279 -0.1316
 4332TIP3   OH234486   4.313   5.090  10.856  0.4779 -0.4737  0.2696
 4332TIP3    H134487   4.277   5.179  10.864 -1.0486 -0.8634 -1.7439
 4332TIP3    H234488   4.395   5.102  10.809 -0.1079 -0.1743 -0.7066
 4333TIP3   OH234489   6.080   4.840  12.196 -0.2729  0.5269  0.5152
 4333TIP3    H134490   6.107   4.903  12.129 -0.4699 -1.1408 -1.1685
 4333TIP3    H234491   5.986   4.851  12.204 -0.4687 -0.3142 -0.5870
 4334TIP3   OH234492   0.981   0.188   4.063  0.0426  0.6361  0.5061
 4334TIP3    H134493   1.069   0.181   4.101  0.1407 -2.0267 -0.1071
 4334TIP3    H234494   0.989   0.147   3.977 -1.5370  1.4472 -0.0488
 4335TIP3   OH234495   5.798   6.462  16.602  0.0967 -0.2078  0.2593
 4335TIP3    H134496   5.722   6.520  16.602 -0.1490 -0.5287  0.2419
 4335TIP3    H234497   5.803   6.430  16.692  1.5179  1.5203  0.8222
 4336TIP3   OH234498   6.674   6.207  15.827  0.1845  0.1668  0.4526
 4336TIP3    H134499   6.702   6.116  15.826 -0.8240 -0.1542  1.0661
 4336TIP3    H234500   6.588   6.206  15.784  0.5331  0.9508 -0.2881
 4337TIP3   OH234501   4.045   2.651   3.328  0.4238 -0.8216 -0.5711
 4337TIP3    H134502   4.125   2.598   3.333 -0.1130 -1.6927 -1.1500
 4337TIP3    H234503   3.997   2.630   3.409 -0.0432 -1.6424 -1.0540
 4338TIP3   OH234504   5.442   3.396  13.552  0.1605  0.0482  0.2935
 4338TIP3    H134505   5.424   3.371  13.643 -0.9175  0.9241  0.3282
 4338TIP3    H234506   5.488   3.480  13.559 -2.9774  1.8562 -0.0576
 4339TIP3   OH234507   2.241   0.542   1.683  0.2302 -0.0889 -0.6234
 4339TIP3    H134508   2.216   0.614   1.625  0.4882 -0.8647 -1.7017
 4339TIP3    H234509   2.169   0.480   1.678 -0.0557  0.1552  0.4210
 4340TIP3   OH234510   5.230   3.091  13.698 -0.4888  0.1486  0.5605
 4340TIP3    H134511   5.289   3.024  13.731 -0.0682  0.8047  1.1726
 4340TIP3    H234512   5.153   3.043  13.667 -0.0125 -0.6374  0.5924
 4341TIP3   OH234513   5.313   2.307  14.611 -0.2724 -0.4847  0.2253
 4341TIP3    H134514   5.327   2.345  14.698  0.6279 -0.1077 -0.0822
 4341TIP3    H234515   5.384   2.244  14.601  1.5806  1.7617 -1.5307
 4342TIP3   OH234516   4.882   1.771  16.836 -0.6696  0.1867 -0.5184
 4342TIP3    H134517   4.857   1.682  16.812 -0.2430 -0.0246 -0.1780
 4342TIP3    H234518   4.799   1.817  16.847 -0.8912  0.3904 -2.7413
 4343TIP3   OH234519   0.959   4.472  16.697 -0.0369 -0.0095 -0.6730
 4343TIP3    H134520   0.961   4.531  16.621 -1.1746  0.0328 -0.6781
 4343TIP3    H234521   0.912   4.395  16.665  0.7680 -0.5957 -0.4360
 4344TIP3   OH234522   4.746   5.236   4.852 -0.0514 -0.8652  0.2942
 4344TIP3    H134523   4.833   5.253   4.888 -0.3477 -0.6228  0.8971
 4344TIP3    H234524   4.761   5.176   4.779  0.8114  0.5180 -0.6839
 4345TIP3   OH234525   0.876   0.632  11.201 -0.0804  0.0317  0.2258
 4345TIP3    H134526   0.852   0.619  11.293 -0.3688 -2.0611 -0.1122
 4345TIP3    H234527   0.805   0.592  11.152  0.3766  0.5965 -0.9081
 4346TIP3   OH234528   1.504   4.731  13.102 -0.2729  0.0660 -0.5135
 4346TIP3    H134529   1.434   4.667  13.090  0.7900 -1.1279 -0.5970
 4346TIP3    H234530   1.487   4.769  13.188 -0.1457 -1.3696  0.1747
 4347TIP3   OH234531   2.859   2.231   6.589 -0.0632  0.1965 -0.2101
 4347TIP3    H134532   2.914   2.309   6.576  1.5387 -1.0937 -1.3638
 4347TIP3    H234533   2.869   2.181   6.507  1.9048 -3.0364  1.8993
 4348TIP3   OH234534   1.122   6.600  14.664 -0.1059 -0.0140  0.5713
 4348TIP3    H134535   1.083   6.597  14.752  1.1677  1.4886  1.2152
 4348TIP3    H234536   1.088   6.681  14.626  0.8819  0.3378  0.4240
 4349TIP3   OH234537   3.006   4.225  12.882  0.5433  0.6756 -0.1559
 4349TIP3    H134538   3.026   4.208  12.790  3.6782  2.1055  0.2117
 4349TIP3    H234539   2.960   4.309  12.882 -0.1462  0.3083 -0.4493
 4350TIP3   OH234540   2.438   1.834  15.517 -0.3432 -0.6660 -0.1385
 4350TIP3    H134541   2.500   1.762  15.526  0.8863  0.0809 -2.1322
 4350TIP3    H234542   2.491   1.908  15.486 -1.6497  0.9850  1.4240
 4351TIP3   OH234543   3.488   0.007   4.725 -0.6498  0.0926  0.5013
 4351TIP3    H134544   3.507   0.073   4.659  0.7099 -2.5184 -1.8338
 4351TIP3    H234545   3.567   0.001   4.778  0.0556 -1.1620 -0.6639
 4352TIP3   OH234546   4.105   4.657   5.108  0.5299 -0.6331 -0.2178
 4352TIP3    H134547   4.032   4.644   5.168  0.9868 -1.1518  0.2225
 4352TIP3    H234548   4.088   4.743   5.069  1.4853  0.7759  2.4042
 4353TIP3   OH234549   2.660   3.772  16.201 -0.2180 -0.4462 -0.2206
 4353TIP3    H134550   2.655   3.787  16.296 -1.4696 -0.7165 -0.2328
 4353TIP3    H234551   2.737   3.717  16.189 -0.8543 -1.5805  0.7989
 4354TIP3   OH234552   5.074   0.869  13.774 -0.3323 -0.1227 -0.3189
 4354TIP3    H134553   5.040   0.808  13.840 -1.5583  2.2364  1.2933
 4354TIP3    H234554   5.010   0.864  13.702 -1.5156  0.7180  0.6574
 4355TIP3   OH234555   6.385   4.386  15.876  0.7637  0.1160 -0.8962
 4355TIP3    H134556   6.368   4.363  15.968 -1.4402 -0.3280 -1.3747
 4355TIP3    H234557   6.425   4.308  15.838  0.0763 -0.3367 -0.7128
 4356TIP3   OH234558   2.505   1.552   3.726 -0.3525  0.2793  0.0418
 4356TIP3    H134559   2.526   1.616   3.658 -0.0864 -0.6425 -0.7728
 4356TIP3    H234560   2.411   1.538   3.718 -0.2858  0.0024 -0.3098
 4357TIP3   OH234561   6.266   1.762  14.801  0.0552  0.4793  0.3949
 4357TIP3    H134562   6.274   1.759  14.706  1.9265 -2.1108  0.5665
 4357TIP3    H234563   6.354   1.742  14.833 -0.1910  2.8003  2.6940
 4358TIP3   OH234564   0.447   1.787  16.455  1.0904  0.7121 -0.0364
 4358TIP3    H134565   0.473   1.705  16.413 -0.0439 -0.2333  1.0485
 4358TIP3    H234566   0.357   1.771  16.484  0.6726  2.5440 -0.3027
 4359TIP3   OH234567   6.166   2.568  16.398  0.0064 -0.2610 -0.4615
 4359TIP3    H134568   6.163   2.597  16.307 -2.0335 -1.7529 -0.9058
 4359TIP3    H234569   6.246   2.516  16.403  0.8543  0.9482 -1.0284
 4360TIP3   OH234570   3.382   4.809   3.555 -0.1453 -0.4057 -0.2810
 4360TIP3    H134571   3.450   4.802   3.623  1.2510  0.5974 -1.5318
 4360TIP3    H234572   3.355   4.719   3.539  2.4576 -1.0489 -1.2858
 4361TIP3   OH234573   5.359   4.061   1.569 -0.0345 -0.0622  0.4725
 4361TIP3    H134574   5.277   4.110   1.576  0.3723  0.3653  2.6688
 4361TIP3    H234575   5.417   4.101   1.635  0.5228 -3.0497  1.8915
 4362TIP3   OH234576   6.673   5.767   1.781 -0.6660  0.3060 -0.4081
 4362TIP3    H134577   6.674   5.701   1.851 -2.9010  0.5642 -0.1103
 4362TIP3    H234578   6.706   5.720   1.705 -0.8864 -0.7633  0.1421
 4363TIP3   OH234579   0.829   4.691   1.108  0.1985 -0.2494  0.5684
 4363TIP3    H134580   0.840   4.783   1.131 -1.6473 -0.1228  0.9992
 4363TIP3    H234581   0.918   4.657   1.103  0.8687  1.3695  1.1659
 4364TIP3   OH234582   6.541   3.604  13.151 -0.0129 -0.1982 -0.4492
 4364TIP3    H134583   6.634   3.583  13.159 -0.0756  0.4424  2.6059
 4364TIP3    H234584   6.504   3.530  13.102  1.7872 -1.3254 -0.1565
 4365TIP3   OH234585   0.193   5.878   5.869  0.4003 -0.4545 -0.8114
 4365TIP3    H134586   0.235   5.956   5.905 -1.3045  0.7484 -1.3417
 4365TIP3    H234587   0.230   5.805   5.920  2.7780  0.5732 -1.0238
 4366TIP3   OH234588   4.579   5.210  16.716  0.5134 -0.2767  0.4934
 4366TIP3    H134589   4.486   5.222  16.734  0.6624 -2.2034  2.9553
 4366TIP3    H234590   4.591   5.238  16.626 -1.8660  2.8709  1.0855
 4367TIP3   OH234591   4.501   3.290   2.300  0.1398  0.2937 -0.0033
 4367TIP3    H134592   4.481   3.301   2.393  1.2719  0.6720  0.2039
 4367TIP3    H234593   4.494   3.378   2.263 -0.7988  0.0638 -0.3783
 4368TIP3   OH234594   4.202   4.337  16.957  0.4657 -0.8860 -0.4226
 4368TIP3    H134595   4.226   4.386  16.879  0.9604 -1.3544 -0.5661
 4368TIP3    H234596   4.157   4.259  16.924  0.1467 -0.7917 -0.2176
 4369TIP3   OH234597   5.440   3.262   3.456 -0.1598  0.2703 -0.2393
 4369TIP3    H134598   5.467   3.172   3.441  1.0924  0.3538  1.4562
 4369TIP3    H234599   5.521   3.313   3.450 -0.2393  0.8036  2.5184
 4370TIP3   OH234600   5.871   4.080  16.887  0.5201  0.0681  0.2871
 4370TIP3    H134601   5.842   4.153  16.832  0.7706 -0.4463 -0.5400
 4370TIP3    H234602   5.966   4.088  16.889  0.6641 -1.0779 -1.0265
 4371TIP3   OH234603   3.992   2.298   5.723 -0.1780 -0.2128 -0.2683
 4371TIP3    H134604   3.931   2.293   5.796  2.5943 -1.0526  2.0951
 4371TIP3    H234605   3.977   2.217   5.674 -2.1916  0.4462 -0.8033
 4372TIP3   OH234606   1.422   2.635  11.041  0.2494  0.0174 -0.8829
 4372TIP3    H134607   1.465   2.553  11.017 -0.6697 -0.4863 -0.8289
 4372TIP3    H234608   1.395   2.622  11.132  1.4100  0.9388 -0.3930
 4373TIP3   OH234609   4.002   5.556   1.468  0.2021  0.0797 -0.0564
 4373TIP3    H134610   4.004   5.626   1.402  1.8927  0.3351  0.2361
 4373TIP3    H234611   3.925   5.505   1.446  0.0849  0.8511 -1.5320
 4374TIP3   OH234612   6.119   5.969  12.886  0.2147 -0.1596  0.1755
 4374TIP3    H134613   6.203   5.952  12.928  0.9097 -0.8901 -1.4607
 4374TIP3    H234614   6.054   5.935  12.948  1.0977  0.4550  1.4725
 4375TIP3   OH234615   2.122   6.732   3.178 -0.7034  0.2031 -0.5284
 4375TIP3    H134616   2.136   6.760   3.087 -0.1955 -0.5727 -0.6837
 4375TIP3    H234617   2.170   6.796   3.230 -1.7902  1.2285 -0.7454
 4376TIP3   OH234618   4.092   3.422  11.398 -0.2644  0.1380  0.7608
 4376TIP3    H134619   4.173   3.386  11.433  0.5453  1.1133 -0.0575
 4376TIP3    H234620   4.079   3.375  11.316 -0.2533  0.3261  0.6512
 4377TIP3   OH234621   3.486   3.574   0.350  0.0363  0.2123 -0.2755
 4377TIP3    H134622   3.558   3.594   0.289 -0.2914 -0.4187 -0.8858
 4377TIP3    H234623   3.412   3.554   0.293 -0.3441 -0.1386  0.3394
 4378TIP3   OH234624   0.624   4.725   3.242  0.2425 -0.1756 -1.1539
 4378TIP3    H134625   0.650   4.804   3.289  1.1033 -1.9391  1.4892
 4378TIP3    H234626   0.700   4.702   3.188  0.8398 -0.4201 -0.2126
 4379TIP3   OH234627   3.505   1.938   4.368  0.0533 -0.4484  0.6755
 4379TIP3    H134628   3.468   1.851   4.382 -0.7770 -0.7689 -3.1094
 4379TIP3    H234629   3.431   1.992   4.340  1.2489  0.5594 -0.6057
 4380TIP3   OH234630   2.114   5.404  11.902  0.0900  0.5352 -0.0540
 4380TIP3    H134631   2.030   5.409  11.947 -0.1509  2.4633 -0.7007
 4380TIP3    H234632   2.114   5.317  11.861 -1.7887  0.7204 -0.4573
 4381TIP3   OH234633   6.658   0.768  12.088 -0.2035 -0.1840 -0.1460
 4381TIP3    H134634   6.661   0.697  12.024  1.2879 -2.0818  1.9461
 4381TIP3    H234635   6.730   0.826  12.062 -0.0497 -0.5651 -0.5890
 4382TIP3   OH234636   0.190   2.980   6.264 -0.0709  0.3330 -0.6481
 4382TIP3    H134637   0.152   3.056   6.307  0.6038 -0.3786  1.2742
 4382TIP3    H234638   0.118   2.943   6.213 -0.6568  1.7006 -0.8361
 4383TIP3   OH234639   3.137   1.683   2.680 -0.3301  0.0129 -0.4487
 4383TIP3    H134640   3.094   1.692   2.765  0.1034  0.2101 -0.2482
 4383TIP3    H234641   3.213   1.740   2.686  0.1825 -0.6484 -0.6558
 4384TIP3   OH234642   3.802   4.004  11.378 -0.7960 -0.0682 -0.4500
 4384TIP3    H134643   3.731   4.069  11.384 -2.0882 -1.4979  0.3147
 4384TIP3    H234644   3.853   4.031  11.303 -2.3167  0.8771 -1.1721
 4385TIP3   OH234645   4.616   5.906   1.151 -0.5215 -0.0909  0.4617
 4385TIP3    H134646   4.703   5.914   1.192 -0.5731 -1.0474  0.7681
 4385TIP3    H234647   4.576   5.992   1.163  1.7198  1.5068 -2.7564
 4386TIP3   OH234648   0.710   5.247   4.696  0.6303 -0.0232  0.4375
 4386TIP3    H134649   0.680   5.336   4.673  0.4327  0.1490  1.3397
 4386TIP3    H234650   0.685   5.237   4.788 -1.1195 -1.7419 -0.1877
 4387TIP3   OH234651   2.705   4.111   1.645  0.6246 -0.8474 -0.4476
 4387TIP3    H134652   2.697   4.128   1.739 -0.7766 -0.3982 -0.6339
 4387TIP3    H234653   2.617   4.126   1.611  1.5652  1.0135 -2.1616
 4388TIP3   OH234654   1.243   3.199  15.025 -0.2437 -0.2680  0.0048
 4388TIP3    H134655   1.242   3.294  15.040  1.5804 -0.2058 -0.1108
 4388TIP3    H234656   1.153   3.177  15.003 -0.9489  1.2392  1.2880
 4389TIP3   OH234657   4.031   1.495  15.473  0.4026  0.3055 -0.0766
 4389TIP3    H134658   4.012   1.405  15.445 -1.1293  0.9098 -1.0411
 4389TIP3    H234659   3.981   1.506  15.554  1.7271 -0.1619  0.8209
 4390TIP3   OH234660   6.798   4.913   6.137  0.4434  0.6327 -0.8019
 4390TIP3    H134661   6.715   4.933   6.094  0.2258 -0.7834 -1.0517
 4390TIP3    H234662   6.838   4.999   6.153 -1.2646  1.3496 -0.2731
 4391TIP3   OH234663   1.433   6.005  11.452  0.1411 -0.6778 -0.6336
 4391TIP3    H134664   1.386   5.926  11.425  1.7732 -1.6213 -0.7987
 4391TIP3    H234665   1.467   6.041  11.370  0.7877 -0.7160 -0.3854
 4392TIP3   OH234666   6.651   5.302   3.292  0.0627  0.6112 -0.5654
 4392TIP3    H134667   6.595   5.330   3.364  1.7123 -0.6592  1.2590
 4392TIP3    H234668   6.606   5.225   3.256  0.1306  0.1499  0.3028
 4393TIP3   OH234669   4.683   3.691  15.446  0.1217 -0.1277  0.1011
 4393TIP3    H134670   4.600   3.644  15.454 -0.0597  0.1736 -0.0034
 4393TIP3    H234671   4.693   3.705  15.352  0.1702  0.0472  0.1319
 4394TIP3   OH234672   6.556   2.533   1.328 -0.1861 -0.5307  0.0904
 4394TIP3    H134673   6.576   2.614   1.375  1.1946 -1.2717  0.8228
 4394TIP3    H234674   6.530   2.562   1.241 -1.3961  0.7873  0.8708
 4395TIP3   OH234675   3.192   2.990  14.120  0.0879  0.6084 -0.0888
 4395TIP3    H134676   3.123   3.040  14.162 -0.3802 -1.0560  1.1816
 4395TIP3    H234677   3.146   2.935  14.056  0.1396 -0.9208  1.1622
 4396TIP3   OH234678   3.209   2.462  12.257 -0.5916 -0.1008  0.2124
 4396TIP3    H134679   3.131   2.518  12.246  0.1654  0.7967 -0.7166
 4396TIP3    H234680   3.283   2.521  12.243  0.2762 -0.8875  1.3787
 4397TIP3   OH234681   3.570   6.579   6.272 -0.0411 -0.2618 -0.0458
 4397TIP3    H134682   3.618   6.501   6.244  2.3450  1.7972 -2.0009
 4397TIP3    H234683   3.542   6.559   6.361 -0.4511 -3.7416 -0.8769
 4398TIP3   OH234684   1.345   1.491  15.156  0.1920 -0.2682 -0.5205
 4398TIP3    H134685   1.435   1.513  15.132  0.2883 -0.6228 -0.4854
 4398TIP3    H234686   1.295   1.503  15.075  0.3743 -0.6534 -0.6935
 4399TIP3   OH234687   0.260   3.814  14.232  0.3121 -0.0214 -0.4211
 4399TIP3    H134688   0.177   3.766  14.242  0.2499 -0.0412 -1.0327
 4399TIP3    H234689   0.235   3.897  14.192  0.7631 -0.6194 -1.9557
 4400TIP3   OH234690   3.479   1.087   4.678  0.5527 -0.2901 -0.6025
 4400TIP3    H134691   3.426   1.061   4.753  1.3650  0.7113  0.3461
 4400TIP3    H234692   3.416   1.113   4.611 -0.1660  0.1161  0.2308
 4401TIP3   OH234693   3.328   2.673   3.116  0.0596 -0.9439 -0.2503
 4401TIP3    H134694   3.393   2.618   3.160  0.3538 -0.5270 -0.1545
 4401TIP3    H234695   3.252   2.616   3.103  0.5102 -1.4791 -0.5186
 4402TIP3   OH234696   1.467   6.021  14.260  0.1009  0.0556  0.9752
 4402TIP3    H134697   1.432   6.024  14.349  0.1215  0.1443  0.9802
 4402TIP3    H234698   1.451   5.932  14.230 -1.2467  0.4406  0.5310
 4403TIP3   OH234699   2.218   2.999  12.821  0.4864  0.0342  0.6093
 4403TIP3    H134700   2.250   2.974  12.734  0.8250 -0.2921  0.8259
 4403TIP3    H234701   2.266   3.079  12.842 -0.7334  0.9971 -0.1611
 4404TIP3   OH234702   5.066   0.044   4.052  0.4624  0.3036  0.6214
 4404TIP3    H134703   5.136   0.100   4.018 -0.3516  1.3249  0.6410
 4404TIP3    H234704   5.036   0.087   4.132 -0.6931  0.2532  0.2248
 4405TIP3   OH234705   5.347   5.965   0.155  0.4760 -0.4729 -0.4581
 4405TIP3    H134706   5.288   6.023   0.106  0.1262 -0.4119  0.0324
 4405TIP3    H234707   5.371   5.897   0.091  1.2371  0.4487 -1.1582
 4406TIP3   OH234708   6.008   3.664   1.975 -0.2018 -0.6858  0.0004
 4406TIP3    H134709   6.081   3.667   2.037 -1.0047  2.4390  0.8992
 4406TIP3    H234710   5.932   3.644   2.028 -0.6172  0.2138 -0.2395
 4407TIP3   OH234711   3.915   3.586   0.003 -0.1136  0.8254  0.7166
 4407TIP3    H134712   3.997   3.543   0.027 -0.7704 -2.2404 -2.1257
 4407TIP3    H234713   3.942   3.666  -0.041  1.3987 -0.2756 -0.4158
 4408TIP3   OH234714   5.397   5.265   3.680 -0.0985 -0.5603  0.2361
 4408TIP3    H134715   5.413   5.226   3.594 -0.1716 -0.8850  0.3708
 4408TIP3    H234716   5.463   5.225   3.737  0.3590  0.1279  0.1916
 4409TIP3   OH234717   1.556   6.046   5.638 -1.0152  0.5190  0.1375
 4409TIP3    H134718   1.631   6.017   5.586 -1.5731 -1.5140  0.4334
 4409TIP3    H234719   1.588   6.121   5.687  0.4183  0.5187 -0.7826
 4410TIP3   OH234720   4.217   5.847  12.005  0.5571 -0.5892 -0.0405
 4410TIP3    H134721   4.182   5.916  11.949  0.5637  0.7393  1.5545
 4410TIP3    H234722   4.147   5.830  12.068  0.4471 -2.2491 -0.5886
 4411TIP3   OH234723   3.151   0.193   6.342  0.0437  0.5475  0.1131
 4411TIP3    H134724   3.212   0.127   6.309 -1.1784  0.1674 -1.4237
 4411TIP3    H234725   3.135   0.167   6.433  2.6889  1.0596  0.7765
 4412TIP3   OH234726   4.406   3.093  11.641 -0.3594 -0.0773  0.1880
 4412TIP3    H134727   4.451   3.020  11.599  2.3520  1.4845  0.2861
 4412TIP3    H234728   4.411   3.074  11.734 -2.2502 -1.1860  0.0982
 4413TIP3   OH234729   1.140   3.599   5.314  0.4347 -0.2507 -0.5266
 4413TIP3    H134730   1.122   3.561   5.399  3.3664  1.5033  0.9528
 4413TIP3    H234731   1.231   3.574   5.295  0.4238  0.9278 -2.2579
 4414TIP3   OH234732   1.340   5.343  17.235 -0.9621  0.0195  0.0880
 4414TIP3    H134733   1.281   5.303  17.298  0.1429 -0.0999  1.0587
 4414TIP3    H234734   1.294   5.421  17.204 -2.1228 -0.7127 -0.0592
 4415TIP3   OH234735   5.616   5.838  13.082  0.1213 -0.1988 -0.2210
 4415TIP3    H134736   5.665   5.920  13.075  0.0437 -0.0179  1.3232
 4415TIP3    H234737   5.572   5.830  12.997  0.4415  1.1506 -0.5261
 4416TIP3   OH234738   2.263   5.485   3.806 -0.2217 -0.5506  0.1999
 4416TIP3    H134739   2.189   5.523   3.854 -0.4646 -0.7473 -0.0163
 4416TIP3    H234740   2.340   5.507   3.858 -0.7330 -3.1671  2.1430
 4417TIP3   OH234741   4.075   5.841  11.768  1.1189  0.2651 -0.2772
 4417TIP3    H134742   4.042   5.754  11.793 -2.4827  1.1819 -1.4314
 4417TIP3    H234743   4.144   5.823  11.705  1.1815 -1.7965  0.3233
 4418TIP3   OH234744   3.086   6.255  11.500 -0.1685 -0.4416 -0.5002
 4418TIP3    H134745   3.035   6.286  11.575  0.2304 -1.4171  0.1808
 4418TIP3    H234746   3.150   6.195  11.538 -0.0263 -1.0150 -1.6355
 4419TIP3   OH234747   3.434   4.950  13.356  0.7875  0.3189 -0.2675
 4419TIP3    H134748   3.436   4.900  13.437 -0.7693  0.5804 -0.0513
 4419TIP3    H234749   3.522   4.987  13.348  1.6039 -1.4448  0.1860
 4420TIP3   OH234750   4.374   5.936  10.801 -0.0481 -0.2204  0.3070
 4420TIP3    H134751   4.350   5.857  10.849 -0.0639 -0.2815  0.1995
 4420TIP3    H234752   4.469   5.929  10.789  0.2139  0.5642  1.7206
 4421TIP3   OH234753   1.594   2.169  15.230  0.2398 -0.2482 -0.1556
 4421TIP3    H134754   1.594   2.190  15.323  2.4744 -1.3433  0.1197
 4421TIP3    H234755   1.513   2.120  15.216 -0.3889  0.4194  1.0621
 4422TIP3   OH234756   1.845   0.587   1.650  0.4791 -0.5820 -0.0415
 4422TIP3    H134757   1.907   0.632   1.592 -0.6896  1.6974  0.3975
 4422TIP3    H234758   1.792   0.658   1.688 -0.2855 -2.2084  2.0484
 4423TIP3   OH234759   2.311   3.724   3.180  0.0074 -0.6488  0.4839
 4423TIP3    H134760   2.381   3.768   3.132  1.4721 -0.7104  2.5400
 4423TIP3    H234761   2.233   3.737   3.125  1.2374  0.9896 -0.9148
 4424TIP3   OH234762   4.036   5.695   4.363 -0.1278 -0.7019 -0.0943
 4424TIP3    H134763   4.026   5.789   4.374  2.9153 -0.1748 -1.2090
 4424TIP3    H234764   4.110   5.672   4.420 -0.0971 -2.1988 -0.7222
 4425TIP3   OH234765   3.577   1.584  11.442 -0.3439  0.1827 -0.0004
 4425TIP3    H134766   3.664   1.604  11.476 -0.3882 -1.3114  1.0659
 4425TIP3    H234767   3.517   1.623  11.506 -0.4485 -0.2422  0.1612
 4426TIP3   OH234768   4.792   0.924   0.821  0.3271  0.4908  0.2867
 4426TIP3    H134769   4.850   0.856   0.786  0.7499  0.2780  1.3875
 4426TIP3    H234770   4.717   0.877   0.855  0.4327  0.6034  0.6790
 4427TIP3   OH234771   6.548   5.779   5.695  0.5696 -0.0146 -0.0114
 4427TIP3    H134772   6.452   5.788   5.695  0.7090  1.5818 -0.4503
 4427TIP3    H234773   6.578   5.847   5.755  1.3997 -0.9839  0.6818
 4428TIP3   OH234774   2.671   3.837  17.059  0.5422  0.1620  0.5229
 4428TIP3    H134775   2.735   3.847  16.989  1.2255  0.8651  1.2383
 4428TIP3    H234776   2.616   3.763  17.031  0.9548  0.2785 -0.6242
 4429TIP3   OH234777   4.218   3.421  13.614 -0.2430 -0.0900 -0.2127
 4429TIP3    H134778   4.177   3.343  13.578  0.1204 -0.5032  0.2674
 4429TIP3    H234779   4.299   3.431  13.563  1.1689 -1.6839  1.6130
 4430TIP3   OH234780   3.077   0.680   1.605 -0.1896 -0.1868 -0.3378
 4430TIP3    H134781   3.033   0.762   1.585 -2.0012 -1.3825 -1.3953
 4430TIP3    H234782   3.143   0.670   1.536 -0.0252  0.3373 -0.2545
 4431TIP3   OH234783   4.365   0.551   5.452 -0.1307  0.3525 -0.0343
 4431TIP3    H134784   4.433   0.601   5.407  0.5735 -1.3733 -0.9225
 4431TIP3    H234785   4.287   0.605   5.445  0.1105  0.3688 -2.8738
 4432TIP3   OH234786   2.821   0.694  14.448  0.5830 -0.1945  0.3293
 4432TIP3    H134787   2.817   0.789  14.460  2.1936 -0.0697 -0.0659
 4432TIP3    H234788   2.876   0.662  14.519  0.9830 -0.7038 -0.2056
 4433TIP3   OH234789   4.117   5.538   0.573  0.2652  0.0491  0.0100
 4433TIP3    H134790   4.121   5.486   0.493  0.3159 -0.0499  0.0764
 4433TIP3    H234791   4.024   5.541   0.595  0.3702 -1.0566  0.6824
 4434TIP3   OH234792   1.591   6.391  12.246 -0.1267  0.2378 -0.0881
 4434TIP3    H134793   1.578   6.474  12.290  1.2900  0.6629 -0.4394
 4434TIP3    H234794   1.586   6.326  12.316 -1.7345  0.5598  0.1097
 4435TIP3   OH234795   4.659   2.232  16.313 -0.1698 -0.6275 -0.0531
 4435TIP3    H134796   4.566   2.227  16.289 -0.1615 -0.7744 -0.0520
 4435TIP3    H234797   4.699   2.278  16.239 -0.7848  2.3681  1.3885
 4436TIP3   OH234798   3.401   0.265  11.250  0.4225  0.5383  0.3681
 4436TIP3    H134799   3.308   0.285  11.258  0.0417 -0.9050 -0.3027
 4436TIP3    H234800   3.434   0.329  11.187 -0.3070  0.5144 -0.0463
 4437TIP3   OH234801   0.288   1.393  11.231  0.5800  0.1706  0.0507
 4437TIP3    H134802   0.230   1.415  11.157  0.8697 -0.9599 -0.5303
 4437TIP3    H234803   0.308   1.301  11.218  0.6771 -0.0226  1.5365
 4438TIP3   OH234804   2.032   3.304  15.086  0.3690 -0.0354 -0.3634
 4438TIP3    H134805   2.068   3.216  15.096  0.0007  0.2084  4.5191
 4438TIP3    H234806   2.107   3.358  15.063  0.9774 -1.2979 -1.4038
 4439TIP3   OH234807   0.753   1.066  16.812  0.7108 -0.1962 -0.3309
 4439TIP3    H134808   0.779   1.121  16.738  1.0902 -0.0005 -0.0523
 4439TIP3    H234809   0.836   1.037  16.850  0.5123 -0.5622 -0.1797
 4440TIP3   OH234810   5.574   0.637   1.637  0.4237 -0.0714 -0.3735
 4440TIP3    H134811   5.654   0.591   1.663 -1.1482 -2.2209  0.7190
 4440TIP3    H234812   5.567   0.620   1.543  0.7452 -0.6837 -0.2895
 4441TIP3   OH234813   1.380   0.685   6.108 -0.2371 -0.1341  0.0981
 4441TIP3    H134814   1.402   0.617   6.045 -0.5854 -0.5797  0.4600
 4441TIP3    H234815   1.463   0.732   6.123 -0.0343 -0.3782 -0.2679
 4442TIP3   OH234816   0.930   4.482  15.873  0.0689 -0.4394 -0.5161
 4442TIP3    H134817   0.863   4.415  15.865 -0.8653  0.2954  0.9312
 4442TIP3    H234818   0.886   4.556  15.915  1.6001  0.3279 -0.1968
 4443TIP3   OH234819   2.207   6.396   0.912 -0.0384 -0.0989  0.6510
 4443TIP3    H134820   2.188   6.340   0.837 -3.5581  1.7262  0.0785
 4443TIP3    H234821   2.179   6.345   0.988 -2.7198  0.6092  0.1736
 4444TIP3   OH234822   1.861   5.487  13.680 -0.0621  0.1116 -0.3525
 4444TIP3    H134823   1.893   5.556  13.622 -0.7046  0.1420 -0.6824
 4444TIP3    H234824   1.870   5.523  13.768  0.5520  0.2176 -0.4569
 4445TIP3   OH234825   5.241   4.917   5.963 -0.2028  0.5548  0.1947
 4445TIP3    H134826   5.227   4.910   6.057  0.8667 -0.9412  0.2629
 4445TIP3    H234827   5.154   4.901   5.925 -0.4432  0.1627  0.8955
 4446TIP3   OH234828   5.423   0.981  11.534  0.0428 -0.2081 -0.7952
 4446TIP3    H134829   5.506   0.970  11.581 -0.5475  0.1633  0.3456
 4446TIP3    H234830   5.416   1.075  11.520 -0.6823 -0.1241  0.0485
 4447TIP3   OH234831   0.586   2.976  11.474 -0.3274  0.1618 -0.0307
 4447TIP3    H134832   0.524   3.012  11.536  0.7401  1.2343  0.4389
 4447TIP3    H234833   0.543   2.898  11.440 -2.1306  1.1541 -0.0974
 4448TIP3   OH234834   4.556   2.391   1.368 -0.2305  0.4730 -0.0617
 4448TIP3    H134835   4.539   2.406   1.275 -0.8316 -1.1633 -0.2462
 4448TIP3    H234836   4.474   2.415   1.412 -0.7601 -0.9302 -0.2276
 4449TIP3   OH234837   6.228   4.046  14.122  0.4039  0.5803  0.1378
 4449TIP3    H134838   6.318   4.054  14.152  0.1092 -0.5762  1.3296
 4449TIP3    H234839   6.224   3.960  14.081 -0.3350  0.3430  0.6994
 4450TIP3   OH234840   6.619   3.295  11.233  0.4721  0.0497 -0.0101
 4450TIP3    H134841   6.602   3.342  11.314  3.0844  0.8191  0.1395
 4450TIP3    H234842   6.647   3.362  11.171  2.0907 -0.9787 -0.4378
 4451TIP3   OH234843   2.531   2.978  15.268 -0.2910  0.2899  0.5777
 4451TIP3    H134844   2.532   2.891  15.227 -0.7239  0.5553 -0.0106
 4451TIP3    H234845   2.590   3.030  15.213 -0.4547  0.5060  0.6078
 4452TIP3   OH234846   0.838   3.071   4.887 -0.0248  0.6964 -0.1435
 4452TIP3    H134847   0.784   2.998   4.917  1.3052  0.1223  0.9525
 4452TIP3    H234848   0.920   3.030   4.859 -0.7136  1.3760 -3.3744
 4453TIP3   OH234849   4.093   2.629   0.748 -0.1930 -0.6491  0.1254
 4453TIP3    H134850   4.175   2.619   0.795 -0.4781  0.9027  1.0146
 4453TIP3    H234851   4.118   2.638   0.656  0.4976 -1.8460  0.1932
 4454TIP3   OH234852   5.738   2.418   0.381 -0.4394  0.1388  0.3544
 4454TIP3    H134853   5.648   2.395   0.406 -0.8080  0.7698 -0.3627
 4454TIP3    H234854   5.750   2.378   0.296  0.1231 -0.3312  0.6568
 4455TIP3   OH234855   0.244   3.965  15.942  0.1508 -0.0224 -0.2844
 4455TIP3    H134856   0.289   4.046  15.968 -0.5017 -0.0721  1.0145
 4455TIP3    H234857   0.313   3.899  15.937  0.4236  0.2182  0.3455
 4456TIP3   OH234858   2.152   0.240  11.958  0.5781  0.1366 -0.2460
 4456TIP3    H134859   2.138   0.197  11.873 -0.7361 -1.9198  0.9466
 4456TIP3    H234860   2.111   0.326  11.948 -0.0433 -0.2860 -1.5452
 4457TIP3   OH234861   4.725   4.504   4.953  0.3150 -0.0206  0.0246
 4457TIP3    H134862   4.718   4.574   4.889  1.2355 -0.0863 -0.1461
 4457TIP3    H234863   4.801   4.527   5.007 -0.3119 -0.0831  0.9525
 4458TIP3   OH234864   2.663   1.727  16.885  0.1099 -0.0002 -0.0027
 4458TIP3    H134865   2.665   1.679  16.968  3.3655 -0.1410 -0.0859
 4458TIP3    H234866   2.755   1.728  16.856 -0.9711 -0.2340 -3.7581
 4459TIP3   OH234867   0.337   4.831   1.420  0.4956 -0.5841  0.2310
 4459TIP3    H134868   0.327   4.756   1.362  2.1743 -0.4747 -0.2200
 4459TIP3    H234869   0.426   4.861   1.406 -0.2437  1.6944  0.1846
 4460TIP3   OH234870   5.965   4.265  13.341 -0.0210  0.4266  0.3238
 4460TIP3    H134871   6.051   4.278  13.300 -0.3698 -0.5570 -0.7371
 4460TIP3    H234872   5.983   4.272  13.435  1.4241 -0.8593  0.1746
 4461TIP3   OH234873   5.009   4.904   2.880  0.3067  0.7325 -1.0674
 4461TIP3    H134874   5.095   4.945   2.890  0.2861  0.7737 -1.0553
 4461TIP3    H234875   5.028   4.815   2.850  0.5482 -0.5946  2.7560
 4462TIP3   OH234876   0.247   5.157  15.032 -0.2694  0.1301 -0.2092
 4462TIP3    H134877   0.329   5.131  15.073 -0.8016  0.7919  1.3369
 4462TIP3    H234878   0.252   5.252  15.024  0.3026 -0.0780 -2.8083
 4463TIP3   OH234879   3.163   6.311   4.966 -0.4774 -0.2923 -0.5991
 4463TIP3    H134880   3.098   6.374   4.997  0.8080  0.1686  1.2529
 4463TIP3    H234881   3.240   6.365   4.945  0.7585 -1.2369  1.3252
 4464TIP3   OH234882   5.715   3.036  16.302 -0.1404  0.6653 -1.1252
 4464TIP3    H134883   5.785   2.976  16.278  0.5273  1.3752 -0.9827
 4464TIP3    H234884   5.760   3.112  16.339 -1.0574  0.2317  0.9884
 4465TIP3   OH234885   5.556   6.599   4.704  0.3437  0.0361 -0.0001
 4465TIP3    H134886   5.514   6.671   4.751  0.6670  0.9924 -1.1518
 4465TIP3    H234887   5.547   6.523   4.763  0.0501  1.0185  1.2448
 4466TIP3   OH234888   3.688   3.640   0.161  0.2955  0.5333  0.0433
 4466TIP3    H134889   3.780   3.617   0.166  0.1113 -0.1375  0.4195
 4466TIP3    H234890   3.676   3.673   0.072  0.7114 -0.2155 -0.2964
 4467TIP3   OH234891   4.944   2.701  13.203 -0.8219 -0.1997 -0.8223
 4467TIP3    H134892   5.015   2.744  13.155 -1.4861  0.3162 -1.3547
 4467TIP3    H234893   4.923   2.761  13.274 -0.7565 -0.3351 -0.6859
 4468TIP3   OH234894   2.954   3.970  15.656 -0.4275  0.5549  0.2881
 4468TIP3    H134895   2.873   3.962  15.606  0.8404  1.5715 -1.9827
 4468TIP3    H234896   2.965   3.885  15.698 -1.8798 -0.0942 -0.6325
 4469TIP3   OH234897   3.502   1.923  16.872  0.5730 -0.3349 -0.2463
 4469TIP3    H134898   3.533   1.860  16.807  0.1762  0.4461 -1.2184
 4469TIP3    H234899   3.566   1.994  16.869  0.4485 -0.2109  0.0729
 4470TIP3   OH234900   0.121   3.151   4.875  0.0020  0.5572  0.1984
 4470TIP3    H134901   0.058   3.103   4.928 -0.6294  0.5414 -0.5490
 4470TIP3    H234902   0.184   3.085   4.847  0.1713  0.5114  0.6819
 4471TIP3   OH234903   0.393   2.114  15.784 -0.3118  0.3208  0.5385
 4471TIP3    H134904   0.298   2.101  15.783 -0.3891  0.8285  0.9590
 4471TIP3    H234905   0.426   2.056  15.715 -0.9076  0.0014  0.5170
 4472TIP3   OH234906   1.546   2.609   4.923 -0.2062  0.1634  0.2702
 4472TIP3    H134907   1.615   2.559   4.966 -1.6071  0.3009  2.7613
 4472TIP3    H234908   1.481   2.544   4.898 -1.0441  0.4691  1.6035
 4473TIP3   OH234909   0.895   2.253  13.742  0.1443  0.0390 -0.3148
 4473TIP3    H134910   0.859   2.240  13.655  3.0299 -1.7585 -1.3128
 4473TIP3    H234911   0.889   2.168  13.784  0.0317  0.5599  0.7550
 4474TIP3   OH234912   4.212   4.460  16.404  0.0760 -0.1620  0.1335
 4474TIP3    H134913   4.298   4.419  16.402  0.0842 -0.1427  0.0433
 4474TIP3    H234914   4.218   4.529  16.337 -0.0045 -0.1520  0.1346
 4475TIP3   OH234915   4.208   6.491  17.011  0.1686  0.3988 -0.3964
 4475TIP3    H134916   4.283   6.537  17.049 -0.6421  0.6859  0.9004
 4475TIP3    H234917   4.217   6.504  16.917  1.9426  0.1229 -0.2894
 4476TIP3   OH234918   2.586   4.843   3.262 -0.2341  0.5326  0.2835
 4476TIP3    H134919   2.652   4.905   3.292 -0.4300  1.0582 -0.3639
 4476TIP3    H234920   2.503   4.891   3.269 -0.1526  1.1060 -2.2926
 4477TIP3   OH234921   0.753   4.628  11.397 -0.0888 -0.5184  0.2886
 4477TIP3    H134922   0.794   4.630  11.310 -1.3150  2.5559 -0.2897
 4477TIP3    H234923   0.785   4.707  11.440 -0.1868 -1.5701  2.3408
 4478TIP3   OH234924   4.310   5.066  15.842 -0.3618 -0.9493 -0.0370
 4478TIP3    H134925   4.224   5.030  15.820 -0.8952 -0.3547  1.0437
 4478TIP3    H234926   4.338   5.015  15.919 -0.6004  0.1375  0.7797
 4479TIP3   OH234927   4.298   6.276   3.920  0.8391  0.5661  0.7381
 4479TIP3    H134928   4.354   6.198   3.916 -0.2931 -0.2076 -0.8602
 4479TIP3    H234929   4.242   6.261   3.996 -0.7427 -1.2058 -0.6946
 4480TIP3   OH234930   1.621   5.328  16.517  0.0578  0.3215  0.1283
 4480TIP3    H134931   1.569   5.266  16.568  1.2369  1.8024  3.2271
 4480TIP3    H234932   1.672   5.273  16.457 -0.2125 -1.5878  1.6056
 4481TIP3   OH234933   6.795   0.076   2.024 -0.4676  0.1693  0.5488
 4481TIP3    H134934   6.716   0.129   2.013  1.2800  2.6482 -0.2393
 4481TIP3    H234935   6.832   0.105   2.107 -0.1089 -0.6710  0.6943
 4482TIP3   OH234936   6.464   4.744  12.158 -0.4041  0.2927  0.2453
 4482TIP3    H134937   6.513   4.673  12.200 -1.3924  0.0885  1.0617
 4482TIP3    H234938   6.481   4.732  12.064  0.3086 -0.3726  0.4515
 4483TIP3   OH234939   0.019   0.761   1.371  0.0947  0.2968  0.0467
 4483TIP3    H134940   0.094   0.743   1.315 -0.3725  1.6328 -1.0317
 4483TIP3    H234941   0.056   0.806   1.447  0.2803  1.8651 -0.9521
 4484TIP3   OH234942   2.517   6.696  15.434 -0.3360 -0.7983 -0.3542
 4484TIP3    H134943   2.553   6.692  15.523 -0.5584  0.1574 -0.2193
 4484TIP3    H234944   2.547   6.614  15.393  1.3247 -0.3923  0.0132
 4485TIP3   OH234945   4.184   5.439   3.159 -0.2374  0.2150  0.0159
 4485TIP3    H134946   4.195   5.486   3.242 -0.2845 -0.7734  0.5860
 4485TIP3    H234947   4.114   5.486   3.114 -0.1476  0.8131  0.4885
 4486TIP3   OH234948   6.299   3.123   3.088  0.2264  0.0160 -0.5340
 4486TIP3    H134949   6.388   3.121   3.051  0.3032 -0.2903 -0.3335
 4486TIP3    H234950   6.242   3.111   3.012  0.3949 -0.9245 -0.5130
 4487TIP3   OH234951   2.055   4.450   5.995 -0.0660 -0.0822 -0.0077
 4487TIP3    H134952   2.148   4.441   5.976  0.3695  0.4471  1.8195
 4487TIP3    H234953   2.037   4.386   6.064 -0.5895  1.2431  1.1147
 4488TIP3   OH234954   2.397   6.578   6.107  0.0789 -0.2356  0.2932
 4488TIP3    H134955   2.328   6.530   6.152  0.2103 -0.1447  0.5924
 4488TIP3    H234956   2.439   6.630   6.176  0.4928 -0.3450  0.1243
 4489TIP3   OH234957   3.656   5.843  15.655  0.5873  0.0016  0.3667
 4489TIP3    H134958   3.665   5.748  15.663 -0.7068 -0.0827  0.9571
 4489TIP3    H234959   3.579   5.865  15.708  1.0716  1.4218  0.5273
 4490TIP3   OH234960   3.287   2.911   2.396 -0.1634  0.5283  0.3165
 4490TIP3    H134961   3.208   2.903   2.342 -0.0995  0.8097  0.1840
 4490TIP3    H234962   3.284   3.000   2.431  1.9600  1.8519 -2.6100
 4491TIP3   OH234963   5.683   3.461   6.681  0.6056 -0.7455 -0.2221
 4491TIP3    H134964   5.686   3.430   6.591  0.6824 -1.6598  0.0917
 4491TIP3    H234965   5.599   3.429   6.715 -0.5173  1.6059 -0.6793
 4492TIP3   OH234966   6.389   5.549   1.414  0.0463  0.2350 -0.5242
 4492TIP3    H134967   6.440   5.481   1.370  1.2933 -0.1675  1.4684
 4492TIP3    H234968   6.451   5.621   1.427 -0.3127  0.3725  0.4847
 4493TIP3   OH234969   6.242   5.801  17.251  0.2298  0.4417  0.0162
 4493TIP3    H134970   6.310   5.740  17.279 -0.7636 -0.3143  0.8539
 4493TIP3    H234971   6.207   5.764  17.170 -0.6406 -0.3491  0.7307
 4494TIP3   OH234972   3.467   5.075  14.188  0.6019 -0.6031  0.2796
 4494TIP3    H134973   3.521   5.111  14.118 -1.1736  0.5922 -0.5018
 4494TIP3    H234974   3.530   5.033  14.248  2.3378  0.4390 -0.7808
 4495TIP3   OH234975   5.631   2.803   1.131  0.0524 -0.6324  0.3698
 4495TIP3    H134976   5.551   2.800   1.079  0.1299 -1.5478  0.2921
 4495TIP3    H234977   5.610   2.860   1.205 -1.1124 -1.9627  1.0792
 4496TIP3   OH234978   4.044   1.776  11.641 -0.3185  0.0742  0.3154
 4496TIP3    H134979   4.105   1.745  11.575 -0.7160 -0.1058  0.0260
 4496TIP3    H234980   3.966   1.721  11.629  0.4612 -1.5394  2.4836
 4497TIP3   OH234981   0.034   0.577   3.806 -0.2948  0.0112  0.0606
 4497TIP3    H134982  -0.032   0.631   3.760 -1.2275 -1.0147  0.1820
 4497TIP3    H234983   0.112   0.583   3.750 -1.4026 -1.1955 -1.6809
 4498TIP3   OH234984   1.033   1.415   1.998  0.2417  0.5858  0.3635
 4498TIP3    H134985   0.981   1.379   1.926 -0.3206 -0.4803  1.2782
 4498TIP3    H234986   0.989   1.384   2.077  1.8210  0.3046  1.1649
 4499TIP3   OH234987   2.686   4.607   0.973  0.3599 -0.8232 -0.3447
 4499TIP3    H134988   2.688   4.605   1.069  1.2064 -0.6573 -0.3600
 4499TIP3    H234989   2.690   4.515   0.947 -1.2045 -0.9559 -0.2055
 4500TIP3   OH234990   0.538   2.425   4.683  0.0709 -0.1048 -0.1312
 4500TIP3    H134991   0.625   2.413   4.646  0.6498 -1.1696  1.5297
 4500TIP3    H234992   0.508   2.509   4.647  1.4252 -0.1436 -1.3741
 4501TIP3   OH234993   1.057   4.044  14.402  0.1920 -0.6353 -0.8115
 4501TIP3    H134994   1.067   4.006  14.489  0.5040 -0.7319 -0.8912
 4501TIP3    H234995   1.144   4.077  14.380  0.5882 -2.3804 -1.9230
 4502TIP3   OH234996   1.247   0.071   3.447  0.1871 -0.1710 -0.4978
 4502TIP3    H134997   1.237   0.062   3.541 -2.5615 -0.4248 -0.7561
 4502TIP3    H234998   1.262   0.164   3.432  0.7985 -0.1602  0.2085
 4503TIP3   OH234999   5.620   6.432   5.367  0.4405 -0.1263 -0.0938
 4503TIP3    H135000   5.672   6.506   5.335 -1.5119  0.4376 -2.1445
 4503TIP3    H235001   5.620   6.441   5.462 -0.3595  2.9342 -0.3511
 4504TIP3   OH235002   2.395   3.227  12.593  0.5235  0.2728 -0.3067
 4504TIP3    H135003   2.340   3.296  12.554  1.1658  1.2447  0.4910
 4504TIP3    H235004   2.387   3.154  12.533 -0.2938  0.9950 -1.0964
 4505TIP3   OH235005   6.676   2.894  17.054  0.5271  0.2004  0.4722
 4505TIP3    H135006   6.656   2.859  17.140  1.3108  2.8965  1.8199
 4505TIP3    H235007   6.594   2.933  17.023 -0.0456 -1.7384 -0.5225
 4506TIP3   OH235008   1.356   2.369  15.792  0.8275  0.2760  0.0680
 4506TIP3    H135009   1.280   2.415  15.828  1.1026 -0.0347  1.0438
 4506TIP3    H235010   1.359   2.286  15.839  0.5857 -0.5894 -1.3962
 4507TIP3   OH235011   2.684   2.877   0.899 -0.0314 -0.0553 -0.1232
 4507TIP3    H135012   2.664   2.859   0.991  0.7720  0.0603  0.0781
 4507TIP3    H235013   2.702   2.971   0.897  0.1315 -0.0912 -0.3656
 4508TIP3   OH235014   2.047   4.960   2.957 -0.6486 -0.1534  0.2252
 4508TIP3    H135015   2.103   4.907   3.013  1.6723 -0.2180 -2.0555
 4508TIP3    H235016   2.015   5.030   3.014 -0.7075 -1.8392  2.3175
 4509TIP3   OH235017   1.678   4.584   6.130 -0.0308 -0.5155 -0.2855
 4509TIP3    H135018   1.666   4.517   6.063 -0.9983 -0.9227  0.2909
 4509TIP3    H235019   1.756   4.557   6.178 -2.1215 -2.8625  1.8735
 4510TIP3   OH235020   4.088   6.237   3.086  0.5924  0.4348 -0.1245
 4510TIP3    H135021   4.124   6.325   3.090 -1.0722  1.0409  2.8102
 4510TIP3    H235022   4.164   6.179   3.095  1.3660  1.6063  0.9152
 4511TIP3   OH235023   5.998   3.713   5.423  0.3893  0.6080 -0.1187
 4511TIP3    H135024   5.951   3.787   5.460  1.7409  1.2907  0.2839
 4511TIP3    H235025   6.075   3.752   5.381  1.1133 -0.5529  0.0854
 4512TIP3   OH235026   0.224   1.524  11.510 -0.4394  0.1589 -0.1278
 4512TIP3    H135027   0.203   1.555  11.422  2.0497 -0.9270 -1.1603
 4512TIP3    H235028   0.184   1.437  11.515  1.9942 -1.1058 -1.3966
 4513TIP3   OH235029   0.791   4.351  12.430  0.1201 -0.4211  0.3199
 4513TIP3    H135030   0.757   4.347  12.519 -0.8403 -0.2972 -0.0296
 4513TIP3    H235031   0.886   4.340  12.439  0.0732  0.0316  1.3885
 4514TIP3   OH235032   6.730   6.209  12.898  0.1374  0.3141 -0.9511
 4514TIP3    H135033   6.796   6.262  12.942 -0.2582  1.1915 -1.4059
 4514TIP3    H235034   6.780   6.139  12.856  0.2678 -2.2017  3.1792
 4515TIP3   OH235035   5.517   4.222  10.775  0.6493 -0.0449  0.5497
 4515TIP3    H135036   5.489   4.135  10.748 -0.4493  1.1125 -2.3584
 4515TIP3    H235037   5.593   4.242  10.720 -0.1401  1.4496 -0.0521
 4516TIP3   OH235038   3.346   2.901   2.969 -0.1128  0.1866 -0.1044
 4516TIP3    H135039   3.414   2.954   3.010  1.2266 -1.5229 -0.0565
 4516TIP3    H235040   3.326   2.833   3.034  1.0182 -1.7093 -1.6814
 4517TIP3   OH235041   4.890   6.651   0.093 -0.1887 -0.0029 -0.1059
 4517TIP3    H135042   4.952   6.630   0.024  0.4217 -1.1738  0.7782
 4517TIP3    H235043   4.808   6.608   0.065 -0.3455  0.7511 -0.8087
 4518TIP3   OH235044   2.960   1.395   2.664 -0.1231  0.3112 -0.0231
 4518TIP3    H135045   2.969   1.459   2.594 -0.6439 -0.8684 -1.2081
 4518TIP3    H235046   2.887   1.427   2.717 -0.5096  0.5944 -0.7240
 4519TIP3   OH235047   3.322   0.662   0.137  0.1301 -0.1153 -0.2389
 4519TIP3    H135048   3.330   0.567   0.123  0.9733  0.1542 -1.6561
 4519TIP3    H235049   3.230   0.675   0.163 -0.3337 -1.1708 -1.3065
 4520TIP3   OH235050   2.067   4.309  11.149 -0.1714  0.5966 -0.7453
 4520TIP3    H135051   2.075   4.395  11.107  0.5667  0.9350  0.0736
 4520TIP3    H235052   2.152   4.296  11.192 -1.0378  0.4393  0.9748
 4521TIP3   OH235053   6.196   5.975   3.048  0.1976  0.1799  0.6246
 4521TIP3    H135054   6.254   5.943   3.117  0.7014  1.1512  0.6491
 4521TIP3    H235055   6.215   6.068   3.040 -0.3741  0.2326 -0.3240
 4522TIP3   OH235056   4.034   3.136   0.389  0.0439  0.2761  0.0370
 4522TIP3    H135057   4.095   3.188   0.336  0.4072 -1.3482 -1.2068
 4522TIP3    H235058   3.955   3.189   0.394  0.0242  0.4982 -2.1145
 4523TIP3   OH235059   5.391   5.717  14.419 -0.3923  0.4272  0.2735
 4523TIP3    H135060   5.455   5.715  14.489 -0.7722  1.6542  0.6634
 4523TIP3    H235061   5.424   5.782  14.357 -0.7494  0.3581  0.0046
 4524TIP3   OH235062   4.580   3.911   4.787 -0.2037 -0.0040  0.8851
 4524TIP3    H135063   4.577   3.833   4.843  0.2206 -0.1470  0.7127
 4524TIP3    H235064   4.565   3.879   4.699 -0.2278  0.1337  0.8383
 4525TIP3   OH235065   3.072   5.486  12.751 -0.2496  0.3600 -0.2306
 4525TIP3    H135066   3.110   5.569  12.780 -0.8542 -0.3456  2.7660
 4525TIP3    H235067   3.008   5.464  12.819  0.5198 -2.9995 -0.5311
 4526TIP3   OH235068   5.371   4.226   3.306  0.1312 -0.0031  0.6270
 4526TIP3    H135069   5.320   4.148   3.284 -1.2165  1.5882 -2.2238
 4526TIP3    H235070   5.461   4.195   3.313 -0.5301 -1.9999  0.5762
 4527TIP3   OH235071   0.967   4.281   3.818 -0.6325  0.1154 -0.2291
 4527TIP3    H135072   1.050   4.329   3.825 -0.6722  0.1743 -0.1626
 4527TIP3    H235073   0.939   4.298   3.728 -0.7733  0.4293 -0.1288
 4528TIP3   OH235074   1.712   0.463   2.459 -0.2140 -0.5261 -0.5966
 4528TIP3    H135075   1.743   0.514   2.533 -1.9975 -0.1340 -0.0987
 4528TIP3    H235076   1.792   0.437   2.413  1.0915 -2.6742  2.6784
 4529TIP3   OH235077   5.023   0.979  15.148 -0.2168  0.4015  0.2703
 4529TIP3    H135078   5.097   1.030  15.113  0.9808 -2.7514 -1.9992
 4529TIP3    H235079   4.959   0.979  15.077 -1.2015  0.6818  1.1525
 4530TIP3   OH235080   5.716   4.922  15.138  0.4803 -0.0794 -0.0914
 4530TIP3    H135081   5.752   5.004  15.172  1.8890  0.6139 -3.0716
 4530TIP3    H235082   5.639   4.948  15.088  1.0176 -0.4897 -1.1717
 4531TIP3   OH235083   4.172   6.622  14.905  0.1693  0.3130 -0.4474
 4531TIP3    H135084   4.160   6.712  14.873 -0.1560  0.1916 -0.6768
 4531TIP3    H235085   4.111   6.570  14.852 -0.4723  0.1211  0.4543
 4532TIP3   OH235086   0.101   1.636   0.685  0.0547 -0.2054  0.2275
 4532TIP3    H135087   0.016   1.600   0.658 -0.5429  1.1854  0.1869
 4532TIP3    H235088   0.163   1.605   0.620 -0.3081 -1.7950  0.6301
 4533TIP3   OH235089   4.617   2.753  15.628 -0.2260  0.6424  0.2068
 4533TIP3    H135090   4.652   2.838  15.653  1.8845 -0.4086  0.9562
 4533TIP3    H235091   4.602   2.760  15.534  3.3743  0.7079 -0.4101
 4534TIP3   OH235092   2.930   6.073  13.559  0.3387  0.4727 -0.4546
 4534TIP3    H135093   2.869   6.040  13.494 -0.8023  0.2055  0.7377
 4534TIP3    H235094   2.883   6.144  13.603  0.4607 -0.4411  1.2025
 4535TIP3   OH235095   5.537   6.044   0.343  0.7122  0.1330  0.5296
 4535TIP3    H135096   5.564   6.113   0.282 -0.3382 -1.2152 -1.5261
 4535TIP3    H235097   5.464   6.000   0.298  0.7841 -1.7359  2.2033
 4536TIP3   OH235098   4.029   2.606   1.486  0.2051 -0.7039 -0.0078
 4536TIP3    H135099   4.093   2.597   1.415 -0.7882  0.2059 -1.0415
 4536TIP3    H235100   4.005   2.698   1.484 -2.4286 -1.3651 -0.7763
 4537TIP3   OH235101   2.493   1.099  14.887  0.5238  0.3530 -0.2297
 4537TIP3    H135102   2.404   1.075  14.864  0.2518  0.8330  0.3091
 4537TIP3    H235103   2.484   1.184  14.930  1.2815  0.5986 -0.5420
 4538TIP3   OH235104   3.319   1.232  16.217  0.0263  0.1258  0.0075
 4538TIP3    H135105   3.235   1.198  16.248 -0.2079  0.8088  0.1347
 4538TIP3    H235106   3.320   1.211  16.124  0.6973 -1.8687  0.4340
 4539TIP3   OH235107   1.222   3.252  13.912  0.1295  0.0935 -0.4380
 4539TIP3    H135108   1.221   3.186  13.843  0.6469  0.6478 -0.9766
 4539TIP3    H235109   1.280   3.216  13.979 -0.0116 -0.2332 -0.4892
 4540TIP3   OH235110   0.236   3.717   4.620 -0.1031  0.3936 -0.1683
 4540TIP3    H135111   0.216   3.638   4.671 -1.7174  0.6998 -0.3000
 4540TIP3    H235112   0.174   3.782   4.652 -0.3439  0.9341 -1.7081
 4541TIP3   OH235113   6.391   1.660   5.391 -0.0854 -0.1642 -0.0609
 4541TIP3    H135114   6.351   1.581   5.355  0.0511  0.0867 -0.7758
 4541TIP3    H235115   6.326   1.693   5.453  1.1719 -2.5099  2.5639
 4542TIP3   OH235116   6.678   2.772   1.423 -0.5469 -0.4390 -0.4536
 4542TIP3    H135117   6.686   2.853   1.373 -0.4009 -1.3118 -1.8802
 4542TIP3    H235118   6.636   2.798   1.505  2.8395  1.7140  0.7026
 4543TIP3   OH235119   1.587   2.607   0.035  0.2348 -0.4229  0.3118
 4543TIP3    H135120   1.551   2.539   0.092 -0.0856 -2.5861 -2.3711
 4543TIP3    H235121   1.641   2.560  -0.028  0.1588  1.8080 -1.5080
 4544TIP3   OH235122   3.231   1.775   1.361  0.2894  0.2658  0.0820
 4544TIP3    H135123   3.204   1.704   1.303 -0.1469  1.2571 -0.9472
 4544TIP3    H235124   3.170   1.771   1.434  0.2051 -0.3530 -0.0218
 4545TIP3   OH235125   0.543   1.865  14.116 -0.1753 -0.2652  0.1260
 4545TIP3    H135126   0.561   1.783  14.070  0.8284 -0.9630  1.7198
 4545TIP3    H235127   0.532   1.840  14.208 -1.3903  1.1950  0.4073
 4546TIP3   OH235128   4.668   1.758   2.606 -0.4889 -0.1988 -0.2606
 4546TIP3    H135129   4.574   1.767   2.594 -0.5364  0.0668  0.3273
 4546TIP3    H235130   4.705   1.839   2.572 -0.4888 -0.1966 -0.2551
 4547TIP3   OH235131   3.288   1.114   3.815  0.2175 -0.1779  0.0297
 4547TIP3    H135132   3.283   1.207   3.793  0.4180 -0.3369 -0.6996
 4547TIP3    H235133   3.376   1.103   3.852 -0.4286  0.2587  1.7274
 4548TIP3   OH235134   3.542   1.196   1.735  0.0104 -0.8197  0.5100
 4548TIP3    H135135   3.509   1.253   1.665  0.5626 -2.2012 -0.9020
 4548TIP3    H235136   3.465   1.147   1.764 -0.2971  0.0263  1.1642
 4549TIP3   OH235137   6.739   0.308   0.921  0.4287  0.0186 -0.0203
 4549TIP3    H135138   6.788   0.299   0.839  0.2001  0.8332 -0.2522
 4549TIP3    H235139   6.725   0.402   0.930 -0.7441 -0.1797  0.2563
 4550TIP3   OH235140   6.198   3.273   2.716 -0.2699  0.1559 -0.1271
 4550TIP3    H135141   6.229   3.183   2.717  0.1495  0.1965 -3.5420
 4550TIP3    H235142   6.103   3.265   2.710 -0.2478 -0.0597 -0.2013
 4551TIP3   OH235143   2.151   0.669   4.310 -0.0710  0.1331 -0.2590
 4551TIP3    H135144   2.238   0.700   4.335 -0.1894  2.3230 -2.3859
 4551TIP3    H235145   2.154   0.663   4.214 -2.1348 -0.1106 -0.3396
 4552TIP3   OH235146   4.853   4.473  14.862 -0.8027  0.4342 -0.1122
 4552TIP3    H135147   4.864   4.548  14.920 -1.7911  2.3172 -2.2822
 4552TIP3    H235148   4.759   4.466  14.849 -0.5413  0.6117 -2.1957
 4553TIP3   OH235149   5.812   2.749   1.411 -0.1385  0.3824 -0.0805
 4553TIP3    H135150   5.885   2.686   1.411  0.1737  0.7462 -0.5960
 4553TIP3    H235151   5.741   2.702   1.368 -0.6507 -0.4736  1.6458
 4554TIP3   OH235152   6.630   6.052  12.598 -0.7970 -0.2983  0.5168
 4554TIP3    H135153   6.540   6.036  12.569 -0.3159 -0.2979 -0.9866
 4554TIP3    H235154   6.685   6.027  12.524  0.2813  3.1794  0.0326
 4555TIP3   OH235155   3.744   0.879  16.871 -0.1651  0.4083 -0.2590
 4555TIP3    H135156   3.797   0.957  16.856 -0.1545  0.0092 -2.6307
 4555TIP3    H235157   3.797   0.806  16.838 -1.4179 -0.2142 -0.9698
 4556TIP3   OH235158   5.366   0.956   6.201  0.0382  0.2129 -0.8015
 4556TIP3    H135159   5.432   1.024   6.211 -0.8985  0.8819  1.0388
 4556TIP3    H235160   5.414   0.882   6.163  1.9639  0.5246  0.9197
 4557TIP3   OH235161   3.055   4.121   2.117 -0.3093 -0.0491  0.1931
 4557TIP3    H135162   3.128   4.158   2.066  1.2271 -2.2765  0.7044
 4557TIP3    H235163   3.035   4.038   2.073 -2.1234  0.2202  0.4667
 4558TIP3   OH235164   6.792   1.721  13.913  0.3099 -0.1721 -0.3337
 4558TIP3    H135165   6.703   1.689  13.925  0.1947  0.8766  1.8751
 4558TIP3    H235166   6.791   1.767  13.830 -1.5727  1.0063  0.3169
 4559TIP3   OH235167   2.988   0.562   4.593 -0.2025 -0.0022  0.3367
 4559TIP3    H135168   3.055   0.555   4.524 -0.2316  2.6959 -0.0475
 4559TIP3    H235169   2.906   0.568   4.545 -0.4735 -0.6595  0.7160
 4560TIP3   OH235170   5.025   3.368   2.120  0.0390  0.4404 -0.0624
 4560TIP3    H135171   5.047   3.315   2.197  0.0889  1.0301  0.3357
 4560TIP3    H235172   4.996   3.305   2.054 -0.3058 -0.0441  0.5476
 4561TIP3   OH235173   1.773   3.507   4.008 -0.4937  0.0480  0.2355
 4561TIP3    H135174   1.754   3.582   3.951  1.7050 -0.6461 -1.4853
 4561TIP3    H235175   1.809   3.546   4.088 -2.1012  0.9597  0.5259
 4562TIP3   OH235176   4.924   5.801  16.196 -0.1027 -0.1820 -0.2583
 4562TIP3    H135177   4.940   5.833  16.284 -1.0692 -0.7203  0.1250
 4562TIP3    H235178   5.004   5.755  16.171 -0.6951 -2.1384  1.2938
 4563TIP3   OH235179   6.518   5.990  13.559 -0.0032  0.2507  0.5036
 4563TIP3    H135180   6.576   6.062  13.582  0.7542 -0.1893 -0.0048
 4563TIP3    H235181   6.519   5.932  13.635  0.9046 -0.1872  0.1630
 4564TIP3   OH235182   5.921   1.676  16.034 -0.2755 -0.2782 -0.3804
 4564TIP3    H135183   5.842   1.656  16.084 -0.1771  1.2862  0.4280
 4564TIP3    H235184   5.897   1.750  15.979 -0.1988 -1.5857 -2.2395
 4565TIP3   OH235185   0.725   5.440  13.643  1.1347 -0.2528 -0.0698
 4565TIP3    H135186   0.742   5.473  13.554  0.4471  0.2659 -0.0145
 4565TIP3    H235187   0.807   5.452  13.690  0.8302  1.6473  0.0294
 4566TIP3   OH235188   1.893   4.993  15.177 -0.4260 -0.2584 -0.3504
 4566TIP3    H135189   1.864   5.084  15.186  0.9130  0.3108 -1.6177
 4566TIP3    H235190   1.820   4.941  15.212 -0.0362  1.3821  3.0695
 4567TIP3   OH235191   0.720   0.494  12.562 -0.4628 -0.2803 -0.0658
 4567TIP3    H135192   0.652   0.529  12.620  0.5990  1.5937  0.0676
 4567TIP3    H235193   0.766   0.429  12.615  0.4958  1.4208  1.2261
 4568TIP3   OH235194   1.246   0.900  11.907  0.2469 -0.3384 -0.2061
 4568TIP3    H135195   1.314   0.842  11.942 -0.2726 -0.5077  0.5286
 4568TIP3    H235196   1.290   0.985  11.898  1.4927 -1.2115 -2.8817
 4569TIP3   OH235197   5.271   2.728   0.081  0.3782 -0.4991  0.2779
 4569TIP3    H135198   5.201   2.792   0.075 -1.8305 -2.8513 -0.1283
 4569TIP3    H235199   5.351   2.780   0.085 -1.3339  2.2496  0.2388
 4570TIP3   OH235200   1.062   4.574   0.561  0.4277 -0.1645 -0.1212
 4570TIP3    H135201   1.024   4.549   0.477  1.0936  1.1175 -0.8140
 4570TIP3    H235202   1.128   4.641   0.540  1.1340 -0.3610  1.3343
 4571TIP3   OH235203   0.123   4.958  15.770 -0.3041 -0.8094  0.6718
 4571TIP3    H135204   0.181   4.973  15.695 -1.1855 -2.3578 -0.3324
 4571TIP3    H235205   0.118   4.863  15.777 -0.1544 -0.6784  2.7737
 4572TIP3   OH235206   5.554   1.377   2.351 -0.2220  0.3009 -0.1721
 4572TIP3    H135207   5.609   1.343   2.281  0.1424 -2.4202  1.3823
 4572TIP3    H235208   5.608   1.372   2.430 -0.4419  3.7837  0.3116
 4573TIP3   OH235209   5.857   3.814  15.935 -0.2102 -0.0217 -0.9063
 4573TIP3    H135210   5.783   3.782  15.883 -0.9638  1.8164 -1.0346
 4573TIP3    H235211   5.880   3.898  15.893  1.3951 -0.1618 -0.3397
 4574TIP3   OH235212   4.903   1.076   2.233 -0.2503  0.2142 -0.5865
 4574TIP3    H135213   4.866   1.047   2.150  2.9667  2.1061 -2.8144
 4574TIP3    H235214   4.960   1.005   2.260  0.9967  0.8088 -1.5901
 4575TIP3   OH235215   1.004   1.109   0.280  0.5040 -0.4334 -0.6371
 4575TIP3    H135216   1.002   1.072   0.368  0.5862  1.3524  0.1292
 4575TIP3    H235217   0.951   1.048   0.227 -2.0433  0.0678  1.2655
 4576TIP3   OH235218   1.959   5.557   6.409 -0.3077  0.7809 -0.4166
 4576TIP3    H135219   1.918   5.474   6.386 -0.6227  0.4598  1.2079
 4576TIP3    H235220   1.982   5.597   6.325 -1.0829 -0.4739 -1.2453
 4577TIP3   OH235221   4.051   5.093  13.211 -0.1035  0.0002  0.5913
 4577TIP3    H135222   4.026   5.174  13.166  1.4027 -0.3892 -1.0235
 4577TIP3    H235223   3.993   5.026  13.173  1.3860 -0.3871 -1.0572
 4578TIP3   OH235224   1.630   0.337   5.973  1.0626 -0.4420  0.2822
 4578TIP3    H135225   1.619   0.245   5.947  0.7726  0.4568 -3.0574
 4578TIP3    H235226   1.724   0.351   5.975  1.0968 -0.6260  0.0114
 4579TIP3   OH235227   2.571   4.047   5.194  0.1783 -0.3789 -0.0782
 4579TIP3    H135228   2.518   4.121   5.164 -0.5458 -0.6931  0.4078
 4579TIP3    H235229   2.532   3.971   5.151 -0.0834 -0.6742  0.6761
 4580TIP3   OH235230   1.971   2.706  12.359 -0.1378 -0.2904 -0.9692
 4580TIP3    H135231   1.972   2.683  12.266 -0.5348 -0.3072 -0.9677
 4580TIP3    H235232   1.994   2.799  12.360  0.9786 -0.5491 -1.0074
 4581TIP3   OH235233   6.184   5.065  16.492 -0.4480 -0.1550  0.3555
 4581TIP3    H135234   6.230   4.984  16.470 -0.6159 -0.1843  0.1223
 4581TIP3    H235235   6.169   5.059  16.586 -0.4122 -0.3679  0.3463
 4582TIP3   OH235236   6.568   3.830   5.126 -0.3216 -0.2019 -0.8363
 4582TIP3    H135237   6.526   3.916   5.122 -2.4775 -1.2244 -0.7366
 4582TIP3    H235238   6.499   3.770   5.154  1.8703 -1.5433  1.9203
 4583TIP3   OH235239   0.514   6.165  17.202  0.0487 -0.2346 -0.6958
 4583TIP3    H135240   0.527   6.122  17.286  1.7274 -0.8471 -1.2567
 4583TIP3    H235241   0.557   6.108  17.138  0.5058  1.2072 -1.7097
 4584TIP3   OH235242   1.615   4.547  12.327 -0.2655 -0.1382  0.3902
 4584TIP3    H135243   1.707   4.541  12.354  0.4399  1.1317 -1.6115
 4584TIP3    H235244   1.603   4.473  12.267 -0.5044 -0.2085  0.5251
 4585TIP3   OH235245   5.310   1.417  13.765  0.3558 -0.8395  0.2883
 4585TIP3    H135246   5.389   1.471  13.756  0.3260 -0.1763  3.3785
 4585TIP3    H235247   5.238   1.477  13.747  0.4764 -1.0578 -0.9772
 4586TIP3   OH235248   1.378   3.242   5.332  0.1024 -0.1160 -0.0518
 4586TIP3    H135249   1.391   3.149   5.312 -1.2677 -0.3626  0.1608
 4586TIP3    H235250   1.435   3.258   5.408 -0.0061 -0.8941  0.1971
 4587TIP3   OH235251   1.343   1.294  15.327 -0.2955  0.1299 -0.4456
 4587TIP3    H135252   1.399   1.249  15.264  0.8709  1.3363 -0.3023
 4587TIP3    H235253   1.316   1.375  15.282 -2.4464 -0.7180 -0.7422
 4588TIP3   OH235254   3.654   4.537   4.647 -0.5327  0.3466 -0.0371
 4588TIP3    H135255   3.581   4.513   4.704  0.8280 -1.5524  0.9493
 4588TIP3    H235256   3.698   4.608   4.693 -1.1056  0.7678 -0.1240
 4589TIP3   OH235257   1.955   1.964  12.883 -0.6249 -0.1079  0.6699
 4589TIP3    H135258   1.991   1.969  12.794  0.4872  0.1774  1.1276
 4589TIP3    H235259   1.917   1.876  12.888  2.4050 -1.4618  1.0506
 4590TIP3   OH235260   1.801   2.475  14.569 -1.1427 -0.1094 -0.2629
 4590TIP3    H135261   1.868   2.512  14.626 -0.0809  0.5185 -1.8913
 4590TIP3    H235262   1.812   2.380  14.579 -0.7339 -0.0085  0.3081
 4591TIP3   OH235263   0.457   6.799  17.072 -0.0224 -0.0883 -0.7172
 4591TIP3    H135264   0.440   6.887  17.038  0.5906 -0.3059 -1.6233
 4591TIP3    H235265   0.488   6.750  16.996 -0.8055 -1.2207 -0.3272
 4592TIP3   OH235266   2.625   5.036   1.307 -0.3200  0.1878  0.3901
 4592TIP3    H135267   2.709   5.045   1.353 -0.7615  1.8303  0.8769
 4592TIP3    H235268   2.587   4.955   1.342  0.2561  0.3743  1.4461
 4593TIP3   OH235269   6.367   1.529  11.611 -0.1220 -0.4578  0.2422
 4593TIP3    H135270   6.396   1.458  11.669  1.0407 -1.0296 -1.0023
 4593TIP3    H235271   6.371   1.492  11.523 -0.4674  0.8428 -0.3427
 4594TIP3   OH235272   4.352   1.412   3.805  0.3687 -0.1319 -0.1256
 4594TIP3    H135273   4.296   1.336   3.818 -1.1245  0.8439 -0.6127
 4594TIP3    H235274   4.370   1.412   3.711  1.0400 -0.3460  0.0048
 4595TIP3   OH235275   4.075   0.219  13.470  0.2301  0.1351 -0.1067
 4595TIP3    H135276   4.032   0.135  13.485 -1.3244  0.8938 -0.2114
 4595TIP3    H235277   4.164   0.196  13.445  0.1674 -1.4306  1.0895
 4596TIP3   OH235278   4.422   3.916   0.355  0.2866 -0.8197 -0.6936
 4596TIP3    H135279   4.426   4.002   0.313 -2.3043  0.4120  1.4654
 4596TIP3    H235280   4.409   3.935   0.447 -0.1808 -3.5479 -0.1589
 4597TIP3   OH235281   0.718   1.060  14.720 -0.1810  0.3624 -0.0766
 4597TIP3    H135282   0.806   1.080  14.689  0.3391 -0.9865  0.5078
 4597TIP3    H235283   0.719   1.085  14.812 -0.8467  1.6491 -0.4021
 4598TIP3   OH235284   2.767   2.232  17.252  0.0895  0.5207  0.0065
 4598TIP3    H135285   2.769   2.325  17.274 -2.2688  0.1744  1.8004
 4598TIP3    H235286   2.802   2.188  17.329 -4.2727 -0.4144  1.5763
 4599TIP3   OH235287   6.619   2.114  11.729  0.4834  0.3867 -0.3102
 4599TIP3    H135288   6.538   2.064  11.735  0.9843 -0.5855 -1.4061
 4599TIP3    H235289   6.620   2.168  11.808 -1.2501  0.4479 -0.3082
 4600TIP3   OH235290   3.207   1.905  15.994  0.2884 -0.5390  0.2029
 4600TIP3    H135291   3.123   1.935  16.030  1.0541  0.6221  1.0515
 4600TIP3    H235292   3.187   1.819  15.956 -1.2205 -0.4115  0.6680
 4601TIP3   OH235293   1.486   5.372   0.544 -0.4118 -0.6170  0.2531
 4601TIP3    H135294   1.496   5.467   0.556 -0.8694 -0.5182 -0.1610
 4601TIP3    H235295   1.433   5.363   0.465 -1.6850 -1.1957  1.1659
 4602TIP3   OH235296   1.572   5.645   3.106 -0.2579 -0.0443  0.2509
 4602TIP3    H135297   1.524   5.694   3.039  1.5829 -0.9681 -1.8062
 4602TIP3    H235298   1.657   5.688   3.111 -0.1448 -0.4005  1.5163
 4603TIP3   OH235299   1.157   0.605   4.494  0.2643 -0.3161 -0.3058
 4603TIP3    H135300   1.097   0.558   4.552 -0.5621  0.6375 -0.3571
 4603TIP3    H235301   1.170   0.690   4.537  0.2978  0.0898 -1.0998
 4604TIP3   OH235302   5.930   5.758  16.441 -0.0872 -0.4222  0.2936
 4604TIP3    H135303   6.017   5.744  16.479 -0.3662 -0.2642  1.0006
 4604TIP3    H235304   5.897   5.837  16.485 -0.9778 -1.0336  0.7518
 4605TIP3   OH235305   1.730   3.890  16.084 -0.2990  0.1321  0.4140
 4605TIP3    H135306   1.698   3.832  16.015  1.1941  0.6165 -0.6824
 4605TIP3    H235307   1.663   3.883  16.153 -1.1891 -1.2650 -0.5663
 4606TIP3   OH235308   2.262   4.478   4.042 -0.2328 -0.0474 -0.3522
 4606TIP3    H135309   2.276   4.422   3.966  0.7622 -0.7063  0.3093
 4606TIP3    H235310   2.285   4.424   4.117 -2.7647  0.0644  0.5642
 4607TIP3   OH235311   3.943   2.704  15.949  0.3643  0.0537  0.5542
 4607TIP3    H135312   3.865   2.704  16.004  1.3474  2.7847  2.0336
 4607TIP3    H235313   3.928   2.774  15.886  2.1511  1.4842  1.6698
 4608TIP3   OH235314   5.983   1.720   1.678  0.5573  0.0494 -0.6696
 4608TIP3    H135315   5.967   1.797   1.732  1.4841 -0.3663  0.2199
 4608TIP3    H235316   6.074   1.697   1.696  0.9396  0.0332 -2.5984
 4609TIP3   OH235317   1.721   2.585   1.667 -0.4265 -0.0359  0.0702
 4609TIP3    H135318   1.655   2.594   1.735 -0.2703 -0.4465  0.2850
 4609TIP3    H235319   1.706   2.497   1.632 -1.4457  0.7296 -1.4356
 4610TIP3   OH235320   2.279   2.431  17.045 -0.0658 -0.0993 -0.1019
 4610TIP3    H135321   2.373   2.427  17.067  0.3032  0.7005 -1.4851
 4610TIP3    H235322   2.274   2.495  16.975 -1.9523  1.5517  1.4777
 4611TIP3   OH235323   2.957   3.015  14.317  0.0514 -0.0124 -0.0646
 4611TIP3    H135324   2.952   2.923  14.344  0.6962 -0.0398 -0.0306
 4611TIP3    H235325   2.865   3.044  14.311 -0.2003 -1.0208 -1.3435
 4612TIP3   OH235326   2.659   1.081  17.096 -0.0590  0.2098  0.6036
 4612TIP3    H135327   2.755   1.078  17.095 -0.0625 -0.9316  1.7380
 4612TIP3    H235328   2.633   1.057  17.007  0.6773 -1.6819  0.8821
 4613TIP3   OH235329   4.046   3.510   1.937 -0.2007 -0.0413  0.2608
 4613TIP3    H135330   4.065   3.525   1.844 -1.5688  0.7676  0.1087
 4613TIP3    H235331   3.964   3.460   1.937  0.7496 -1.6383  0.9831
 4614TIP3   OH235332   6.742   4.111  12.305 -0.0789 -0.3303 -0.0347
 4614TIP3    H135333   6.688   4.034  12.320 -1.9474  0.8126 -0.6666
 4614TIP3    H235334   6.697   4.181  12.353  0.6603  0.7120 -0.8368
 4615TIP3   OH235335   5.721   5.855  11.682 -0.3105 -1.1217 -0.3722
 4615TIP3    H135336   5.801   5.903  11.705 -0.1828 -1.4682 -0.0827
 4615TIP3    H235337   5.665   5.920  11.642  0.7163 -1.1963 -1.9666
 4616TIP3   OH235338   2.775   4.678  16.097 -0.4396  0.3462  0.5543
 4616TIP3    H135339   2.829   4.650  16.171  0.5828 -0.1862 -0.3750
 4616TIP3    H235340   2.702   4.725  16.137 -0.3783 -0.7145  1.9553
 4617TIP3   OH235341   1.101   5.192   0.377 -0.0830 -0.4605  0.1641
 4617TIP3    H135342   1.028   5.222   0.433  0.8110  0.2347  0.9809
 4617TIP3    H235343   1.178   5.199   0.433  0.9832  1.1260 -1.4335
 4618TIP3   OH235344   6.574   4.567   4.207 -0.0984 -0.1544 -0.1875
 4618TIP3    H135345   6.553   4.512   4.132 -1.7870 -0.3923  0.4296
 4618TIP3    H235346   6.489   4.599   4.238  0.6347  0.5923  1.1151
 4619TIP3   OH235347   0.116   2.299   2.051 -0.0784 -0.8108 -0.0176
 4619TIP3    H135348   0.201   2.340   2.033  0.2429 -1.4794 -0.0362
 4619TIP3    H235349   0.078   2.352   2.121 -0.1509  0.1800 -0.7807
 4620TIP3   OH235350   4.189   1.643  16.402  0.6233 -0.0138  0.2740
 4620TIP3    H135351   4.166   1.649  16.495 -0.8303 -0.2026 -0.0651
 4620TIP3    H235352   4.107   1.660  16.356  1.4877  0.7370 -0.9874
 4621TIP3   OH235353   5.322   3.067   0.730  0.0522 -0.2416 -0.1427
 4621TIP3    H135354   5.415   3.057   0.753  0.3143 -2.0442 -1.8574
 4621TIP3    H235355   5.279   2.993   0.773 -0.5072  0.2806  0.1925
 4622TIP3   OH235356   1.211   1.709   3.539 -0.1224 -0.2199 -0.9998
 4622TIP3    H135357   1.173   1.707   3.451 -1.0468 -2.9347 -0.6228
 4622TIP3    H235358   1.304   1.690   3.526  0.0311  0.8471 -1.4956
 4623TIP3   OH235359   4.407   1.751  14.827 -0.3588  0.3650 -0.2770
 4623TIP3    H135360   4.473   1.820  14.821 -0.6801  0.6339 -0.7121
 4623TIP3    H235361   4.352   1.763  14.750 -0.9708  0.1996  0.1311
 4624TIP3   OH235362   3.713   2.096   1.989  0.1767 -0.4783 -0.2878
 4624TIP3    H135363   3.789   2.043   1.965 -0.1916 -1.4245  0.5974
 4624TIP3    H235364   3.748   2.185   1.998  1.2431 -0.9557  0.4301
 4625TIP3   OH235365   1.049   6.202  15.642 -0.0852  0.0595 -0.7850
 4625TIP3    H135366   1.001   6.149  15.706  1.7551  1.4657  1.8528
 4625TIP3    H235367   1.122   6.147  15.615  0.2871  0.2136 -0.1083
 4626TIP3   OH235368   3.411   3.947  14.774  0.6388 -0.6090 -0.2932
 4626TIP3    H135369   3.387   3.992  14.855  0.4971 -0.5388 -0.3734
 4626TIP3    H235370   3.442   3.861  14.802  2.0372 -0.0416 -0.0379
 4627TIP3   OH235371   3.327   2.585   1.118  0.4994 -0.1935 -0.4844
 4627TIP3    H135372   3.363   2.535   1.045  0.5638 -0.8223 -0.0223
 4627TIP3    H235373   3.268   2.648   1.077  0.7911 -0.3252 -1.1069
 4628TIP3   OH235374   5.649   1.253  13.795  0.0219  0.1634 -0.2506
 4628TIP3    H135375   5.612   1.339  13.776  0.4448  0.1553 -1.1116
 4628TIP3    H235376   5.609   1.194  13.731  0.6558 -0.0553 -0.4489
 4629TIP3   OH235377   0.841   6.302   4.456 -0.2041  0.1024  0.5037
 4629TIP3    H135378   0.818   6.386   4.415 -1.0198 -0.3976 -0.0635
 4629TIP3    H235379   0.931   6.285   4.426  0.3050  1.2278  1.3694
 4630TIP3   OH235380   4.336   6.000   0.063 -0.0329 -0.1219 -0.0437
 4630TIP3    H135381   4.405   6.021  -0.000  0.2225  0.9727  0.5711
 4630TIP3    H235382   4.254   6.023   0.018  0.0868 -0.2984 -0.3479
 4631TIP3   OH235383   3.278   6.719   3.318  0.1442 -0.2705 -0.5520
 4631TIP3    H135384   3.297   6.724   3.412  0.0402 -0.1986 -0.5342
 4631TIP3    H235385   3.332   6.647   3.286 -0.5716 -0.9484 -0.2478
 4632TIP3   OH235386   3.544   2.463  16.204 -0.2572 -0.3790 -0.3010
 4632TIP3    H135387   3.593   2.389  16.169  1.4650  0.7456 -0.3547
 4632TIP3    H235388   3.483   2.425  16.266 -0.0905 -1.9385 -1.0815
 4633TIP3   OH235389   2.532   4.955  15.514  0.2218 -0.2509 -0.0623
 4633TIP3    H135390   2.610   5.009  15.529  2.2374 -2.2943 -2.6680
 4633TIP3    H235391   2.479   5.006  15.454  0.0782  0.6443  0.8017
 4634TIP3   OH235392   0.666   3.990  15.344 -0.5470 -0.2933 -0.3635
 4634TIP3    H135393   0.630   4.062  15.395 -1.1525 -1.1819  0.4736
 4634TIP3    H235394   0.739   4.029  15.296 -0.7948  0.8450  0.1658
 4635TIP3   OH235395   1.469   2.861  14.290 -0.2242  0.5476 -0.3200
 4635TIP3    H135396   1.558   2.896  14.293 -0.3198  0.8894 -1.3427
 4635TIP3    H235397   1.414   2.933  14.320 -0.3299  0.9886 -1.5251
 4636TIP3   OH235398   3.727   6.055   1.921 -0.3317 -0.6623  0.2414
 4636TIP3    H135399   3.700   5.976   1.970 -2.4481 -0.7883 -1.0496
 4636TIP3    H235400   3.644   6.095   1.895  0.7463  1.5845  0.2034
 4637TIP3   OH235401   6.417   1.169   2.398  0.2856  0.6050 -0.6489
 4637TIP3    H135402   6.324   1.182   2.382  0.2338 -0.4960 -1.2579
 4637TIP3    H235403   6.425   1.164   2.494 -0.3208  0.3701 -0.6120
 4638TIP3   OH235404   2.886   4.496   0.493  0.3580  0.4231 -0.3473
 4638TIP3    H135405   2.795   4.516   0.517  0.6226  1.6471 -0.3404
 4638TIP3    H235406   2.896   4.530   0.404  0.4398 -0.8531 -0.8254
 4639TIP3   OH235407   1.458   5.072   1.438  0.3706 -0.5625 -0.0624
 4639TIP3    H135408   1.441   5.081   1.344 -1.0053 -1.1902  0.1143
 4639TIP3    H235409   1.553   5.061   1.444  0.5279 -0.0004 -1.3352
 4640TIP3   OH235410   3.355   3.333   4.495 -0.1534  0.0876 -0.6814
 4640TIP3    H135411   3.417   3.349   4.566 -1.8323  0.7855  0.6720
 4640TIP3    H235412   3.325   3.421   4.469 -0.8273 -0.2584 -1.0810
 4641TIP3   OH235413   4.250   1.377  10.450 -0.4282 -0.0309 -0.1697
 4641TIP3    H135414   4.231   1.320  10.524 -0.7007 -0.9012 -0.8866
 4641TIP3    H235415   4.262   1.316  10.376 -1.6973  0.8918 -1.1579
 4642TIP3   OH235416   5.781   4.057   6.251 -0.1607  0.0038  0.4866
 4642TIP3    H135417   5.696   4.015   6.261 -0.3850  0.1838 -0.5536
 4642TIP3    H235418   5.835   4.019   6.320 -1.7839  1.7350  2.7611
 4643TIP3   OH235419   2.688   0.518  11.595 -0.1701 -0.1410  0.4113
 4643TIP3    H135420   2.690   0.433  11.637 -1.5740  0.1136  1.0292
 4643TIP3    H235421   2.698   0.581  11.667 -1.0359  0.2541  0.1940
 4644TIP3   OH235422   0.409   3.725  14.024  0.0677 -0.2206  0.5707
 4644TIP3    H135423   0.430   3.810  13.986  2.0793  0.1257  2.3676
 4644TIP3    H235424   0.348   3.745  14.095 -1.9257 -0.6450 -0.9564
 4645TIP3   OH235425   5.457   3.479   5.429  0.3967  0.2386  0.3899
 4645TIP3    H135426   5.546   3.513   5.433  0.3757  0.3277  0.1004
 4645TIP3    H235427   5.468   3.384   5.442  0.7188 -0.0015 -1.4831
 4646TIP3   OH235428   2.252   1.326   5.794  0.1708  0.3113  0.0415
 4646TIP3    H135429   2.290   1.409   5.821 -0.1601  0.1197  1.1395
 4646TIP3    H235430   2.270   1.266   5.868  0.0767 -0.4821 -0.5704
 4647TIP3   OH235431   4.145   3.696  13.888 -0.3495  0.1746  0.1155
 4647TIP3    H135432   4.106   3.750  13.819  0.5440 -2.6950 -2.7871
 4647TIP3    H235433   4.070   3.663  13.937 -1.2177 -0.0327 -1.3126
 4648TIP3   OH235434   3.169   2.901  16.789 -0.0785 -0.7788  0.3846
 4648TIP3    H135435   3.243   2.955  16.762 -2.0604  0.6972 -2.2702
 4648TIP3    H235436   3.182   2.818  16.744  1.3564 -1.5383  2.1013
 4649TIP3   OH235437   4.207   4.353  17.233 -0.6734  0.3913 -0.3045
 4649TIP3    H135438   4.157   4.280  17.270  0.7333 -0.0899  0.7191
 4649TIP3    H235439   4.182   4.355  17.141 -2.1571 -0.1727  0.0709
 4650TIP3   OH235440   1.512   0.861  16.947 -0.3946  0.4624 -0.0599
 4650TIP3    H135441   1.441   0.905  16.992 -1.7031 -0.1252 -1.4991
 4650TIP3    H235442   1.509   0.771  16.980 -0.5689  0.3443 -0.3902
 4651TIP3   OH235443   3.737   4.157   3.736  0.2431  0.0559 -0.2038
 4651TIP3    H135444   3.732   4.181   3.828  0.6102  0.4096 -0.2730
 4651TIP3    H235445   3.681   4.220   3.691 -1.0435 -0.9770 -0.0710
 4652TIP3   OH235446   4.700   0.658   5.033  0.4917 -0.0150 -0.0413
 4652TIP3    H135447   4.706   0.659   4.938  0.3261  0.8546 -0.0489
 4652TIP3    H235448   4.786   0.689   5.063 -0.3616  2.4528  0.0264
 4653TIP3   OH235449   5.782   5.485   2.471 -0.3934  0.1880  0.0691
 4653TIP3    H135450   5.736   5.462   2.390 -0.7599 -0.7325  0.5363
 4653TIP3    H235451   5.875   5.483   2.447 -0.4757 -0.6733 -0.1841
 4654TIP3   OH235452   1.592   0.693  12.596  0.7326  0.4002 -0.2315
 4654TIP3    H135453   1.499   0.688  12.574  1.3708  0.7032 -3.2149
 4654TIP3    H235454   1.602   0.635  12.671 -1.2871 -2.1133 -1.8337
 4655TIP3   OH235455   1.710   5.674  13.163  0.4203  0.0607 -0.0574
 4655TIP3    H135456   1.714   5.753  13.216  2.1861  0.5706 -0.8904
 4655TIP3    H235457   1.657   5.613  13.214  1.7853  0.6571  2.1496
 4656TIP3   OH235458   1.533   4.402  12.070  0.4046  0.1445  0.4029
 4656TIP3    H135459   1.497   4.334  12.126 -2.6135  0.6732 -0.8043
 4656TIP3    H235460   1.501   4.381  11.982  0.5500  2.3259 -0.2066
 4657TIP3   OH235461   5.955   6.773   5.677  0.1996 -0.2067  0.6037
 4657TIP3    H135462   5.922   6.788   5.765 -0.1899  1.6479  0.1679
 4657TIP3    H235463   6.005   6.852   5.656 -2.2595  0.7964 -1.9547
 4658TIP3   OH235464   2.762   2.480  12.141 -0.0136  0.1063 -0.0631
 4658TIP3    H135465   2.752   2.423  12.218 -0.6743 -0.4234 -0.5339
 4658TIP3    H235466   2.704   2.442  12.076 -1.1750  1.8554 -0.0819
 4659TIP3   OH235467   6.015   4.498  16.469  0.1169  0.3592  0.0935
 4659TIP3    H135468   6.068   4.450  16.534  0.6552  0.0166 -0.5934
 4659TIP3    H235469   5.926   4.463  16.482  0.1098  0.6944  1.0237
 4660TIP3   OH235470   1.209   5.909   0.011  0.2849 -0.3382  0.6226
 4660TIP3    H135471   1.216   5.847   0.083  0.2355 -1.6215 -0.4588
 4660TIP3    H235472   1.216   5.995   0.053  2.5374 -1.0999  1.8762
 4661TIP3   OH235473   4.408   5.099   0.514  0.3119 -0.2312 -0.4872
 4661TIP3    H135474   4.437   5.043   0.585  0.5255  0.6847  0.1606
 4661TIP3    H235475   4.435   5.187   0.540 -0.8811  0.3064 -1.0157
 4662TIP3   OH235476   0.579   5.223  12.741 -0.2415 -0.2361  0.3773
 4662TIP3    H135477   0.579   5.222  12.837  0.0543 -1.1938  0.3703
 4662TIP3    H235478   0.507   5.166  12.716 -0.8141  0.6328  0.0239
 4663TIP3   OH235479   5.671   5.752  12.382 -0.0559 -0.3894 -0.0883
 4663TIP3    H135480   5.619   5.766  12.461 -0.4431 -1.5127 -0.1287
 4663TIP3    H235481   5.660   5.658  12.362 -0.6557  0.0437 -1.9516
 4664TIP3   OH235482   3.115   5.203   5.968 -0.1945 -0.7142 -0.3702
 4664TIP3    H135483   3.104   5.284   5.918  0.3919 -1.1069 -1.1494
 4664TIP3    H235484   3.066   5.218   6.048  0.0976  0.5065 -0.4025
 4665TIP3   OH235485   6.491   5.958   3.244 -0.3539  0.4617  0.1404
 4665TIP3    H135486   6.571   6.008   3.260 -0.1337 -0.0170  0.5799
 4665TIP3    H235487   6.522   5.874   3.208 -0.6821  0.4404 -0.0961
 4666TIP3   OH235488   5.093   1.012   6.343 -0.3102 -0.6158  0.0348
 4666TIP3    H135489   5.011   0.975   6.309 -1.2857  1.9842 -0.5603
 4666TIP3    H235490   5.147   1.026   6.265 -0.1764 -0.2600  0.1906
 4667TIP3   OH235491   6.542   6.106   6.718 -0.0894  0.0346 -0.3352
 4667TIP3    H135492   6.544   6.202   6.719 -0.0704  0.0342 -0.5261
 4667TIP3    H235493   6.461   6.084   6.764  0.5182  0.1233  0.8206
 4668TIP3   OH235494   2.855   5.671   4.514 -0.6607 -0.3987  0.8898
 4668TIP3    H135495   2.883   5.614   4.585 -0.5241 -1.9587 -0.3962
 4668TIP3    H235496   2.868   5.620   4.434  0.2848  1.7444 -0.3767
 4669TIP3   OH235497   2.175   6.368  13.580 -0.3770 -0.1862  0.0882
 4669TIP3    H135498   2.238   6.436  13.555  1.5769 -2.4079 -1.2246
 4669TIP3    H235499   2.094   6.395  13.538 -0.0384  2.1132  0.8228
 4670TIP3   OH235500   2.674   2.734  12.902  0.1766 -0.4393 -0.4668
 4670TIP3    H135501   2.750   2.782  12.872  0.7020  0.0450  1.5874
 4670TIP3    H235502   2.710   2.657  12.947 -0.5220  0.0562  0.9596
 4671TIP3   OH235503   1.554   2.937   6.267  0.0027 -0.3042  0.2577
 4671TIP3    H135504   1.472   2.985   6.276 -0.0127 -0.0262 -1.2787
 4671TIP3    H235505   1.580   2.917   6.357  0.4462  3.3761  1.0344
 4672TIP3   OH235506   4.816   1.314   4.231 -0.8257 -0.7072 -0.0519
 4672TIP3    H135507   4.737   1.292   4.180 -1.2875 -0.1297  0.4151
 4672TIP3    H235508   4.877   1.349   4.166 -1.4183  0.0387 -0.2105
 4673TIP3   OH235509   2.416   4.192   1.566 -0.2801  0.6867  0.1311
 4673TIP3    H135510   2.350   4.123   1.577  0.3512 -0.2876 -2.0032
 4673TIP3    H235511   2.406   4.246   1.645 -1.8098 -0.9574  1.1283
 4674TIP3   OH235512   6.787   3.529   5.390 -0.9756  0.2276 -0.2005
 4674TIP3    H135513   6.770   3.436   5.375 -0.0022  0.1318 -0.8075
 4674TIP3    H235514   6.708   3.574   5.359 -0.9877 -0.3221 -0.9752
 4675TIP3   OH235515   4.220   2.669  10.654  0.5340 -0.1382  0.2285
 4675TIP3    H135516   4.274   2.727  10.601 -0.4750  0.3834 -0.2570
 4675TIP3    H235517   4.270   2.587  10.659  0.9735  0.0420 -0.9279
 4676TIP3   OH235518   2.522   5.136  14.299  0.3018  0.0303 -0.3372
 4676TIP3    H135519   2.546   5.138  14.206  1.4894 -0.7736 -0.0669
 4676TIP3    H235520   2.484   5.222  14.316  0.4396  0.3258 -1.4764
 4677TIP3   OH235521   5.876   5.161   1.698  0.3243 -0.1997 -0.1014
 4677TIP3    H135522   5.910   5.162   1.608 -0.2463 -0.0439 -0.3229
 4677TIP3    H235523   5.832   5.246   1.707 -0.7334 -0.7297 -0.1203
 4678TIP3   OH235524   6.451   5.235   5.690  0.0172  0.3551  0.5549
 4678TIP3    H135525   6.388   5.264   5.756  0.7989  2.6379  0.3586
 4678TIP3    H235526   6.494   5.316   5.661  3.2280 -1.1559  0.8917
 4679TIP3   OH235527   5.422   3.446  17.025 -0.2433  0.0976  0.2094
 4679TIP3    H135528   5.494   3.383  17.029 -0.0928  0.1315 -1.5186
 4679TIP3    H235529   5.462   3.526  16.992 -1.4788 -0.5840 -3.1088
 4680TIP3   OH235530   1.502   2.708  11.706 -0.4846  0.1214 -0.0755
 4680TIP3    H135531   1.521   2.618  11.733  2.4304  1.1741  1.6558
 4680TIP3    H235532   1.517   2.709  11.612 -0.5002 -1.2081 -0.0954
 4681TIP3   OH235533   0.271   6.569  11.891  0.6681 -0.4012  0.0266
 4681TIP3    H135534   0.243   6.522  11.812 -3.1350  0.7583  0.5910
 4681TIP3    H235535   0.284   6.501  11.956 -0.8213 -1.0130 -0.2960
 4682TIP3   OH235536   2.734   6.665  13.045  0.0210  0.0958 -0.6268
 4682TIP3    H135537   2.806   6.622  12.998 -0.0101  0.7338 -1.2675
 4682TIP3    H235538   2.716   6.744  12.994 -0.4164  0.4929  0.1285
 4683TIP3   OH235539   0.580   6.559   4.214 -0.3059  0.8351  0.4409
 4683TIP3    H135540   0.576   6.584   4.307  1.5054  0.2998  0.6790
 4683TIP3    H235541   0.618   6.635   4.171  1.0061  0.2058  0.4853
 4684TIP3   OH235542   5.618   4.225  11.121  0.1401  0.6362  0.5155
 4684TIP3    H135543   5.542   4.195  11.169  1.2853 -2.0887  0.7249
 4684TIP3    H235544   5.676   4.149  11.118  1.5829  1.7684 -2.1638
 4685TIP3   OH235545   0.612   0.774  11.985  0.0939 -0.3432  0.5846
 4685TIP3    H135546   0.594   0.686  12.017 -1.0852 -0.2934  0.1062
 4685TIP3    H235547   0.610   0.766  11.890  1.7027 -0.1286  0.5177
 4686TIP3   OH235548   6.777   1.944   4.091  0.3703  0.0465 -0.0040
 4686TIP3    H135549   6.731   1.914   4.170  0.1448 -1.5559 -0.7237
 4686TIP3    H235550   6.870   1.939   4.115  0.3182 -0.8264  0.0323
 4687TIP3   OH235551   2.362   2.639   4.447  0.4072  0.4283  0.5554
 4687TIP3    H135552   2.309   2.601   4.377 -0.3763  1.5031  0.5469
 4687TIP3    H235553   2.452   2.614   4.425  0.0753  0.0052 -0.3563
 4688TIP3   OH235554   0.175   0.809   6.012  0.1106  0.2002 -0.3305
 4688TIP3    H135555   0.263   0.827   6.045  0.2008 -1.1759  0.1791
 4688TIP3    H235556   0.117   0.849   6.077  0.3133 -1.2364  0.7424
 4689TIP3   OH235557   0.401   1.185  13.800 -0.4452 -0.2677 -0.0051
 4689TIP3    H135558   0.404   1.224  13.888 -2.3532 -1.3825  0.5905
 4689TIP3    H235559   0.330   1.232  13.756  0.7934  0.5833 -1.1170
 4690TIP3   OH235560   0.102   0.320  11.576 -0.2596 -0.0585 -0.5600
 4690TIP3    H135561   0.052   0.401  11.587  0.1958 -0.0531  1.5776
 4690TIP3    H235562   0.163   0.339  11.504  0.0118  1.5898  0.0839
 4691TIP3   OH235563   6.752   2.754   4.776 -0.5106 -0.8134 -0.0725
 4691TIP3    H135564   6.769   2.744   4.870 -0.5231  0.6431  0.0950
 4691TIP3    H235565   6.658   2.770   4.771  0.0645  3.2990  0.0754
 4692TIP3   OH235566   2.768   4.110  14.758  0.3104 -0.1895 -0.0135
 4692TIP3    H135567   2.696   4.132  14.699  0.2723 -0.8606 -0.2266
 4692TIP3    H235568   2.729   4.051  14.822  0.6262 -0.4131 -0.0239
 4693TIP3   OH235569   5.099   2.081   6.235  0.6320  0.4285 -0.0868
 4693TIP3    H135570   5.026   2.052   6.180 -0.1425 -0.4466  1.3659
 4693TIP3    H235571   5.061   2.088   6.322  2.1747  0.5171  0.5828
 4694TIP3   OH235572   1.391   4.874  15.377  0.3253  0.5774 -0.3088
 4694TIP3    H135573   1.351   4.944  15.324  0.5762 -1.1742 -2.8941
 4694TIP3    H235574   1.401   4.801  15.316  3.3440 -0.5432  1.4561
 4695TIP3   OH235575   6.305   6.083   0.877 -0.7092 -0.4325 -0.2148
 4695TIP3    H135576   6.308   6.153   0.941 -2.4832  0.9287 -1.5934
 4695TIP3    H235577   6.290   6.127   0.794  0.9849 -2.2223 -1.5011
 4696TIP3   OH235578   3.241   2.823  16.247 -0.3645 -0.8373 -0.6052
 4696TIP3    H135579   3.299   2.774  16.188 -0.7486 -0.3613 -1.3815
 4696TIP3    H235580   3.274   2.802  16.334 -0.5469 -2.5053 -0.9226
 4697TIP3   OH235581   4.700   2.981  14.985 -0.0108 -0.3220  0.1528
 4697TIP3    H135582   4.710   2.978  15.080  0.3682 -0.7797  0.0992
 4697TIP3    H235583   4.688   2.890  14.959 -2.2919  0.0041 -0.0156
 4698TIP3   OH235584   2.524   0.588  16.922  0.0237 -0.1064  0.5481
 4698TIP3    H135585   2.495   0.655  16.861  0.9952 -0.7126 -0.6013
 4698TIP3    H235586   2.598   0.546  16.878 -1.2026 -2.6092  0.7763
 4699TIP3   OH235587   3.744   1.743   3.223  0.5558 -0.2924 -0.4564
 4699TIP3    H135588   3.651   1.741   3.203  0.4220 -0.1905  0.1594
 4699TIP3    H235589   3.786   1.712   3.143 -0.0266 -0.7117 -0.6036
 4700TIP3   OH235590   4.624   1.835   5.851  0.4335 -0.3130 -0.0419
 4700TIP3    H135591   4.623   1.853   5.945 -2.3505 -0.0845 -0.0757
 4700TIP3    H235592   4.601   1.742   5.845  2.6477 -0.8604 -0.4312
 4701TIP3   OH235593   5.267   5.541  15.745  0.0925 -0.0976 -0.8129
 4701TIP3    H135594   5.298   5.557  15.834 -0.0273  1.0172 -0.9571
 4701TIP3    H235595   5.286   5.449  15.728 -3.0869 -1.2609  1.6231
 4702TIP3   OH235596   6.438   4.044   5.423  0.0650  0.3051  0.3408
 4702TIP3    H135597   6.440   4.041   5.327 -0.6470  0.3738  0.3243
 4702TIP3    H235598   6.518   4.091   5.447  0.1707  0.4151 -0.2226
 4703TIP3   OH235599   4.076   3.025   1.892  0.0663 -0.0171  0.1333
 4703TIP3    H135600   4.127   2.954   1.853 -0.7217 -0.2325 -0.5206
 4703TIP3    H235601   4.135   3.065   1.956  1.5956  0.7220 -1.6923
 4704TIP3   OH235602   6.162   3.141   2.442 -0.5119  0.2181 -0.5296
 4704TIP3    H135603   6.211   3.211   2.484 -1.5484  0.9050 -0.4631
 4704TIP3    H235604   6.088   3.125   2.500 -0.9593 -0.0714 -1.1735
 4705TIP3   OH235605   3.889   6.665  15.653 -0.4114 -0.1848 -0.1792
 4705TIP3    H135606   3.856   6.659  15.743  1.9930 -1.7526  0.6272
 4705TIP3    H235607   3.893   6.575  15.623  1.2635  0.1454 -0.9597
 4706TIP3   OH235608   6.403   5.507   3.347 -0.2285  0.0772  0.0418
 4706TIP3    H135609   6.461   5.487   3.273  0.0795  0.3721  0.2020
 4706TIP3    H235610   6.361   5.589   3.323 -0.7293 -0.2370 -0.1611
 4707TIP3   OH235611   0.978   5.527   1.851  0.2397 -0.4614  0.2095
 4707TIP3    H135612   0.946   5.560   1.935 -3.7756 -2.3218 -0.4476
 4707TIP3    H235613   0.979   5.603   1.793 -0.1251  0.2225  1.1055
 4708TIP3   OH235614   5.609   0.944  11.777 -0.0269 -0.5517  0.2245
 4708TIP3    H135615   5.630   1.027  11.819 -0.2545 -0.9948  1.2194
 4708TIP3    H235616   5.693   0.906  11.753  0.0732  0.0147 -0.3401
 4709TIP3   OH235617   4.657   4.595   1.388  0.7579 -0.2867 -0.3815
 4709TIP3    H135618   4.700   4.673   1.352  1.0360  0.5471  1.6387
 4709TIP3    H235619   4.729   4.542   1.423  0.3911 -0.3347  0.3105
 4710TIP3   OH235620   0.847   5.679  16.731  0.5732 -0.5170 -0.1040
 4710TIP3    H135621   0.916   5.697  16.668  1.4127  1.4723  1.3216
 4710TIP3    H235622   0.825   5.587  16.717  1.4796 -0.4000 -2.5260
 4711TIP3   OH235623   1.245   2.022  11.927 -0.1299 -0.3214  0.4345
 4711TIP3    H135624   1.193   2.051  12.002 -1.2876 -1.3673  0.0754
 4711TIP3    H235625   1.181   2.017  11.855  1.2742  2.2106 -1.0373
 4712TIP3   OH235626   4.975   1.378   1.468 -0.2009  0.3267  0.0911
 4712TIP3    H135627   5.042   1.391   1.535 -1.3613  0.8283  1.1740
 4712TIP3    H235628   4.905   1.330   1.514 -1.6885  2.0663 -0.3337
 4713TIP3   OH235629   2.784   6.718  12.091 -0.3702 -0.1351  0.3441
 4713TIP3    H135630   2.751   6.713  12.180  0.0726 -3.1750  0.3803
 4713TIP3    H235631   2.713   6.683  12.037 -0.4167  1.1565 -0.4626
 4714TIP3   OH235632   1.811   1.711   5.513 -0.1644  0.2538 -0.6098
 4714TIP3    H135633   1.831   1.686   5.422  0.0632 -2.1831  0.0664
 4714TIP3    H235634   1.716   1.722   5.515 -0.1721  0.2912 -1.1423
 4715TIP3   OH235635   3.514   6.469   3.577 -0.2897  0.5912 -0.3310
 4715TIP3    H135636   3.486   6.384   3.543  0.3074  1.2829 -2.6515
 4715TIP3    H235637   3.440   6.500   3.628 -0.6148 -1.1995  0.3148
 4716TIP3   OH235638   3.502   1.152  16.963  0.5388 -0.0133 -0.0098
 4716TIP3    H135639   3.509   1.070  17.011 -0.2582  0.5446  1.0581
 4716TIP3    H235640   3.556   1.214  17.012 -1.7570  1.0443  1.2455
 4717TIP3   OH235641   4.784   4.286  15.131  0.1930  0.6133  0.6482
 4717TIP3    H135642   4.873   4.273  15.097  0.5890  1.4098  1.3591
 4717TIP3    H235643   4.752   4.198  15.150  0.2801  0.2089 -0.9826
 4718TIP3   OH235644   3.879   3.981   5.564  0.4758  0.2262  0.0145
 4718TIP3    H135645   3.833   3.933   5.633  1.1392 -0.3633  0.0441
 4718TIP3    H235646   3.812   3.997   5.497  0.4747 -1.5714 -0.4366
 4719TIP3   OH235647   1.883   3.702   1.407 -0.5915  0.1284  0.4437
 4719TIP3    H135648   1.921   3.656   1.482 -0.2273  0.9496  0.7687
 4719TIP3    H235649   1.888   3.638   1.335 -0.7889 -0.6029  1.0634
 4720TIP3   OH235650   1.548   4.729  12.690 -0.3701  0.0320  0.7882
 4720TIP3    H135651   1.580   4.792  12.626  0.3010 -0.6187  0.4773
 4720TIP3    H235652   1.522   4.783  12.765  1.6984  0.5860  1.1524
 4721TIP3   OH235653   4.904   3.342   0.325 -0.4279 -0.1410  0.6047
 4721TIP3    H135654   4.832   3.402   0.306  0.7747  0.9910 -0.5296
 4721TIP3    H235655   4.893   3.271   0.261 -1.2487 -0.6285  1.2674
 4722TIP3   OH235656   0.129   0.796  11.664  0.2386  0.1680 -0.1030
 4722TIP3    H135657   0.199   0.798  11.729 -1.5733  1.0123  1.9072
 4722TIP3    H235658   0.095   0.886  11.664 -1.6761 -0.5354 -0.0658
 4723TIP3   OH235659   0.017   5.209   4.842 -0.3132 -0.4350  0.1265
 4723TIP3    H135660   0.058   5.137   4.794  0.5605 -0.8517  1.4689
 4723TIP3    H235661  -0.045   5.165   4.901 -2.7341  0.1816 -1.8830
 4724TIP3   OH235662   1.736   1.690   4.073 -1.1976 -0.1242 -0.1017
 4724TIP3    H135663   1.793   1.662   4.001 -0.1214  0.2782  0.5781
 4724TIP3    H235664   1.654   1.715   4.030 -0.2195  1.0975 -1.3177
 4725TIP3   OH235665   3.852   0.341  11.614 -0.2252  0.2641 -0.0658
 4725TIP3    H135666   3.918   0.394  11.570 -2.1435  1.2139 -1.8844
 4725TIP3    H235667   3.768   0.377  11.585 -1.5657 -1.5692  1.3617
 4726TIP3   OH235668   6.216   0.350  14.052  0.4976 -0.4752 -0.0732
 4726TIP3    H135669   6.206   0.408  13.977  0.8831  0.5116  0.6311
 4726TIP3    H235670   6.247   0.407  14.123  1.2224 -1.5935  0.5299
 4727TIP3   OH235671   0.695   4.591  17.255  0.5001  0.7287  0.0529
 4727TIP3    H135672   0.612   4.592  17.207  0.2051  2.0097  0.5638
 4727TIP3    H235673   0.720   4.499  17.257 -0.7350  0.3635 -0.4185
 4728TIP3   OH235674   0.579   6.423   1.954  0.1362  0.0105  0.1167
 4728TIP3    H135675   0.662   6.470   1.953 -1.0282  2.2032  2.0351
 4728TIP3    H235676   0.535   6.450   1.873  0.0696  1.1290  0.5247
 4729TIP3   OH235677   0.087   4.349   4.231  0.1627  0.3910 -0.1453
 4729TIP3    H135678   0.002   4.332   4.272  0.2194  1.9890  0.6497
 4729TIP3    H235679   0.073   4.428   4.179  1.2511  0.8068  0.2034
 4730TIP3   OH235680   3.553   1.798   4.040  1.0295 -0.0745  0.3083
 4730TIP3    H135681   3.623   1.733   4.034  0.4656 -0.4961 -2.0890
 4730TIP3    H235682   3.474   1.747   4.059  1.1287  0.2768  1.7549
 4731TIP3   OH235683   4.704   6.038  13.328  0.6149  0.1069  0.2450
 4731TIP3    H135684   4.751   6.121  13.336  2.4867 -0.8472 -0.4732
 4731TIP3    H235685   4.617   6.062  13.294  1.3298  1.7107 -0.4928
 4732TIP3   OH235686   3.976   0.125   2.458  0.1397  0.4978  0.4757
 4732TIP3    H135687   3.993   0.038   2.493  0.4782  0.3710  0.0087
 4732TIP3    H235688   4.061   0.169   2.463  0.2194  0.4370 -0.2888
 4733TIP3   OH235689   5.177   3.319   0.824 -0.1683  0.5087 -0.0648
 4733TIP3    H135690   5.211   3.240   0.781  0.2565  0.8439 -0.3504
 4733TIP3    H235691   5.129   3.365   0.756 -0.7281  0.3159  0.1975
 4734TIP3   OH235692   2.913   1.012   2.059  0.3798  0.1505 -0.4787
 4734TIP3    H135693   2.970   0.936   2.049 -0.0765 -0.3096  0.3615
 4734TIP3    H235694   2.843   0.982   2.117 -0.1049  1.0481 -0.5903
 4735TIP3   OH235695   0.890   2.536   1.518 -1.0117  0.0997  0.2099
 4735TIP3    H135696   0.943   2.472   1.470  0.7965  1.9189 -0.2495
 4735TIP3    H235697   0.806   2.537   1.472  0.2125  0.7782 -2.0764
 4736TIP3   OH235698   2.759   2.410  15.081  0.3139 -0.2186  0.1377
 4736TIP3    H135699   2.826   2.474  15.104 -0.4645  0.6026  0.1495
 4736TIP3    H235700   2.742   2.361  15.162 -1.3751  1.6925  0.9902
 4737TIP3   OH235701   2.288   6.375  14.459 -0.0186  0.4865 -0.1497
 4737TIP3    H135702   2.320   6.424  14.383  0.6271 -2.3739 -1.8066
 4737TIP3    H235703   2.368   6.343  14.502 -0.4490 -1.1144 -0.4984
 4738TIP3   OH235704   2.368   4.413   0.774  0.3238  0.0484 -0.3437
 4738TIP3    H135705   2.367   4.501   0.812 -0.3650  0.3936 -1.1526
 4738TIP3    H235706   2.413   4.360   0.839  1.1756  1.0983 -0.0505
 4739TIP3   OH235707   6.393   5.016  16.201 -0.3981  0.5197 -0.3583
 4739TIP3    H135708   6.400   4.921  16.203  3.2150  0.6905 -0.5459
 4739TIP3    H235709   6.358   5.037  16.115 -2.0570 -0.6289  0.0132
 4740TIP3   OH235710   5.945   2.655   3.329 -0.4352 -0.0543 -0.1852
 4740TIP3    H135711   5.917   2.725   3.388  1.4873 -2.1379  3.3870
 4740TIP3    H235712   5.981   2.701   3.253 -0.3492  2.8302  1.5041
 4741TIP3   OH235713   0.973   1.267   1.295  0.3714 -0.6665  0.3704
 4741TIP3    H135714   1.026   1.252   1.217 -0.8255 -0.2309 -0.5438
 4741TIP3    H235715   0.980   1.361   1.311 -0.0526 -0.6210  0.2941
 4742TIP3   OH235716   1.272   3.741  14.975 -0.0773  0.1416  0.8029
 4742TIP3    H135717   1.209   3.691  14.924 -0.6691  0.6787  0.9986
 4742TIP3    H235718   1.347   3.682  14.986 -0.0072 -0.0459 -0.5454
 4743TIP3   OH235719   0.512   4.261   3.279 -0.3972 -0.0367  0.0110
 4743TIP3    H135720   0.592   4.312   3.270  1.1070 -2.1810  0.5331
 4743TIP3    H235721   0.542   4.170   3.275 -2.5547 -0.9021  2.0649
 4744TIP3   OH235722   2.631   1.517  12.594 -0.3405 -0.1302  0.3672
 4744TIP3    H135723   2.587   1.455  12.536 -2.2095  3.7078 -2.6054
 4744TIP3    H235724   2.563   1.541  12.657 -0.4172  0.6457  0.0006
 4745TIP3   OH235725   6.240   2.213   1.816  0.1724 -0.1153  0.0254
 4745TIP3    H135726   6.240   2.266   1.736 -2.6033  0.6028  0.4613
 4745TIP3    H235727   6.219   2.124   1.787 -2.5894  0.4744  0.1114
 4746TIP3   OH235728   4.782   0.769  16.247  0.0311  0.5608  0.4504
 4746TIP3    H135729   4.755   0.732  16.331 -1.3665 -0.6491 -0.5187
 4746TIP3    H235730   4.756   0.704  16.182 -1.9092  2.9465 -1.2327
 4747TIP3   OH235731   1.574   2.092   5.882 -0.1425 -0.1580  0.5066
 4747TIP3    H135732   1.528   2.093   5.965  1.4851 -1.8707  1.4509
 4747TIP3    H235733   1.632   2.016   5.887 -0.8017 -0.9388 -2.6156
 4748TIP3   OH235734   2.362   5.194   1.975 -0.3702  0.1852 -0.1172
 4748TIP3    H135735   2.402   5.111   1.951  1.1956  1.4127 -1.9682
 4748TIP3    H235736   2.307   5.174   2.051  1.5155 -2.1335  0.7011
 4749TIP3   OH235737   6.384   6.471  10.407 -0.1702 -0.2960  0.2997
 4749TIP3    H135738   6.442   6.397  10.428 -1.7160 -1.6157 -0.0450
 4749TIP3    H235739   6.365   6.461  10.314  1.3692  1.8055 -0.2646
 4750TIP3   OH235740   4.386   1.785   2.808  1.1146  0.1042  0.3310
 4750TIP3    H135741   4.330   1.710   2.787  0.2209  0.0089  2.8950
 4750TIP3    H235742   4.371   1.847   2.737  0.1485 -1.2356 -0.6532
 4751TIP3   OH235743   6.495   6.125   4.904 -0.1883 -1.0183  0.8600
 4751TIP3    H135744   6.429   6.151   4.840  1.5641 -0.7706 -0.8898
 4751TIP3    H235745   6.473   6.174   4.983 -1.3234  0.0532 -0.1122
 4752TIP3   OH235746   2.892   5.079   5.267 -0.1095  0.3591 -0.0403
 4752TIP3    H135747   2.818   5.019   5.267  0.5024 -0.4050 -0.3586
 4752TIP3    H235748   2.943   5.055   5.344 -0.3977  1.1419  0.3974
 4753TIP3   OH235749   1.036   2.574   5.962  0.2009 -0.0708  0.2050
 4753TIP3    H135750   1.060   2.554   6.053 -1.0666 -2.7710 -0.0278
 4753TIP3    H235751   0.977   2.650   5.970  1.1765  0.5780  1.5088
 4754TIP3   OH235752   3.864   2.338   6.735 -0.1350 -0.2533 -0.0899
 4754TIP3    H135753   3.770   2.323   6.734 -0.1254 -0.3008 -0.1811
 4754TIP3    H235754   3.900   2.264   6.783 -0.1757 -0.0710  0.2266
 4755TIP3   OH235755   3.805   5.169   6.823 -0.4780 -0.3894  0.1691
 4755TIP3    H135756   3.761   5.226   6.760  0.2829 -0.5296 -0.4980
 4755TIP3    H235757   3.741   5.156   6.893 -0.7642  1.0238  0.1693
 4756TIP3   OH235758   1.079   2.233  11.633  0.2209  0.8758  0.5705
 4756TIP3    H135759   1.173   2.236  11.652  0.5009 -0.3778 -0.5167
 4756TIP3    H235760   1.074   2.194  11.545 -1.2123  2.8374 -0.2453
 4757TIP3   OH235761   4.630   1.833  13.057  0.0342 -0.2936  0.5345
 4757TIP3    H135762   4.540   1.841  13.027  0.1932 -0.5290 -0.0281
 4757TIP3    H235763   4.633   1.750  13.104 -0.5386  0.7189  2.4001
 4758TIP3   OH235764   6.231   1.282   5.980  0.2400 -0.2325  0.1359
 4758TIP3    H135765   6.152   1.282   6.034 -0.1273 -0.2722 -0.3984
 4758TIP3    H235766   6.302   1.260   6.041 -0.0054  0.8895  0.8387
 4759TIP3   OH235767   4.215   3.111  14.721  0.4515  0.0193  0.6505
 4759TIP3    H135768   4.251   3.023  14.715 -0.2865 -0.3490  1.4238
 4759TIP3    H235769   4.284   3.168  14.690  2.4656 -0.4878  3.8997
 4760TIP3   OH235770   4.416   1.091  11.718  0.4327 -0.2958 -0.1284
 4760TIP3    H135771   4.327   1.123  11.705  0.5009  0.1792  0.5052
 4760TIP3    H235772   4.408   1.025  11.787  0.7143  0.5076  0.6859
 4761TIP3   OH235773   5.967   6.023   4.480  0.6246  0.7773 -0.1858
 4761TIP3    H135774   6.055   5.987   4.478  1.0055  1.6698 -0.0059
 4761TIP3    H235775   5.978   6.114   4.451 -0.4496  0.4648 -1.6081
 4762TIP3   OH235776   4.471   6.345  11.882  0.4170 -0.0880  0.2317
 4762TIP3    H135777   4.437   6.426  11.919  0.2694 -1.3336  3.0309
 4762TIP3    H235778   4.397   6.305  11.836  0.3266  1.0515 -0.6155
 4763TIP3   OH235779   0.758   3.724  12.283 -0.1201  0.0566  1.4149
 4763TIP3    H135780   0.762   3.678  12.199 -0.6431 -1.4321  2.1860
 4763TIP3    H235781   0.848   3.726  12.314  0.0104  0.2201  1.0216
 4764TIP3   OH235782   5.291   3.026   2.873 -0.1705 -0.2873 -0.5187
 4764TIP3    H135783   5.250   3.109   2.849 -0.5471 -0.4225 -0.3528
 4764TIP3    H235784   5.239   2.960   2.828 -1.1571 -0.5739  1.0206
 4765TIP3   OH235785   5.681   3.304   0.519 -0.0944 -0.0753  0.2649
 4765TIP3    H135786   5.707   3.378   0.574 -1.2398  0.2108  0.4296
 4765TIP3    H235787   5.592   3.323   0.493  0.1786 -0.5927 -1.0794
 4766TIP3   OH235788   5.836   2.558  14.705 -0.6990  0.4404  0.3338
 4766TIP3    H135789   5.869   2.469  14.692 -0.6545  0.3132  1.2614
 4766TIP3    H235790   5.745   2.555  14.675 -0.9736 -0.1536  1.2181
 4767TIP3   OH235791   1.567   0.145   0.593  0.0756  0.1896 -0.4632
 4767TIP3    H135792   1.589   0.205   0.664 -2.5673 -0.9058  1.3127
 4767TIP3    H235793   1.549   0.062   0.635 -0.7974 -0.6825 -2.4737
 4768TIP3   OH235794   5.774   3.587   2.093  0.0732  0.4818  0.1891
 4768TIP3    H135795   5.748   3.522   2.158 -0.4402  1.5135  1.0385
 4768TIP3    H235796   5.749   3.548   2.009 -0.3894 -0.3315  0.6968
 4769TIP3   OH235797   1.685   6.184  10.665  0.1595  0.2589 -0.2244
 4769TIP3    H135798   1.613   6.123  10.650  1.8360 -1.4301 -1.7415
 4769TIP3    H235799   1.688   6.237  10.585  1.2703 -0.4321 -0.6634
 4770TIP3   OH235800   0.796   2.546   1.766  0.2581 -0.2201 -0.4728
 4770TIP3    H135801   0.835   2.515   1.684  1.1558 -2.9311  0.9178
 4770TIP3    H235802   0.715   2.590   1.739  1.8948  1.3302 -3.0055
 4771TIP3   OH235803   3.708   0.078  13.059  0.5303  0.6501  0.3112
 4771TIP3    H135804   3.706   0.157  13.113  0.4502 -1.1660  3.0393
 4771TIP3    H235805   3.620   0.073  13.021  1.0391  2.7321 -1.2368
 4772TIP3   OH235806   4.376   1.448   4.358  0.1718  1.0034 -0.3563
 4772TIP3    H135807   4.430   1.478   4.431  0.0540  1.7250 -0.5569
 4772TIP3    H235808   4.416   1.365   4.330 -0.7692 -0.1248  1.5709
 4773TIP3   OH235809   4.102   2.673   1.738 -0.5489 -0.3104 -0.0485
 4773TIP3    H135810   4.090   2.626   1.656  1.0384  0.0039 -0.4655
 4773TIP3    H235811   4.104   2.604   1.805  3.2314 -1.0447 -0.7942
 4774TIP3   OH235812   2.073   0.381  16.519  0.1445 -0.7389 -0.2164
 4774TIP3    H135813   2.084   0.291  16.488  1.3691 -0.4774 -0.5816
 4774TIP3    H235814   2.140   0.391  16.586  1.8428  0.7151 -2.0490
 4775TIP3   OH235815   4.925   5.735  12.593 -0.4657 -0.2354 -0.8869
 4775TIP3    H135816   4.965   5.716  12.508  0.2438  0.2349 -0.6631
 4775TIP3    H235817   4.964   5.818  12.620  1.5950 -1.8214  1.2615
 4776TIP3   OH235818   6.401   4.054  12.401  0.5321  0.0929  0.0045
 4776TIP3    H135819   6.413   3.962  12.424  0.5242 -0.2039 -1.1483
 4776TIP3    H235820   6.458   4.101  12.461  0.9284 -0.7097  0.2609
 4777TIP3   OH235821   5.173   6.131   3.908  0.3669  0.5244  0.0752
 4777TIP3    H135822   5.114   6.183   3.963 -0.0752  0.0602  0.0444
 4777TIP3    H235823   5.126   6.050   3.893  2.0604 -0.9417  2.2461
 4778TIP3   OH235824   5.533   4.935  12.263  0.0388  0.0640 -0.6441
 4778TIP3    H135825   5.472   4.937  12.190 -1.0681 -0.5365  0.2501
 4778TIP3    H235826   5.493   4.875  12.326  1.3123  0.0435  0.1610
 4779TIP3   OH235827   3.672   2.519   1.151 -0.2914  0.2083 -0.5686
 4779TIP3    H135828   3.713   2.487   1.070  0.7889 -1.7217  0.6866
 4779TIP3    H235829   3.605   2.454   1.171 -2.0550  1.8425 -1.0531
 4780TIP3   OH235830   1.784   3.982  17.271  0.3113 -0.1116  0.0550
 4780TIP3    H135831   1.706   4.008  17.222  0.3420 -0.8018 -0.3642
 4780TIP3    H235832   1.837   4.061  17.276 -0.8859  0.6266  1.2296
 4781TIP3   OH235833   2.995   2.314  16.138 -0.5019  0.1012  0.0429
 4781TIP3    H135834   3.044   2.396  16.141 -0.3517 -0.0046  0.5068
 4781TIP3    H235835   2.903   2.340  16.134 -0.4403  0.2928 -0.1270
 4782TIP3   OH235836   6.418   2.822   2.385 -0.9621  0.8153  0.9712
 4782TIP3    H135837   6.490   2.882   2.366  0.0376 -0.3890  0.8871
 4782TIP3    H235838   6.452   2.736   2.362 -2.1360  0.1300  1.7479
 4783TIP3   OH235839   1.329   0.257   6.022 -0.2884 -0.0487 -0.2722
 4783TIP3    H135840   1.351   0.215   5.940  2.4673 -1.2479  1.0321
 4783TIP3    H235841   1.411   0.296   6.053 -0.9936 -0.5786  2.4421
 4784TIP3   OH235842   2.438   1.026   3.155  0.4707  0.0324 -0.2572
 4784TIP3    H135843   2.492   0.952   3.128 -1.6223 -2.2748  1.7231
 4784TIP3    H235844   2.436   1.021   3.250 -0.0159  2.4417 -0.1048
 4785TIP3   OH235845   1.459   6.136   3.605  0.1215  0.1149 -0.3751
 4785TIP3    H135846   1.496   6.048   3.603 -0.8493 -0.3116  0.1507
 4785TIP3    H235847   1.466   6.163   3.696  0.2476  0.5095 -0.5018
 4786TIP3   OH235848   2.663   6.383  15.542 -0.0095  0.2343  0.1970
 4786TIP3    H135849   2.629   6.391  15.453 -0.8059  0.7437  0.5444
 4786TIP3    H235850   2.624   6.457  15.589 -1.2044 -1.2117  1.4817
 4787TIP3   OH235851   6.241   0.205   4.126  0.5617 -0.3822  0.0289
 4787TIP3    H135852   6.190   0.144   4.179 -1.6669  1.2382 -0.1864
 4787TIP3    H235853   6.308   0.151   4.085  0.5730 -2.1384  2.2631
 4788TIP3   OH235854   5.323   1.965   5.333  0.8389 -0.1909  0.1183
 4788TIP3    H135855   5.303   2.002   5.247 -0.6731  0.8735  0.9047
 4788TIP3    H235856   5.241   1.972   5.382  1.6146 -1.0106  1.5681
 4789TIP3   OH235857   0.178   4.590   4.105 -0.3946  0.0754 -0.0668
 4789TIP3    H135858   0.195   4.682   4.126  1.7605  0.1811 -2.0371
 4789TIP3    H235859   0.256   4.544   4.136 -1.9133 -1.2835  1.8585
 4790TIP3   OH235860   3.406   5.002  11.857 -0.2862  0.5681  0.1918
 4790TIP3    H135861   3.375   4.939  11.792 -0.7776 -0.3704  1.3007
 4790TIP3    H235862   3.348   5.077  11.848 -1.7467 -0.4363  0.9955
 4791TIP3   OH235863   5.347   4.325   5.410  0.3588 -0.5599 -0.2103
 4791TIP3    H135864   5.368   4.406   5.456 -0.8232  0.2933 -1.1514
 4791TIP3    H235865   5.309   4.268   5.477  2.3288 -0.7989  0.7165
 4792TIP3   OH235866   0.717   3.044   4.217  0.7838  0.4627 -0.4898
 4792TIP3    H135867   0.783   2.994   4.170 -0.5897  0.8633 -2.9748
 4792TIP3    H235868   0.669   2.978   4.268  2.1877 -0.0167  0.2246
 4793TIP3   OH235869   3.080   2.658   1.859 -0.5634  0.1241 -0.0459
 4793TIP3    H135870   3.115   2.613   1.936 -0.0658 -0.1930 -0.4527
 4793TIP3    H235871   3.107   2.749   1.871 -0.9883  0.1933  0.4406
 4794TIP3   OH235872   0.661   4.537  12.055  0.5323 -0.5599  0.3122
 4794TIP3    H135873   0.664   4.447  12.025  0.9668 -0.8941  1.3382
 4794TIP3    H235874   0.586   4.539  12.115  1.4708 -0.6278  1.5051
 4795TIP3   OH235875   6.455   5.621   4.270  0.3550  0.2144 -0.2174
 4795TIP3    H135876   6.371   5.614   4.224  0.7484 -0.2755 -0.8641
 4795TIP3    H235877   6.432   5.660   4.355 -0.3851  1.0442 -0.7873
 4796TIP3   OH235878   5.815   4.110   2.645  0.0663 -0.0105  0.1650
 4796TIP3    H135879   5.812   4.181   2.709  0.2575  0.4701 -0.3540
 4796TIP3    H235880   5.878   4.140   2.580  0.6578 -0.9655  0.3065
 4797TIP3   OH235881   2.499   5.401   3.079  0.4147  0.2625  0.1680
 4797TIP3    H135882   2.534   5.440   3.159  0.7296  1.4834 -0.5524
 4797TIP3    H235883   2.404   5.412   3.087  0.5464  2.0743 -0.4609
 4798TIP3   OH235884   4.069   3.366  16.994  0.2149  0.1833 -0.0356
 4798TIP3    H135885   3.999   3.324  16.945 -0.0643  0.2280  0.3192
 4798TIP3    H235886   4.046   3.459  16.993 -1.3031 -0.1086  2.5469
 4799TIP3   OH235887   5.470   1.654   6.047  0.0764 -0.0127  0.4483
 4799TIP3    H135888   5.550   1.601   6.049  0.1675  0.0649 -0.8194
 4799TIP3    H235889   5.501   1.743   6.029 -0.2979  0.0058 -0.1059
 4800TIP3   OH235890   6.226   3.769  11.523  0.5885  0.2308  0.4534
 4800TIP3    H135891   6.243   3.679  11.550  4.2312  0.6690 -0.2296
 4800TIP3    H235892   6.188   3.810  11.601 -0.8294 -1.7772  0.8673
 4801TIP3   OH235893   5.637   6.398  13.058 -0.2927  0.1165  1.0800
 4801TIP3    H135894   5.574   6.452  13.105  0.7145  0.8513  1.5965
 4801TIP3    H235895   5.629   6.426  12.967 -1.1414 -0.2346  1.0353
 4802TIP3   OH235896   4.133   2.852   6.465 -0.2156 -0.0677 -0.4513
 4802TIP3    H135897   4.165   2.764   6.444  1.5868  0.5480 -0.3562
 4802TIP3    H235898   4.128   2.853   6.561  3.3970  1.1331 -0.2175
 4803TIP3   OH235899   2.329   1.699  14.340  0.3529 -0.4109 -0.1903
 4803TIP3    H135900   2.342   1.787  14.303  2.1580 -0.4940  0.2279
 4803TIP3    H235901   2.278   1.653  14.273  0.2125  0.6633 -0.8381
 4804TIP3   OH235902   3.755   2.943   3.091 -0.6117 -0.3019  0.4577
 4804TIP3    H135903   3.731   2.902   3.174 -0.1817 -1.0554  0.2107
 4804TIP3    H235904   3.815   3.014   3.115 -1.7690  0.5387  0.9283
 4805TIP3   OH235905   2.093   5.224  14.963  0.2352  0.0725 -0.2842
 4805TIP3    H135906   2.052   5.249  15.046  2.0897 -1.9691  1.2971
 4805TIP3    H235907   2.052   5.282  14.898 -1.7879  1.2082  1.9131
 4806TIP3   OH235908   1.026   5.148  13.708 -0.0973 -0.0549  0.0766
 4806TIP3    H135909   1.067   5.198  13.638 -2.1857  1.2759 -0.2405
 4806TIP3    H235910   1.097   5.095  13.745  1.5739  1.1600 -1.3300
 4807TIP3   OH235911   1.279   6.634  14.913 -0.4406 -0.3766  0.2676
 4807TIP3    H135912   1.308   6.664  14.827  0.3167  0.3324  0.7686
 4807TIP3    H235913   1.293   6.539  14.911 -0.5842 -0.3867 -0.4457
 4808TIP3   OH235914   0.255   1.323   3.661  0.1179 -0.3596  0.3298
 4808TIP3    H135915   0.268   1.292   3.571  1.0718 -1.2085  0.7543
 4808TIP3    H235916   0.180   1.272   3.693  0.0698 -0.3887  0.1715
 4809TIP3   OH235917   4.258   1.386  12.598  0.2164 -0.1148  0.6770
 4809TIP3    H135918   4.174   1.341  12.590 -0.7083  1.4681  1.1270
 4809TIP3    H235919   4.267   1.404  12.692  1.7032 -1.4467  0.8067
 4810TIP3   OH235920   1.460   4.156   0.809  0.4692 -0.0959 -0.7225
 4810TIP3    H135921   1.513   4.217   0.860  1.3030 -0.0983 -1.5787
 4810TIP3    H235922   1.386   4.209   0.777  0.2734  0.0490 -0.0395
 4811TIP3   OH235923   3.708   0.161  11.757 -0.1559 -0.0834  0.2450
 4811TIP3    H135924   3.717   0.172  11.852  0.2357  1.2761  0.0623
 4811TIP3    H235925   3.768   0.226  11.720 -0.1685 -0.7325 -0.9334
 4812TIP3   OH235926   3.041   3.734   6.041  0.0543  0.5262  0.1144
 4812TIP3    H135927   3.111   3.673   6.065  0.5678  1.2580  0.5098
 4812TIP3    H235928   2.994   3.751   6.122 -0.1032  0.6259  0.0029
 4813TIP3   OH235929   0.635   0.694   1.333 -0.6361  0.2825 -0.3112
 4813TIP3    H135930   0.578   0.631   1.378 -1.1557  0.1598 -1.1089
 4813TIP3    H235931   0.626   0.775   1.383  1.0260 -0.5935  1.4751
 4814TIP3   OH235932   0.386   6.150   0.735 -0.6005  0.1226  0.7247
 4814TIP3    H135933   0.328   6.100   0.792 -0.8899 -0.9415 -0.4894
 4814TIP3    H235934   0.472   6.112   0.749 -0.2293  1.4192  2.2002
 4815TIP3   OH235935   0.666   6.502  15.992 -0.0482  0.0193  0.2434
 4815TIP3    H135936   0.614   6.522  15.914 -0.4143  1.4051  0.8120
 4815TIP3    H235937   0.741   6.453  15.960 -1.5236 -1.7336 -0.6458
 4816TIP3   OH235938   4.448   0.212   2.190 -0.2255  0.2293 -0.0488
 4816TIP3    H135939   4.383   0.164   2.139  1.2757 -0.3991 -1.4203
 4816TIP3    H235940   4.524   0.154   2.193  0.5572  1.2716  0.8484
 4817TIP3   OH235941   0.740   5.695   0.490  0.1699  0.3411 -0.0187
 4817TIP3    H135942   0.691   5.635   0.434  1.4923 -1.3094  0.5350
 4817TIP3    H235943   0.819   5.646   0.513  0.8844  2.0027  1.1278
 4818TIP3   OH235944   0.164   5.969   0.735 -0.2365  0.3191 -0.7302
 4818TIP3    H135945   0.108   5.905   0.691 -1.0426  1.3869 -1.2983
 4818TIP3    H235946   0.105   6.041   0.757 -0.0675 -0.6098  3.0879
 4819TIP3   OH235947   5.776   1.010  16.840  0.2124  0.1648  0.2480
 4819TIP3    H135948   5.830   0.935  16.815 -0.4904  0.2394 -1.5389
 4819TIP3    H235949   5.834   1.085  16.835  0.9663 -0.2389  2.2073
 4820TIP3   OH235950   1.036   2.856   6.257 -0.0975  0.2796  0.0771
 4820TIP3    H135951   1.080   2.825   6.336  0.3694  1.8179  0.4302
 4820TIP3    H235952   0.946   2.876   6.286 -0.1444  0.1164  0.0463
 4821TIP3   OH235953   1.388   5.581   4.925  0.4978 -0.2765  0.0824
 4821TIP3    H135954   1.476   5.618   4.930 -0.4412  1.9226  0.6574
 4821TIP3    H235955   1.331   5.655   4.905 -1.4400 -1.3691  1.3676
 4822TIP3   OH235956   2.420   6.088   1.297 -0.2526  0.5319 -0.0346
 4822TIP3    H135957   2.420   6.129   1.384  1.5044 -0.5468  0.5136
 4822TIP3    H235958   2.360   6.014   1.306  0.7744 -0.2344  0.6052
 4823TIP3   OH235959   4.978   6.588   4.180  0.0327  0.8405  0.4025
 4823TIP3    H135960   4.915   6.640   4.130 -1.0149 -1.1406 -0.4108
 4823TIP3    H235961   4.930   6.559   4.257 -0.2368 -1.0751 -0.4554
 4824TIP3   OH235962   3.050   5.429  13.736  0.3772 -0.3231 -0.4364
 4824TIP3    H135963   3.053   5.504  13.796  3.0177  0.5559 -1.5724
 4824TIP3    H235964   2.982   5.452  13.672  0.5174  0.6938 -0.2317
 4825TIP3   OH235965   3.259   4.895   2.110 -0.5092  0.0778 -0.1039
 4825TIP3    H135966   3.260   4.990   2.105 -1.3824  0.0789 -0.4248
 4825TIP3    H235967   3.315   4.866   2.039 -0.4153  0.3478 -0.1409
 4826TIP3   OH235968   2.325   1.735  15.856  0.3650 -0.3085 -0.0058
 4826TIP3    H135969   2.413   1.699  15.842  0.3651  0.1248 -1.1451
 4826TIP3    H235970   2.270   1.690  15.792 -0.3097 -0.8062  0.9183
 4827TIP3   OH235971   3.336   5.126  15.875 -0.0572  0.2589  0.4353
 4827TIP3    H135972   3.425   5.092  15.884 -0.3763 -0.6454  0.1856
 4827TIP3    H235973   3.326   5.144  15.782  0.3063  1.5954  0.6449
 4828TIP3   OH235974   4.063   3.252  13.020 -0.3508  0.0282 -0.2575
 4828TIP3    H135975   4.086   3.333  13.065 -0.0760 -0.1507 -0.0759
 4828TIP3    H235976   4.108   3.184  13.069  0.5486 -0.1055 -1.2432
 4829TIP3   OH235977   3.539   5.639  14.561 -0.0766  0.1502 -0.2754
 4829TIP3    H135978   3.557   5.684  14.478 -0.1676 -0.0345 -0.3979
 4829TIP3    H235979   3.551   5.546  14.540  2.7494  0.2608  0.6231
 4830TIP3   OH235980   2.958   2.263  13.604  0.2331  0.4609  0.4424
 4830TIP3    H135981   2.940   2.169  13.599  1.6049  0.2378 -0.9410
 4830TIP3    H235982   2.902   2.296  13.674 -3.0527 -0.7373 -1.5369
 4831TIP3   OH235983   5.658   1.951   4.010 -0.4450  0.9803 -0.2469
 4831TIP3    H135984   5.605   2.010   3.957  0.4736  1.5067 -0.5934
 4831TIP3    H235985   5.635   1.863   3.979  0.6827  1.3150 -2.0950
 4832TIP3   OH235986   4.457   5.376   0.535 -0.4124  0.4568  0.0840
 4832TIP3    H135987   4.363   5.372   0.552 -0.0678 -0.3395  1.8593
 4832TIP3    H235988   4.481   5.467   0.555 -0.8914  0.8254 -0.9590
 4833TIP3   OH235989   5.761   0.524  11.261 -0.3568 -0.0869  0.1355
 4833TIP3    H135990   5.700   0.573  11.316  1.1444 -0.9046  2.6274
 4833TIP3    H235991   5.721   0.438  11.252 -0.5576  0.0169  0.0228
 4834TIP3   OH235992   1.578   4.058   4.963  0.8295  0.4866 -0.3814
 4834TIP3    H135993   1.588   4.094   5.051 -2.3159  1.7575 -0.4700
 4834TIP3    H235994   1.506   4.108   4.924  1.1551 -1.0605 -3.1481
 4835TIP3   OH235995   4.535   3.211  16.113 -0.3801 -0.2174  0.0899
 4835TIP3    H135996   4.501   3.299  16.133  1.6665  0.3935  1.0049
 4835TIP3    H235997   4.527   3.163  16.196 -1.5857 -0.9453 -0.4344
 4836TIP3   OH235998   0.320   3.856   5.911 -0.0569 -0.0827  0.2950
 4836TIP3    H135999   0.403   3.819   5.880 -0.3950  0.0421 -0.7782
 4836TIP3    H236000   0.305   3.814   5.996  0.6801 -0.7407  0.1020
 4837TIP3   OH236001   3.138   1.355   1.365 -0.0532  0.4036  0.2501
 4837TIP3    H136002   3.222   1.365   1.410 -0.8778 -0.5208  2.0180
 4837TIP3    H236003   3.129   1.436   1.314  1.2623  1.1058  1.0888
 4838TIP3   OH236004   5.182   6.557  16.150 -0.2848  0.6352 -0.2595
 4838TIP3    H136005   5.221   6.644  16.155 -0.6858  0.7823  0.2557
 4838TIP3    H236006   5.141   6.555  16.063 -0.3165  0.9703 -0.2553
 4839TIP3   OH236007   3.397   2.275  12.372 -0.3557 -0.0196 -0.6263
 4839TIP3    H136008   3.441   2.222  12.306 -1.2515 -0.9420 -0.4923
 4839TIP3    H236009   3.353   2.344  12.322 -1.5474 -1.0815 -1.0592
 4840TIP3   OH236010   2.048   0.267  15.623  0.5189 -0.0795  0.3515
 4840TIP3    H136011   1.974   0.318  15.655  1.4983  0.2123  2.2045
 4840TIP3    H236012   2.093   0.236  15.702  0.0504 -3.6851 -0.6998
 4841TIP3   OH236013   1.213   6.797  13.038 -0.0093  0.1535 -0.8393
 4841TIP3    H136014   1.223   6.875  12.983  0.2906 -0.3267 -1.4753
 4841TIP3    H236015   1.286   6.740  13.012 -0.4109 -0.4677 -0.6078
 4842TIP3   OH236016   4.593   1.617   3.301  0.3650  0.3944 -0.0881
 4842TIP3    H136017   4.613   1.710   3.291  0.7347  0.2986 -0.2670
 4842TIP3    H236018   4.531   1.597   3.231  0.1345  0.5510  0.0712
 4843TIP3   OH236019   6.388   6.639  11.826  0.2816 -0.0695 -0.2211
 4843TIP3    H136020   6.345   6.555  11.808  0.6960 -0.5809  1.1227
 4843TIP3    H236021   6.353   6.699  11.760  1.5448 -1.8010 -2.5443
 4844TIP3   OH236022   5.396   2.817  12.626 -0.4505 -0.4919 -0.3647
 4844TIP3    H136023   5.482   2.856  12.639 -0.0540 -0.9084 -1.6784
 4844TIP3    H236024   5.373   2.838  12.535 -1.6788 -0.4994 -0.0730
 4845TIP3   OH236025   0.795   0.205   3.365  0.2962 -0.2469 -0.2228
 4845TIP3    H136026   0.875   0.255   3.384  0.3960 -0.7437  0.7018
 4845TIP3    H236027   0.726   0.251   3.412  0.0830  0.0263 -0.8008
 4846TIP3   OH236028   2.724   0.145   2.585 -0.5416 -0.0422  0.8633
 4846TIP3    H136029   2.711   0.218   2.646 -0.5913 -0.9554  1.9526
 4846TIP3    H236030   2.819   0.137   2.577 -0.5246 -0.4354  1.4450
 4847TIP3   OH236031   5.475   3.678  11.692  0.2513  0.1875  0.4317
 4847TIP3    H136032   5.540   3.723  11.637  0.6105 -1.0684 -0.2078
 4847TIP3    H236033   5.412   3.746  11.716  1.0090  1.1134 -0.1633
 4848TIP3   OH236034   1.974   3.659  11.675 -0.1140  0.2706  0.3165
 4848TIP3    H136035   1.927   3.578  11.655 -0.9297  0.7099  0.4606
 4848TIP3    H236036   1.910   3.729  11.661 -1.4989  0.5502  6.5923
 4849TIP3   OH236037   5.972   6.452  13.519  0.1823 -0.3748 -0.7272
 4849TIP3    H136038   5.994   6.453  13.612  0.5644 -0.8368 -0.8072
 4849TIP3    H236039   6.017   6.375  13.485 -0.2772 -0.4301 -1.2187
 4850TIP3   OH236040   1.940   1.775  13.161  0.1584  0.2135  0.5287
 4850TIP3    H136041   1.950   1.747  13.070 -2.0503  1.3687 -0.1066
 4850TIP3    H236042   1.877   1.713  13.198  1.0188 -0.2249  1.2835
 4851TIP3   OH236043   0.243   0.569   3.465  0.3719  0.5887 -0.0857
 4851TIP3    H136044   0.286   0.484   3.469  2.1212  1.4288 -0.3039
 4851TIP3    H236045   0.158   0.552   3.425  0.3336 -1.1821  0.6983
 4852TIP3   OH236046   4.870   6.296  14.038  0.2914  0.3254 -0.0467
 4852TIP3    H136047   4.858   6.271  14.130  1.0652 -0.0134 -0.0336
 4852TIP3    H236048   4.782   6.292  14.001  0.0687 -0.1848  0.5161
 4853TIP3   OH236049   6.388   1.050   3.234  0.1883 -0.7247  0.7214
 4853TIP3    H136050   6.442   1.041   3.156 -1.1513 -1.2902 -0.1628
 4853TIP3    H236051   6.353   1.139   3.228 -1.9622 -1.6161 -0.7124
 4854TIP3   OH236052   1.176   6.266   3.157  0.5718 -0.0665 -0.1061
 4854TIP3    H136053   1.207   6.340   3.104  2.3706 -0.2722  0.6167
 4854TIP3    H236054   1.204   6.287   3.246  0.5765 -1.3563  0.2064
 4855TIP3   OH236055   5.441   5.329  12.574 -0.0067 -0.0654 -0.0608
 4855TIP3    H136056   5.369   5.288  12.527 -0.3321  1.1171 -0.6030
 4855TIP3    H236057   5.432   5.422  12.557  1.8706  0.0785 -0.4515
 4856TIP3   OH236058   5.470   4.110  13.359  0.1642 -1.1004  0.3872
 4856TIP3    H136059   5.446   4.197  13.328  0.3912 -0.5331  1.7608
 4856TIP3    H236060   5.565   4.106  13.347  0.4647 -0.3162  2.3407
 4857TIP3   OH236061   1.325   1.165  14.319  0.1836  0.1387 -0.6117
 4857TIP3    H136062   1.279   1.082  14.334 -1.1396  1.1192  0.8782
 4857TIP3    H236063   1.374   1.150  14.238  1.5379 -2.7607  0.6611
 4858TIP3   OH236064   1.664   6.126   1.330  0.3355  0.3601 -0.0613
 4858TIP3    H136065   1.751   6.139   1.294  0.4867  1.1027  0.5480
 4858TIP3    H236066   1.647   6.206   1.380 -0.8975  0.4476 -0.5944
 4859TIP3   OH236067   4.746   3.431  17.212 -0.3621  0.1839  0.0615
 4859TIP3    H136068   4.759   3.482  17.133  1.0669 -0.5969 -0.2152
 4859TIP3    H236069   4.812   3.463  17.273 -0.8715  0.1585  0.6354
 4860TIP3   OH236070   0.973   0.105  12.208  0.3600 -0.5760  0.0915
 4860TIP3    H136071   1.047   0.070  12.157  0.9679 -0.2528  0.7463
 4860TIP3    H236072   0.975   0.199  12.192  1.5340 -0.2566  1.9583
 4861TIP3   OH236073   5.949   6.148   3.334  0.0032 -0.1707  0.2152
 4861TIP3    H136074   5.980   6.058   3.335 -3.7353 -1.5051  0.6700
 4861TIP3    H236075   5.911   6.162   3.421 -0.6027  1.4205 -0.2760
 4862TIP3   OH236076   3.030   6.324   3.283 -0.1768 -0.3293 -0.3730
 4862TIP3    H136077   2.935   6.318   3.277 -0.0961 -1.7574 -0.5094
 4862TIP3    H236078   3.056   6.249   3.337  0.6970  1.4018  1.7159
 4863TIP3   OH236079   5.110   5.860  12.179 -0.0247  0.4428 -0.3247
 4863TIP3    H136080   5.154   5.940  12.149 -0.4209  0.8091  0.0733
 4863TIP3    H236081   5.024   5.890  12.210 -0.4122 -0.2188 -0.7449
 4864TIP3   OH236082   5.275   1.191  12.863  0.2386 -0.5186  0.1250
 4864TIP3    H136083   5.353   1.213  12.811 -0.1932  3.5912  1.0183
 4864TIP3    H236084   5.302   1.205  12.954 -1.1814 -0.3302  0.5285
 4865TIP3   OH236085   2.948   4.585  15.695 -0.5766 -0.2452 -0.3758
 4865TIP3    H136086   2.888   4.649  15.733 -0.0624  0.0147  0.0032
 4865TIP3    H236087   2.897   4.541  15.627 -1.2820 -0.2315  0.1479
 4866TIP3   OH236088   3.869   2.955   2.041  0.7384 -0.1647  0.3312
 4866TIP3    H136089   3.936   2.984   1.978 -0.5241  1.0260 -0.4848
 4866TIP3    H236090   3.850   3.033   2.093  2.5122 -1.3971  2.9128
 4867TIP3   OH236091   5.542   4.967   4.029  0.0240  0.1098  0.1303
 4867TIP3    H136092   5.558   5.017   3.949 -0.4478  0.5294  0.3011
 4867TIP3    H236093   5.533   4.877   3.999  1.6259  0.0055 -0.1006
 4868TIP3   OH236094   3.323   1.096  16.472 -0.4986  0.3992  0.4292
 4868TIP3    H136095   3.231   1.093  16.496 -0.5505 -1.7412  0.0718
 4868TIP3    H236096   3.330   1.169  16.410 -1.8261  0.9738  0.9549
 4869TIP3   OH236097   0.470   0.828  10.847  0.1333  0.3466 -0.1526
 4869TIP3    H136098   0.509   0.869  10.924 -0.6849  1.5420 -0.3721
 4869TIP3    H236099   0.508   0.740  10.846  0.2227  0.3426  1.5566
 4870TIP3   OH236100   0.958   1.668   4.476  0.1939  0.4252 -0.1018
 4870TIP3    H136101   1.026   1.601   4.476 -0.4696 -0.2944  2.5157
 4870TIP3    H236102   0.882   1.625   4.436  0.2482  0.1443  0.0958
 4871TIP3   OH236103   0.246   3.815   2.272  0.0321  0.2629 -0.2135
 4871TIP3    H136104   0.204   3.871   2.337  0.0203  0.7302 -0.6199
 4871TIP3    H236105   0.337   3.810   2.301  0.4509  1.9771 -1.1590
 4872TIP3   OH236106   3.023   2.292   3.165 -0.3052 -0.5784  0.2722
 4872TIP3    H136107   3.079   2.214   3.166 -1.0262 -1.0933  0.6165
 4872TIP3    H236108   2.934   2.258   3.166 -0.6745  0.1833 -2.5394
 4873TIP3   OH236109   4.195   0.834  15.343  0.6153 -0.0031 -0.2145
 4873TIP3    H136110   4.246   0.852  15.264  2.6217  0.9398  1.2425
 4873TIP3    H236111   4.255   0.784  15.399 -1.2241 -1.7911  0.2049
 4874TIP3   OH236112   5.662   2.990  13.165 -0.5766  0.2080 -0.0918
 4874TIP3    H136113   5.638   3.050  13.236 -1.6857  0.1751 -0.4290
 4874TIP3    H236114   5.637   3.036  13.085 -3.0189 -1.3393 -0.3047
 4875TIP3   OH236115   0.703   5.134   0.237  0.1726 -0.2494  0.3831
 4875TIP3    H136116   0.669   5.113   0.151  0.1961 -0.7750  0.4992
 4875TIP3    H236117   0.762   5.062   0.258 -0.4417 -0.5365  1.1765
 4876TIP3   OH236118   1.288   5.583   1.126  0.1287  0.2106 -0.1719
 4876TIP3    H136119   1.342   5.569   1.203 -0.7111  0.2309  0.4253
 4876TIP3    H236120   1.253   5.496   1.104 -0.4663  0.3863  0.0891
 4877TIP3   OH236121   3.488   1.483  15.099 -0.5052 -0.1314 -0.1578
 4877TIP3    H136122   3.559   1.528  15.053  0.4918 -0.6285  0.8731
 4877TIP3    H236123   3.532   1.413  15.147 -1.1860  1.7516  3.3705
 4878TIP3   OH236124   2.305   6.237  13.765  0.5338  0.2104  0.5300
 4878TIP3    H136125   2.248   6.301  13.722  0.5727  0.3706  0.7157
 4878TIP3    H236126   2.380   6.289  13.795  0.3084  0.1718  1.1613
 4879TIP3   OH236127   1.201   4.468  10.495  0.2565 -0.5290 -0.5632
 4879TIP3    H136128   1.256   4.400  10.455  1.7647 -0.7475  1.7811
 4879TIP3    H236129   1.138   4.419  10.548  1.1186 -0.1487  0.8401
 4880TIP3   OH236130   4.406   5.978  14.947  0.5220  0.2606  0.4462
 4880TIP3    H136131   4.370   6.057  14.986 -1.2271 -0.1175 -0.3552
 4880TIP3    H236132   4.480   6.008  14.894  1.5690  1.0225  2.3171
 4881TIP3   OH236133   3.799   4.095  16.696 -0.0111 -0.3202  0.1548
 4881TIP3    H136134   3.888   4.061  16.698  0.1409  0.0967  1.0414
 4881TIP3    H236135   3.755   4.052  16.770  0.1650  1.3150  1.2470
 4882TIP3   OH236136   3.481   6.177  14.732 -0.0708 -0.2523  0.3769
 4882TIP3    H136137   3.474   6.122  14.655  1.0566  0.1690 -0.0286
 4882TIP3    H236138   3.553   6.237  14.713  0.6887 -0.6076  2.0466
 4883TIP3   OH236139   0.264   5.857  16.651 -0.2545 -0.0712  0.2494
 4883TIP3    H136140   0.307   5.854  16.736 -0.5695  1.9289  0.5093
 4883TIP3    H236141   0.171   5.846  16.670 -0.6747  3.5067  0.5310
 4884TIP3   OH236142   3.955   1.762  13.234  0.0044  0.4525  0.5801
 4884TIP3    H136143   3.874   1.805  13.206  0.0113 -0.4600 -0.8961
 4884TIP3    H236144   3.992   1.821  13.300 -0.0508  2.6368 -1.3103
 4885TIP3   OH236145   0.206   0.229   5.659  0.1551 -0.0220 -0.6043
 4885TIP3    H136146   0.157   0.158   5.702  1.5858 -1.5494 -1.4321
 4885TIP3    H236147   0.265   0.184   5.599  0.3519  1.9501 -1.9268
 4886TIP3   OH236148   0.522   1.260  16.296  0.8668  0.7071 -0.3012
 4886TIP3    H136149   0.474   1.194  16.345 -0.3847  0.2222 -2.1117
 4886TIP3    H236150   0.612   1.252  16.326  0.1032  0.5488  1.9958
 4887TIP3   OH236151   6.097   5.907   1.313  0.2343 -0.2769  0.1536
 4887TIP3    H136152   6.159   5.854   1.263  2.2944  1.8846  0.3099
 4887TIP3    H236153   6.078   5.982   1.256  1.7677  1.6698  2.1035
 4888TIP3   OH236154   6.467   4.862  14.911 -0.3348  0.4961  0.3286
 4888TIP3    H136155   6.490   4.954  14.922 -0.5211  0.5327  0.4094
 4888TIP3    H236156   6.486   4.844  14.819 -2.7961  1.3270 -0.3788
 4889TIP3   OH236157   2.939   2.340  12.850  0.2722 -0.1354  0.2828
 4889TIP3    H136158   2.888   2.416  12.824 -1.3550 -0.7010  1.7828
 4889TIP3    H236159   2.994   2.371  12.922 -1.0040 -0.5622  1.4648
 4890TIP3   OH236160   2.232   5.271  11.559  0.5197 -0.4785  0.3493
 4890TIP3    H136161   2.279   5.197  11.520  0.3692  0.1855 -1.1101
 4890TIP3    H236162   2.173   5.231  11.623  0.1026 -1.6615 -0.7595
 4891TIP3   OH236163   4.226   4.639   5.453  0.1492  0.0712 -0.0350
 4891TIP3    H136164   4.252   4.656   5.543  0.9155  2.7479 -0.7113
 4891TIP3    H236165   4.134   4.664   5.449 -0.3725 -1.7229  0.4083
 4892TIP3   OH236166   3.005   1.966   4.862  0.1528  0.0734  0.0605
 4892TIP3    H136167   2.986   1.898   4.798 -1.0994 -0.4272  0.9492
 4892TIP3    H236168   3.087   1.939   4.903 -0.3327 -0.9010  0.3993
 4893TIP3   OH236169   5.372   0.512  14.526 -0.3250  0.4096  0.3762
 4893TIP3    H136170   5.340   0.473  14.608  0.0891  0.6217  0.6393
 4893TIP3    H236171   5.380   0.605  14.546  1.0648  0.2655  0.5047
 4894TIP3   OH236172   1.054   3.753  11.330  0.5210 -0.1725  0.4104
 4894TIP3    H136173   0.960   3.733  11.328  0.0885  1.6485  1.6073
 4894TIP3    H236174   1.062   3.823  11.395  2.8192 -0.8305  0.8660
 4895TIP3   OH236175   2.598   5.515  12.158  0.3170  0.3443  0.7694
 4895TIP3    H136176   2.504   5.494  12.153  0.6177 -1.1043  1.0670
 4895TIP3    H236177   2.610   5.545  12.248 -0.1641  2.1421  0.2674
 4896TIP3   OH236178   0.868   3.541   3.919  0.5718 -0.2920 -0.4364
 4896TIP3    H136179   0.943   3.494   3.954  2.8105  1.7451 -2.3016
 4896TIP3    H236180   0.840   3.598   3.990  0.5746 -1.3253  0.3927
 4897TIP3   OH236181   2.402   5.616  13.088 -0.2220  0.5354 -0.5968
 4897TIP3    H136182   2.491   5.635  13.117 -0.0505 -0.3170 -0.5457
 4897TIP3    H236183   2.394   5.659  13.003  0.0444  1.0869 -0.3444
 4898TIP3   OH236184   4.195   0.455  15.432  0.4682  0.5846  0.8917
 4898TIP3    H136185   4.229   0.524  15.489  0.3882  0.1258  1.4916
 4898TIP3    H236186   4.158   0.503  15.357  0.9392  1.1637  1.0255
 4899TIP3   OH236187   3.040   1.484   4.488  0.5400  0.5950  0.3395
 4899TIP3    H136188   3.081   1.407   4.527  0.7255  0.7979  0.5449
 4899TIP3    H236189   2.980   1.448   4.423 -0.2237  0.2261  1.2373
 4900TIP3   OH236190   0.036   4.509  13.410 -0.1854 -0.6190  0.5300
 4900TIP3    H136191  -0.004   4.444  13.468 -0.7998 -1.6869 -1.0641
 4900TIP3    H236192  -0.009   4.498  13.327  2.1761 -0.6157 -0.8060
 4901TIP3   OH236193   3.691   3.223   3.443  0.3836  0.7033  0.1205
 4901TIP3    H136194   3.654   3.225   3.531 -0.2179 -0.8612 -0.0796
 4901TIP3    H236195   3.785   3.214   3.457  0.1864 -0.7180  0.6090
 4902TIP3   OH236196   4.061   4.343  14.046  0.2690 -0.3533  0.0957
 4902TIP3    H136197   4.032   4.252  14.037  0.6849 -0.5296  0.5606
 4902TIP3    H236198   3.989   4.386  14.092 -0.0709 -0.3711 -0.4124
 4903TIP3   OH236199   2.402   5.574  11.822  0.0724 -0.0666  0.3766
 4903TIP3    H136200   2.426   5.666  11.830  3.4200 -0.8957  0.6651
 4903TIP3    H236201   2.350   5.569  11.742  1.4108  1.7929 -0.6418
 4904TIP3   OH236202   6.607   0.933  13.311  0.4311  0.4726  0.3652
 4904TIP3    H136203   6.599   0.912  13.219  0.2422  0.4792  0.3805
 4904TIP3    H236204   6.619   0.849  13.355  0.1196  0.4359  0.3780
 4905TIP3   OH236205   5.711   6.048  15.672 -0.7321 -0.1530 -0.1445
 4905TIP3    H136206   5.638   6.003  15.715  0.5557 -1.2041  0.9968
 4905TIP3    H236207   5.725   5.998  15.591 -0.2272 -0.9391  0.4247
 4906TIP3   OH236208   1.853   3.693  12.178 -0.1228 -0.2364  0.4043
 4906TIP3    H136209   1.789   3.642  12.128 -0.4954  1.2437 -0.6691
 4906TIP3    H236210   1.823   3.687  12.269 -1.7356  0.3585 -0.0743
 4907TIP3   OH236211   4.802   6.314  13.379 -0.5211 -0.0859  0.5837
 4907TIP3    H136212   4.820   6.291  13.470 -1.2526 -1.3912  0.4110
 4907TIP3    H236213   4.876   6.367  13.352 -0.5166  0.6771  2.0767
 4908TIP3   OH236214   2.073   6.763   4.965 -0.1938 -0.7457  0.3569
 4908TIP3    H136215   2.082   6.726   5.052 -0.3279 -0.4417  0.4992
 4908TIP3    H236216   1.989   6.729   4.933 -1.1530  0.8164  1.1617
 4909TIP3   OH236217   1.315   3.139   3.965  0.3576 -0.3929  0.0872
 4909TIP3    H136218   1.222   3.129   3.944 -0.0459 -0.8620  1.9978
 4909TIP3    H236219   1.319   3.221   4.014  0.9121 -0.4542  0.1421
 4910TIP3   OH236220   1.481   1.287   1.659 -0.3881  0.1857 -0.3981
 4910TIP3    H136221   1.514   1.253   1.576  2.1354 -1.3041  1.1305
 4910TIP3    H236222   1.436   1.213   1.699  0.6839  0.0930  0.6835
 4911TIP3   OH236223   4.447   3.643  13.237 -0.0341  0.4327  0.0903
 4911TIP3    H136224   4.439   3.705  13.164 -1.0163  0.3339  0.1035
 4911TIP3    H236225   4.508   3.577  13.205 -0.1480  0.6072 -0.5054
 4912TIP3   OH236226   3.701   2.908   2.746 -0.1470 -0.0004 -0.7584
 4912TIP3    H136227   3.718   2.982   2.687  0.2629  0.1674 -0.4317
 4912TIP3    H236228   3.615   2.875   2.718  0.0818  0.0235 -1.5003
 4913TIP3   OH236229   1.888   4.178   0.352 -0.2978 -0.9324  0.1570
 4913TIP3    H136230   1.798   4.155   0.374 -0.5520 -0.2728 -0.1687
 4913TIP3    H236231   1.889   4.183   0.257 -0.5415  1.4358  0.2298
 4914TIP3   OH236232   4.422   2.084   0.758 -0.6248  0.5040 -0.0716
 4914TIP3    H136233   4.365   2.041   0.695  0.4414  0.3856 -0.9631
 4914TIP3    H236234   4.381   2.067   0.843 -1.5728 -0.1058 -0.6413
 4915TIP3   OH236235   4.499   4.960   2.153  0.8599  0.0252  0.2849
 4915TIP3    H136236   4.485   4.987   2.244  2.2305  0.6163  0.3298
 4915TIP3    H236237   4.461   4.873   2.148  0.1096  0.2908  1.2343
 4916TIP3   OH236238   0.640   0.502  17.031  0.4045 -0.1543  0.0635
 4916TIP3    H136239   0.662   0.592  17.010  0.2138 -0.6653 -2.4025
 4916TIP3    H236240   0.628   0.502  17.126 -0.6815  2.6395 -0.0363
 4917TIP3   OH236241   5.641   0.685   3.986 -0.4277  0.1033  0.0134
 4917TIP3    H136242   5.546   0.698   3.996 -0.4026 -0.1044  0.5695
 4917TIP3    H236243   5.670   0.760   3.934 -1.5141 -1.8710 -3.6273
 4918TIP3   OH236244   2.849   6.724   0.001  0.6896  0.2767 -0.0148
 4918TIP3    H136245   2.876   6.809   0.036  1.7888  0.1459 -0.5336
 4918TIP3    H236246   2.754   6.723   0.012  0.9761  0.3450  2.7107
 4919TIP3   OH236247   6.067   1.623  13.637  0.1592  0.6253 -0.0225
 4919TIP3    H136248   6.023   1.543  13.607  0.2666  0.0736  1.2738
 4919TIP3    H236249   6.020   1.694  13.592  0.2508 -0.1729 -1.4047
 4920TIP3   OH236250   4.108   0.597  15.165  0.3124 -0.2805  0.4661
 4920TIP3    H136251   4.194   0.632  15.140 -0.0686  0.3397  0.0036
 4920TIP3    H236252   4.046   0.644  15.109 -0.3638 -0.4371  1.0751
 4921TIP3   OH236253   1.126   4.559   4.046 -0.2697 -0.2798 -0.4852
 4921TIP3    H136254   1.122   4.609   4.128  0.7378  1.9246 -1.7366
 4921TIP3    H236255   1.049   4.589   3.997  0.5738  0.3875 -1.4157
 4922TIP3   OH236256   4.541   4.264  13.692  0.1697 -0.2311 -0.0267
 4922TIP3    H136257   4.530   4.261  13.787  1.7841  0.4760  0.1986
 4922TIP3    H236258   4.633   4.287  13.679 -0.5128  1.6897 -1.7508
 4923TIP3   OH236259   2.146   4.417   7.003 -0.7994 -0.0570  0.2613
 4923TIP3    H136260   2.192   4.500   6.986  0.5054 -0.8016  0.0984
 4923TIP3    H236261   2.055   4.443   7.017 -0.5522  1.3309 -0.5792
 4924TIP3   OH236262   1.938   3.863   0.397  0.4472  0.3087  0.0978
 4924TIP3    H136263   2.003   3.918   0.354  1.0878  0.2776  1.0052
 4924TIP3    H236264   1.858   3.875   0.347  1.5812 -0.9807 -2.1096
 4925TIP3   OH236265   3.934   4.208  11.177  0.3637 -0.3837 -0.8023
 4925TIP3    H136266   3.913   4.261  11.100  1.7141  1.3703  0.0146
 4925TIP3    H236267   4.028   4.217  11.188  0.1826 -0.6070  1.0548
 4926TIP3   OH236268   0.846   4.196   6.698 -0.3431 -0.0107 -0.1444
 4926TIP3    H136269   0.926   4.149   6.719 -0.0053  0.7166  0.2223
 4926TIP3    H236270   0.792   4.133   6.650  0.8985 -0.1542 -1.3669
 4927TIP3   OH236271   6.197   6.066   0.042  0.3724  0.4904 -0.0612
 4927TIP3    H136272   6.284   6.072   0.082  1.5184  1.9514 -2.6470
 4927TIP3    H236273   6.192   5.977   0.008  1.1142  0.5707 -0.4029
 4928TIP3   OH236274   2.283   6.431  17.233  0.3164 -0.2248  0.6438
 4928TIP3    H136275   2.347   6.391  17.291  0.4010 -0.8451  0.1244
 4928TIP3    H236276   2.335   6.468  17.161  0.2243  0.6399  1.0076
 4929TIP3   OH236277   2.042   3.763  12.392 -0.0927 -0.1767  0.8270
 4929TIP3    H136278   2.013   3.673  12.406  1.1084 -0.6427  0.4077
 4929TIP3    H236279   2.006   3.788  12.307 -0.1795 -0.3686  0.8080
 4930TIP3   OH236280   5.308   6.796   3.282 -0.1473  0.5661  1.0447
 4930TIP3    H136281   5.327   6.741   3.205  2.2216 -1.4579  2.9645
 4930TIP3    H236282   5.366   6.872   3.272 -0.3331  0.6343  0.4862
 4931TIP3   OH236283   3.361   2.085   3.423 -0.1021  0.4982 -0.1388
 4931TIP3    H136284   3.442   2.034   3.414 -0.9294 -0.6124 -1.3815
 4931TIP3    H236285   3.352   2.099   3.518  0.3177 -1.3758  0.2016
 4932TIP3   OH236286   5.331   3.107  15.868  0.8424  0.5633  0.5698
 4932TIP3    H136287   5.347   3.069  15.782 -0.5598 -1.0801  1.0053
 4932TIP3    H236288   5.323   3.201  15.852  0.8666  0.2969 -1.0478
 4933TIP3   OH236289   6.534   5.323  15.527 -0.0610  0.0904 -0.1299
 4933TIP3    H136290   6.616   5.343  15.572  0.8579 -1.7055 -0.9237
 4933TIP3    H236291   6.499   5.247  15.575 -0.7886  0.2797 -0.3593
 4934TIP3   OH236292   2.125   5.358  13.986  0.0119  0.6247  0.5349
 4934TIP3    H136293   2.073   5.349  14.066  2.2024 -0.9354  1.8341
 4934TIP3    H236294   2.211   5.322  14.008  0.5914 -0.1280 -2.6288
 4935TIP3   OH236295   4.475   3.952  10.843  0.6105 -0.3243 -0.0664
 4935TIP3    H136296   4.493   4.044  10.824 -0.5172 -0.1146 -0.1857
 4935TIP3    H236297   4.380   3.948  10.856  0.7344 -1.3438  0.6509
 4936TIP3   OH236298   6.313   6.038   3.467  0.2594  0.1771 -0.1792
 4936TIP3    H136299   6.219   6.057   3.455  0.5348  1.3633 -0.5951
 4936TIP3    H236300   6.343   6.015   3.379  0.4581  0.2781 -0.1362
 4937TIP3   OH236301   5.228   4.177   2.638 -0.6034  0.1861  0.2483
 4937TIP3    H136302   5.234   4.087   2.668 -0.2185  0.8175  2.1545
 4937TIP3    H236303   5.209   4.227   2.718 -0.5462  1.8132 -0.7402
 4938TIP3   OH236304   5.326   1.330   0.519  0.1808 -0.5622  0.4237
 4938TIP3    H136305   5.231   1.321   0.520 -0.1915  2.8305  1.3756
 4938TIP3    H236306   5.349   1.336   0.426 -0.4430 -2.0291  0.1660
 4939TIP3   OH236307   1.452   6.661   4.633 -0.4829  0.7812 -0.5088
 4939TIP3    H136308   1.362   6.671   4.602 -1.1521  1.9664  1.7219
 4939TIP3    H236309   1.447   6.588   4.695  0.0231  1.0360 -0.1700
 4940TIP3   OH236310   5.869   4.757   2.038  0.6066 -0.0139  0.0927
 4940TIP3    H136311   5.930   4.705   2.091 -0.9210 -1.8787  0.0953
 4940TIP3    H236312   5.925   4.807   1.979  2.1738 -0.9597  0.7407
 4941TIP3   OH236313   2.196   6.072  15.964 -0.2511 -0.0134 -0.1860
 4941TIP3    H136314   2.200   6.093  15.870  0.6071 -1.0305 -0.3820
 4941TIP3    H236315   2.204   5.976  15.968 -0.2343  0.0263  0.9285
 4942TIP3   OH236316   3.106   2.833   6.215  0.7384 -0.1134  0.3950
 4942TIP3    H136317   3.039   2.811   6.280  2.0319 -0.9941  1.4602
 4942TIP3    H236318   3.058   2.844   6.134 -0.7280 -0.5139  1.1909
 4943TIP3   OH236319   1.424   6.281  10.862  0.3357  0.2660 -0.0966
 4943TIP3    H136320   1.461   6.369  10.852 -1.2131  1.0192  0.7052
 4943TIP3    H236321   1.417   6.248  10.772 -2.0854  2.2322 -0.6775
 4944TIP3   OH236322   3.697   6.795  12.787 -0.4361  0.5209  0.5614
 4944TIP3    H136323   3.636   6.863  12.813  0.4375  0.5696  2.5273
 4944TIP3    H236324   3.713   6.744  12.867  1.4430  0.0025 -0.1071
 4945TIP3   OH236325   3.608   1.239  15.213 -0.5002  0.4755  0.1027
 4945TIP3    H136326   3.538   1.194  15.165  0.1978 -0.9446  0.4128
 4945TIP3    H236327   3.670   1.171  15.236 -0.0519  1.3933  1.7040
 4946TIP3   OH236328   3.920   3.605  12.729 -0.1483  0.4353  0.2586
 4946TIP3    H136329   3.984   3.622  12.797 -1.5689 -1.0541  2.0139
 4946TIP3    H236330   3.835   3.617  12.772 -1.0603 -0.1397 -1.3347
 4947TIP3   OH236331   0.227   1.542  15.951  0.4313 -0.4254 -0.0671
 4947TIP3    H136332   0.249   1.467  16.006  1.1772 -0.1288  0.0314
 4947TIP3    H236333   0.202   1.502  15.867 -2.2257 -0.9741  0.9321
 4948TIP3   OH236334   3.900   4.440   4.021  0.1152  0.0831  0.1453
 4948TIP3    H136335   3.816   4.406   3.992 -0.0442 -0.2968  1.0406
 4948TIP3    H236336   3.892   4.445   4.116  0.7101  1.0897  0.1522
 4949TIP3   OH236337   1.352   6.130  15.331 -0.7994  0.5587 -0.2639
 4949TIP3    H136338   1.270   6.145  15.286 -1.7892 -0.3623  1.1949
 4949TIP3    H236339   1.349   6.038  15.358  0.8575  0.4107 -0.4983
 4950TIP3   OH236340   0.794   4.284   5.638 -1.1629 -0.4416 -0.1050
 4950TIP3    H136341   0.858   4.338   5.684 -1.1691 -0.4008 -0.1446
 4950TIP3    H236342   0.754   4.231   5.707 -1.9520  0.4009  0.0841
 4951TIP3   OH236343   3.352   2.711   6.386  0.4438  0.4131  0.6537
 4951TIP3    H136344   3.379   2.632   6.340  0.2005 -0.1734  1.5131
 4951TIP3    H236345   3.285   2.682   6.448  0.0044  1.3691  0.6453
 4952TIP3   OH236346   4.320   3.902   6.711 -0.3948 -0.1064  0.3920
 4952TIP3    H136347   4.289   3.978   6.760 -1.2152  0.8362 -1.5599
 4952TIP3    H236348   4.248   3.839   6.716  0.6036 -1.1203  2.7058
 4953TIP3   OH236349   2.970   1.115  12.398 -0.4768 -0.4102  0.7932
 4953TIP3    H136350   3.020   1.184  12.355 -1.9754 -0.7488 -1.5682
 4953TIP3    H236351   2.880   1.146  12.397 -0.9035 -1.5881  1.3651
 4954TIP3   OH236352   0.073   4.103  13.551  0.0434  0.0197 -0.2679
 4954TIP3    H136353   0.015   4.143  13.616 -0.3236 -0.8640 -0.0465
 4954TIP3    H236354   0.143   4.167  13.540  0.4131 -0.0755  1.4243
 4955TIP3   OH236355   4.118   1.633  13.065 -0.3512  0.9025  0.2084
 4955TIP3    H136356   4.069   1.645  12.983  0.4873 -1.7239 -0.7218
 4955TIP3    H236357   4.059   1.666  13.132 -2.8411 -0.8095 -1.0494
 4956TIP3   OH236358   0.083   0.903   0.899  0.4783 -0.4217 -0.5432
 4956TIP3    H136359   0.016   0.908   0.967  1.9341 -1.4748  1.0489
 4956TIP3    H236360   0.087   0.810   0.877  0.8029 -0.2439 -1.2467
 4957TIP3   OH236361   3.329   3.717   3.791  0.2492  0.8333 -0.4111
 4957TIP3    H136362   3.381   3.681   3.863 -0.5230  0.1178 -0.2166
 4957TIP3    H236363   3.394   3.737   3.723  0.6008 -1.6774 -0.8499
 4958TIP3   OH236364   5.063   2.830  13.885 -0.3418 -0.2138  0.3854
 4958TIP3    H136365   4.972   2.823  13.856 -0.2673 -0.1794  0.1384
 4958TIP3    H236366   5.110   2.768  13.830 -0.1239  0.1866  0.1178
 4959TIP3   OH236367   2.134   4.348  16.079  1.1493 -0.0384 -0.1362
 4959TIP3    H136368   2.209   4.319  16.130  1.0088  2.9699  1.9271
 4959TIP3    H236369   2.171   4.398  16.007  1.1775 -0.5908 -0.5153
 4960TIP3   OH236370   0.936   5.892  12.040 -0.3987 -0.3877 -0.4999
 4960TIP3    H136371   0.967   5.960  11.980  1.4289 -1.6837 -1.0586
 4960TIP3    H236372   1.015   5.861  12.085 -1.2695 -1.7596  0.1300
 4961TIP3   OH236373   4.198   5.397   2.335 -0.0264  0.4581  0.3807
 4961TIP3    H136374   4.248   5.372   2.413 -2.3825 -2.4921  1.0304
 4961TIP3    H236375   4.240   5.349   2.263 -0.1981  0.1892  0.4604
 4962TIP3   OH236376   4.382   5.833   2.946 -0.3125  0.5303  0.2944
 4962TIP3    H136377   4.337   5.898   2.893 -0.3785  0.9753  0.9024
 4962TIP3    H236378   4.473   5.836   2.916 -0.5113  0.2153 -0.3517
 4963TIP3   OH236379   4.619   0.297   5.422 -0.5679  0.4187  0.1559
 4963TIP3    H136380   4.702   0.326   5.385  0.9107 -2.4809  1.0219
 4963TIP3    H236381   4.637   0.286   5.515 -2.4590  1.5459  0.6773
 4964TIP3   OH236382   0.154   2.031   5.233 -0.9766 -0.4836 -0.0656
 4964TIP3    H136383   0.197   2.100   5.183  0.4598 -0.5796  1.0008
 4964TIP3    H236384   0.131   2.074   5.316 -0.1289 -1.2533  0.5790
 4965TIP3   OH236385   6.037   2.770  16.826 -0.6760 -0.0934  0.2221
 4965TIP3    H136386   6.117   2.762  16.878 -1.3447 -1.6009  1.0497
 4965TIP3    H236387   6.067   2.765  16.735  0.1981 -0.5248  0.5281
 4966TIP3   OH236388   5.111   3.241  11.458 -0.3763 -0.5956 -0.0164
 4966TIP3    H136389   5.096   3.162  11.509 -0.0335  0.0600  1.1257
 4966TIP3    H236390   5.206   3.248  11.449 -0.4427 -0.8729 -1.0271
 4967TIP3   OH236391   4.687   5.916   2.554 -0.0380  0.1629 -0.1213
 4967TIP3    H136392   4.766   5.878   2.515  0.7261  2.2384 -0.6912
 4967TIP3    H236393   4.625   5.922   2.481  0.0503  0.5430 -0.1656
 4968TIP3   OH236394   0.934   3.242  15.022  0.1873  0.7854  0.3341
 4968TIP3    H136395   0.846   3.240  15.061  1.6254 -0.3748  3.7540
 4968TIP3    H236396   0.934   3.172  14.957 -0.9965 -0.1836  1.3550
 4969TIP3   OH236397   0.350   5.581  11.818  0.3044  0.3399 -0.2583
 4969TIP3    H136398   0.337   5.487  11.831 -0.8693  0.2479 -1.9510
 4969TIP3    H236399   0.443   5.595  11.833  0.5864 -1.1928 -0.5167
 4970TIP3   OH236400   5.614   0.243  10.691 -0.3760  0.4590 -0.9582
 4970TIP3    H136401   5.684   0.307  10.708  1.1123 -1.3020 -0.3380
 4970TIP3    H236402   5.654   0.178  10.634 -0.9009 -1.6013  0.9523
 4971TIP3   OH236403   6.587   1.282  12.154 -0.0333 -0.3368 -0.0999
 4971TIP3    H136404   6.544   1.271  12.069 -1.4805  0.7442  0.4767
 4971TIP3    H236405   6.678   1.302  12.132 -0.7534  1.5974 -1.4503
 4972TIP3   OH236406   3.789   2.049  16.444 -0.1714 -0.6224 -0.2128
 4972TIP3    H136407   3.737   2.107  16.388 -0.9537  0.3345  1.4867
 4972TIP3    H236408   3.742   1.965  16.440  0.2866 -0.8349 -1.6892
 4973TIP3   OH236409   2.121   4.502   0.954  0.3393  0.4610 -0.3111
 4973TIP3    H136410   2.049   4.534   1.007 -0.4799 -0.1706 -1.0302
 4973TIP3    H236411   2.123   4.407   0.971  0.9172  0.4538 -0.3919
 4974TIP3   OH236412   3.911   5.672   1.714 -0.1601  0.0810  0.4316
 4974TIP3    H136413   3.956   5.624   1.784  1.6496  0.1842 -0.6309
 4974TIP3    H236414   3.952   5.641   1.633 -0.0674  2.2613 -0.3942
 4975TIP3   OH236415   2.321   3.406   3.101 -0.3062 -0.2798 -0.4334
 4975TIP3    H136416   2.344   3.334   3.161 -0.6510  0.1179  0.1832
 4975TIP3    H236417   2.405   3.447   3.079 -0.2559  0.1407  0.5103
 4976TIP3   OH236418   0.008   5.723  14.727 -0.0181 -0.2670 -0.4325
 4976TIP3    H136419  -0.021   5.664  14.658  0.7370 -1.3393  0.1524
 4976TIP3    H236420  -0.065   5.723  14.790 -0.8503  0.9776 -1.3741
 4977TIP3   OH236421   0.602   3.514   3.419 -0.5600 -0.6928  0.8624
 4977TIP3    H136422   0.597   3.584   3.484 -0.3269 -1.9304  2.2268
 4977TIP3    H236423   0.520   3.466   3.430 -0.9145 -0.4064 -0.3733
 4978TIP3   OH236424   0.249   1.042   2.556  0.1923  1.0366  0.3225
 4978TIP3    H136425   0.295   1.112   2.511 -0.8415  1.9060  0.5905
 4978TIP3    H236426   0.182   1.012   2.494  0.2721  0.6638  0.4128
 4979TIP3   OH236427   1.356   4.300  14.588 -0.3555 -0.4629  0.2793
 4979TIP3    H136428   1.428   4.300  14.651 -1.0052  3.7461  1.1202
 4979TIP3    H236429   1.400   4.307  14.503  0.3070  0.4152  0.6848
 4980TIP3   OH236430   1.415   2.223   0.714  0.0061 -0.5150 -0.4000
 4980TIP3    H136431   1.508   2.245   0.712  0.3989 -2.1636 -0.4505
 4980TIP3    H236432   1.403   2.161   0.642 -0.3727 -3.1865  1.8799
 4981TIP3   OH236433   2.421   4.530   3.318 -0.0412  0.6016  0.5164
 4981TIP3    H136434   2.369   4.607   3.293 -0.5732 -0.0003 -0.2838
 4981TIP3    H236435   2.390   4.461   3.259  0.7842 -0.0949  0.8932
 4982TIP3   OH236436   3.308   1.501  16.514 -0.5593  0.3197 -0.0543
 4982TIP3    H136437   3.378   1.529  16.455 -1.1303 -1.0586 -1.4295
 4982TIP3    H236438   3.342   1.518  16.602  0.2378  2.5894 -0.7671
 4983TIP3   OH236439   3.566   3.651   5.989 -0.0855 -0.0497  0.6242
 4983TIP3    H136440   3.474   3.663   6.012 -0.2655  2.5367 -1.1579
 4983TIP3    H236441   3.564   3.595   5.911 -0.0647 -1.1144  1.3891
 4984TIP3   OH236442   3.227   0.545  10.828 -0.3538 -0.3921 -0.7692
 4984TIP3    H136443   3.282   0.528  10.904 -0.3463  0.6913 -0.5289
 4984TIP3    H236444   3.238   0.467  10.772 -0.5609 -1.3062  0.4406
 4985TIP3   OH236445   5.711   0.097   2.950 -0.5203  0.5920 -0.2094
 4985TIP3    H136446   5.629   0.111   2.902 -0.6054 -0.3846 -0.3684
 4985TIP3    H236447   5.779   0.130   2.892 -0.6859  0.1259 -0.6759
 4986TIP3   OH236448   2.870   6.142   0.942 -0.4633  0.2497  0.5750
 4986TIP3    H136449   2.828   6.112   0.862  0.0521 -1.8603  1.0673
 4986TIP3    H236450   2.963   6.128   0.927 -0.2624  1.0711  1.0375
 4987TIP3   OH236451   0.231   5.303   1.878  0.1894  0.0853 -0.1611
 4987TIP3    H136452   0.209   5.375   1.937 -1.4231  0.4936 -1.2229
 4987TIP3    H236453   0.320   5.278   1.902  1.0210  2.8730 -0.2358
 4988TIP3   OH236454   0.350   1.735  15.748  0.6481  0.1824 -0.1105
 4988TIP3    H136455   0.434   1.779  15.753  0.2057  1.0076  0.1304
 4988TIP3    H236456   0.337   1.698  15.835  0.6331  0.3004 -0.0623
 4989TIP3   OH236457   0.257   6.454   3.151  0.1723 -0.5142  0.4647
 4989TIP3    H136458   0.275   6.362   3.130 -1.8533 -0.9655  0.6004
 4989TIP3    H236459   0.330   6.502   3.112  0.2257 -2.0107 -1.3637
 4990TIP3   OH236460   0.879   4.416   1.272  0.5007  0.4176  0.0148
 4990TIP3    H136461   0.915   4.456   1.193  0.0315  0.6539 -0.0787
 4990TIP3    H236462   0.894   4.322   1.259  0.1424  0.4296 -0.4970
 4991TIP3   OH236463   5.279   2.469   2.367  0.1303  0.2437 -0.0401
 4991TIP3    H136464   5.303   2.380   2.393 -0.1671  0.4897  1.1061
 4991TIP3    H236465   5.227   2.458   2.288  0.1568 -0.5936  0.0589
 4992TIP3   OH236466   5.737   6.050  16.905 -0.3636  0.0045 -0.0424
 4992TIP3    H136467   5.803   6.054  16.974 -0.2874  0.1967 -0.1246
 4992TIP3    H236468   5.752   5.966  16.862 -0.8769 -0.4313  0.6354
 4993TIP3   OH236469   1.805   0.488  11.300 -0.4082  0.0393  0.4048
 4993TIP3    H136470   1.844   0.538  11.228 -0.2032  1.4765  1.5024
 4993TIP3    H236471   1.803   0.398  11.268  0.6992  0.4901 -0.9772
 4994TIP3   OH236472   1.215   1.611   1.203  0.0584  0.0213  0.3193
 4994TIP3    H136473   1.242   1.520   1.213  1.8177  0.5431  0.4735
 4994TIP3    H236474   1.202   1.623   1.109 -0.0582 -0.3577  0.2897
 4995TIP3   OH236475   4.544   4.704  14.609 -0.0868 -0.6462  0.1902
 4995TIP3    H136476   4.617   4.765  14.618 -0.6767  0.4947 -2.4226
 4995TIP3    H236477   4.470   4.750  14.647 -0.2063 -0.3540 -0.3957
 4996TIP3   OH236478   4.468   4.181   1.214  0.2000  0.1949  0.8745
 4996TIP3    H136479   4.498   4.155   1.301 -0.0507 -0.6973  0.7087
 4996TIP3    H236480   4.472   4.276   1.214  0.8524  0.1754  1.6314
 4997TIP3   OH236481   2.188   4.593   2.954  0.8023 -0.3203 -0.5633
 4997TIP3    H136482   2.155   4.662   2.897  0.0798  0.5985  0.9406
 4997TIP3    H236483   2.273   4.568   2.916  0.9915  1.2744 -1.1980
 4998TIP3   OH236484   2.322   5.145   2.412  0.1614  0.4080  0.9040
 4998TIP3    H136485   2.262   5.216   2.388 -0.0426  0.3940  1.3732
 4998TIP3    H236486   2.315   5.083   2.339 -0.9029  0.0885  1.2624
 4999TIP3   OH236487   0.349   4.190  12.482  0.0646  0.6493  0.3695
 4999TIP3    H136488   0.377   4.194  12.390  0.7406 -1.6577  0.4571
 4999TIP3    H236489   0.431   4.191  12.532 -0.2865  1.2709  0.9467
 5000TIP3   OH236490   3.703   0.209  16.855 -0.1811  0.6803 -0.2251
 5000TIP3    H136491   3.674   0.131  16.809 -0.6850  0.8031 -0.1154
 5000TIP3    H236492   3.696   0.188  16.948 -0.6983  0.9904 -0.1920
 5001TIP3   OH236493   2.317   6.416   5.705 -0.8984  0.1316 -0.1528
 5001TIP3    H136494   2.287   6.326   5.722  0.9402 -0.6341 -0.9089
 5001TIP3    H236495   2.326   6.421   5.610  2.1065  0.0686  0.0764
 5002TIP3   OH236496   2.933   5.040  16.920 -0.5454  0.3693 -0.0170
 5002TIP3    H136497   2.987   5.016  16.845  0.9029 -0.8943  1.4013
 5002TIP3    H236498   2.957   5.131  16.938  1.8672 -0.4469  1.1695
 5003TIP3   OH236499   6.100   0.269  14.491 -0.0195  0.2143  0.0061
 5003TIP3    H136500   6.074   0.177  14.486 -1.1761  0.5563 -0.3498
 5003TIP3    H236501   6.195   0.268  14.477  0.1237 -1.0159  1.0059
 5004TIP3   OH236502   5.043   5.391   3.397 -0.6347  0.2304 -0.7001
 5004TIP3    H136503   5.135   5.420   3.395 -0.8427  0.9557  0.0194
 5004TIP3    H236504   5.048   5.297   3.379  0.3220  0.1213  0.0493
 5005TIP3   OH236505   1.513   0.484   1.057  0.4017 -0.0669  0.3007
 5005TIP3    H136506   1.433   0.450   1.097  0.4539  0.5677  0.9617
 5005TIP3    H236507   1.575   0.412   1.061  0.6606  0.2257  2.1155
 5006TIP3   OH236508   1.436   4.309  11.793  0.2939  0.2925  0.5032
 5006TIP3    H136509   1.509   4.361  11.757  0.8155  0.2717  1.5216
 5006TIP3    H236510   1.359   4.342  11.747  0.4671  2.6732  1.8430
 5007TIP3   OH236511   5.049   0.162  14.835 -0.1510 -0.1806 -0.0861
 5007TIP3    H136512   5.083   0.110  14.762  0.9667  1.4445 -0.7589
 5007TIP3    H236513   5.087   0.123  14.913  1.5377  0.2667 -0.6666
 5008TIP3   OH236514   1.463   0.211  11.347 -0.3065 -0.2306 -0.4953
 5008TIP3    H136515   1.492   0.123  11.369  1.2923 -0.0363 -1.6971
 5008TIP3    H236516   1.372   0.215  11.377  0.8578 -0.8945  3.3234
 5009TIP3   OH236517   1.085   2.953   3.486  0.1297  0.3530 -0.0147
 5009TIP3    H136518   1.022   3.018   3.518 -1.6681 -0.8542 -1.0509
 5009TIP3    H236519   1.057   2.870   3.524  0.1005 -0.4808 -1.8106
 5010TIP3   OH236520   1.069   4.095   4.717 -0.1557  0.2303 -0.1798
 5010TIP3    H136521   1.145   4.041   4.738  0.4376  1.1784  0.1177
 5010TIP3    H236522   1.105   4.168   4.667 -0.9671  0.3283 -0.6339
 5011TIP3   OH236523   0.936   3.115   3.703 -0.4400  0.1394  0.5306
 5011TIP3    H136524   1.009   3.174   3.720 -0.2543 -0.1429  0.7294
 5011TIP3    H236525   0.859   3.172   3.701 -0.2677  0.3822  0.7577
 5012TIP3   OH236526   6.813   5.968   3.244  0.3215 -0.0864 -0.3121
 5012TIP3    H136527   6.848   6.051   3.213 -0.8504  0.0915 -1.2185
 5012TIP3    H236528   6.880   5.904   3.221  0.3561  0.3329 -1.4146
 5013TIP3   OH236529   6.472   0.082  11.966  0.3799 -0.4247  0.7590
 5013TIP3    H136530   6.435  -0.006  11.973  2.5170 -1.3912  0.3530
 5013TIP3    H236531   6.452   0.124  12.050 -0.7419 -1.2563  0.9135
 5014TIP3   OH236532   5.308   1.239   5.123  0.0051 -0.1634  0.1039
 5014TIP3    H136533   5.256   1.260   5.200 -0.4862  1.0408 -0.5493
 5014TIP3    H236534   5.345   1.322   5.094  1.8153 -0.8976  0.1820
 5015TIP3   OH236535   5.127   3.171  10.964  0.8172 -0.0694 -0.4295
 5015TIP3    H136536   5.082   3.191  11.046  1.1468  0.6846 -0.4205
 5015TIP3    H236537   5.136   3.076  10.963 -1.0578 -0.2492 -0.5796
 5016TIP3   OH236538   3.019   4.814   0.243 -0.3072  0.2560  0.3050
 5016TIP3    H136539   2.978   4.727   0.239 -1.2090  0.7717 -2.7151
 5016TIP3    H236540   2.948   4.873   0.267 -0.2625  0.5204 -0.2232
 5017TIP3   OH236541   5.483   5.559  13.791 -0.4755 -0.0544  0.4208
 5017TIP3    H136542   5.420   5.573  13.863 -0.6880 -0.8199  0.3836
 5017TIP3    H236543   5.564   5.535  13.835 -0.8755 -1.5145  0.3622
 5018TIP3   OH236544   2.264   3.068   2.721 -0.4029 -0.3154  0.0460
 5018TIP3    H136545   2.239   3.155   2.690  0.8030 -0.6843 -2.0501
 5018TIP3    H236546   2.285   3.081   2.813 -0.9149  1.4706 -0.0641
 5019TIP3   OH236547   3.469   2.840  11.181  0.0820 -0.5319  0.3912
 5019TIP3    H136548   3.479   2.871  11.091 -0.3851 -1.0841  0.1436
 5019TIP3    H236549   3.391   2.786  11.178  0.3056 -0.8881  1.0429
 5020TIP3   OH236550   0.424   0.848   4.080 -0.1416 -0.1748  0.1022
 5020TIP3    H136551   0.503   0.824   4.031  0.1995  1.8561 -0.3758
 5020TIP3    H236552   0.353   0.800   4.036  0.4825 -0.1073 -0.9863
 5021TIP3   OH236553   4.752   1.260   3.816  0.0133 -0.3706  0.2936
 5021TIP3    H136554   4.817   1.309   3.767  1.8886 -2.3380  0.7126
 5021TIP3    H236555   4.711   1.202   3.752 -0.2131 -0.2476  0.3262
 5022TIP3   OH236556   5.093   0.964  15.739 -0.1526  0.6049  0.1021
 5022TIP3    H136557   5.096   1.027  15.811 -2.2504  0.8650 -0.0162
 5022TIP3    H236558   5.042   1.007  15.670 -2.9166 -1.7249  0.5748
 5023TIP3   OH236559   3.665   5.800   0.747  0.0578 -0.0292 -0.1074
 5023TIP3    H136560   3.631   5.884   0.778 -0.1582 -0.0179 -0.3723
 5023TIP3    H236561   3.629   5.791   0.659 -0.4450 -0.7024  0.1637
 5024TIP3   OH236562   1.955   5.795  17.129 -0.1914  0.8663  0.4121
 5024TIP3    H136563   2.026   5.759  17.182 -1.1582 -0.1012  1.0773
 5024TIP3    H236564   1.877   5.751  17.162 -1.1250  2.0888 -0.1673
 5025TIP3   OH236565   4.264   5.906  13.547 -0.0004 -0.2751  0.1276
 5025TIP3    H136566   4.228   5.985  13.587 -0.9840  0.1328 -1.5076
 5025TIP3    H236567   4.239   5.835  13.606  1.4159  0.7033  1.9183
 5026TIP3   OH236568   1.540   2.556  15.997  0.6776 -0.0433  0.2357
 5026TIP3    H136569   1.481   2.579  16.069 -0.1042 -0.9131 -0.1125
 5026TIP3    H236570   1.525   2.463  15.982  1.3450 -0.0327 -0.5935
 5027TIP3   OH236571   5.408   0.579   4.165 -0.3907 -0.2434 -0.9782
 5027TIP3    H136572   5.419   0.647   4.232 -0.0680  0.2846 -1.5597
 5027TIP3    H236573   5.483   0.521   4.178 -1.4121 -1.2976  0.4312
 5028TIP3   OH236574   2.001   3.119  14.104 -0.4100 -0.3757  0.1086
 5028TIP3    H136575   1.929   3.091  14.047 -0.2988 -0.2160 -0.1071
 5028TIP3    H236576   1.977   3.208  14.130  0.2181  0.0699 -0.7944
 5029TIP3   OH236577   1.801   3.726   6.008 -0.3684 -0.0710  0.5993
 5029TIP3    H136578   1.879   3.676   5.988  0.4484  0.2283  2.8653
 5029TIP3    H236579   1.817   3.812   5.969  0.8881  0.2977  1.8808
 5030TIP3   OH236580   4.193   3.854   1.267 -0.6771  0.1523  0.3408
 5030TIP3    H136581   4.226   3.913   1.335  0.2648  0.6210 -0.5071
 5030TIP3    H236582   4.118   3.810   1.307  0.1784  0.0378  1.8572
 5031TIP3   OH236583   1.535   2.237   3.760  0.4871  0.5904 -0.4351
 5031TIP3    H136584   1.588   2.161   3.735  0.6929  0.6879 -0.2998
 5031TIP3    H236585   1.453   2.200   3.793  1.3224  0.3397  1.4341
 5032TIP3   OH236586   1.205   6.538   1.984  0.0677 -0.4808  0.4355
 5032TIP3    H136587   1.133   6.559   2.043 -0.0655 -2.2598  0.9276
 5032TIP3    H236588   1.276   6.510   2.042  0.6520 -0.1613 -0.1244
 5033TIP3   OH236589   6.690   4.273   1.194  0.2868 -0.2823  0.0937
 5033TIP3    H136590   6.710   4.207   1.259 -1.8703 -0.4031  0.6664
 5033TIP3    H236591   6.666   4.223   1.116  0.3719 -0.1641 -0.0078
 5034TIP3   OH236592   4.297   0.637  13.798  0.6256  0.5778 -0.2710
 5034TIP3    H136593   4.389   0.648  13.819 -0.1607  1.4673  3.1047
 5034TIP3    H236594   4.255   0.716  13.832 -1.5078 -0.3435 -0.6821
 5035TIP3   OH236595   5.553   0.155   4.054  0.4902 -0.1278  0.3410
 5035TIP3    H136596   5.573   0.246   4.075  3.3154 -0.0154 -2.5267
 5035TIP3    H236597   5.637   0.110   4.057 -0.7485 -2.4908  0.9072
 5036TIP3   OH236598   1.491   2.726   2.864  0.1441  0.1758 -0.0770
 5036TIP3    H136599   1.527   2.788   2.928  1.2649  0.3477 -0.8605
 5036TIP3    H236600   1.455   2.655   2.917  0.2824  0.7264  0.7745
 5037TIP3   OH236601   1.231   3.239   3.546  0.0370 -0.4005  0.1814
 5037TIP3    H136602   1.225   3.300   3.619  1.4319  0.9645 -0.7977
 5037TIP3    H236603   1.302   3.180   3.570 -0.3138 -0.7029  0.4707
 5038TIP3   OH236604   3.656   5.158   5.193 -0.1712 -0.2996  0.3730
 5038TIP3    H136605   3.735   5.199   5.229 -0.1966  0.1041 -0.0367
 5038TIP3    H236606   3.584   5.212   5.225 -0.3285 -0.9621  1.1720
 5039TIP3   OH236607   6.208   2.032  14.940 -0.2889 -0.0800  0.6486
 5039TIP3    H136608   6.187   2.076  14.858  0.1092  0.3549  0.7757
 5039TIP3    H236609   6.235   1.944  14.914 -0.6094 -0.0898  0.3510
 5040TIP3   OH236610   5.243   2.683   1.182 -0.2257 -0.2201  0.4531
 5040TIP3    H136611   5.257   2.713   1.272 -0.5076  0.1062  0.3912
 5040TIP3    H236612   5.152   2.654   1.180 -0.0684 -0.7085  0.4065
 5041TIP3   OH236613   3.694   0.318   4.304 -0.4624 -0.1807 -0.1071
 5041TIP3    H136614   3.729   0.407   4.309 -2.1820  0.4499  1.0352
 5041TIP3    H236615   3.752   0.273   4.243  1.1041  1.4040  0.1697
 5042TIP3   OH236616   0.307   2.250   4.588  0.0154  0.4743 -0.2285
 5042TIP3    H136617   0.345   2.331   4.623  0.9194 -0.0730  0.0850
 5042TIP3    H236618   0.353   2.236   4.506 -0.8518  0.8051 -0.7777
 5043TIP3   OH236619   5.473   3.693  12.841 -0.0406  0.2344  0.7105
 5043TIP3    H136620   5.547   3.687  12.901  1.3681  1.0296 -0.9046
 5043TIP3    H236621   5.413   3.755  12.882  0.7657  0.5325  1.4391
 5044TIP3   OH236622   1.170   6.784  12.709  0.1951 -0.2390 -0.6603
 5044TIP3    H136623   1.116   6.725  12.762 -0.6105  1.7696  0.7807
 5044TIP3    H236624   1.113   6.808  12.636 -0.0502  0.0683 -0.3668
 5045TIP3   OH236625   1.343   0.897   3.700 -0.4581 -0.3492 -0.3582
 5045TIP3    H136626   1.406   0.890   3.772 -0.0610  2.1851 -0.4034
 5045TIP3    H236627   1.258   0.883   3.741 -0.2078  0.7518  0.5476
 5046TIP3   OH236628   4.507   3.394   0.090  0.5713 -0.3630 -0.3633
 5046TIP3    H136629   4.523   3.307   0.125 -1.4071 -0.9999 -0.9762
 5046TIP3    H236630   4.523   3.386  -0.004  2.4949  0.4957 -0.1442
 5047TIP3   OH236631   3.223   3.517  11.266 -0.3269 -0.4898 -0.5292
 5047TIP3    H136632   3.304   3.471  11.287  0.7363  0.9338 -1.4151
 5047TIP3    H236633   3.171   3.513  11.347  1.2627 -0.0655  0.5276
 5048TIP3   OH236634   1.489   2.589  16.610 -0.4219 -0.0845 -0.0775
 5048TIP3    H136635   1.580   2.591  16.637 -0.7175  1.8258  0.8830
 5048TIP3    H236636   1.491   2.599  16.515  0.4429 -2.2731 -0.3029
 5049TIP3   OH236637   4.952   6.602  11.309 -0.2603 -0.0013 -0.1074
 5049TIP3    H136638   5.022   6.543  11.334 -0.4698 -0.2750 -0.1633
 5049TIP3    H236639   4.929   6.647  11.391 -0.0174  0.0937 -0.0922
 5050TIP3   OH236640   4.164   4.047  11.386 -0.1860 -0.1088  0.2195
 5050TIP3    H136641   4.254   4.031  11.358 -0.4823 -1.5841  0.0691
 5050TIP3    H236642   4.111   4.009  11.316 -0.9278  0.1677  0.6284
 5051TIP3   OH236643   2.217   1.392  12.086 -0.0349  0.1145 -0.3572
 5051TIP3    H136644   2.143   1.430  12.135 -0.6309 -1.9586  0.4202
 5051TIP3    H236645   2.186   1.305  12.061  2.1050 -0.7322 -0.1495
 5052TIP3   OH236646   0.120   1.240  12.997  0.6657 -0.6570 -0.1395
 5052TIP3    H136647   0.146   1.196  12.917  0.7902  1.6316 -1.4010
 5052TIP3    H236648   0.055   1.304  12.969  0.5083 -0.0189  1.6283
 5053TIP3   OH236649   6.083   4.721   3.096  0.0019 -0.1671 -0.6974
 5053TIP3    H136650   6.162   4.700   3.146  0.4438 -0.5725 -1.5538
 5053TIP3    H236651   6.105   4.802   3.050  0.0023 -0.3827 -1.0858
 5054TIP3   OH236652   2.543   1.677   3.473 -0.7642 -0.0365 -0.1010
 5054TIP3    H136653   2.566   1.768   3.493  0.8511 -0.1817 -1.2307
 5054TIP3    H236654   2.467   1.684   3.415 -1.5121  0.5463  0.9405
 5055TIP3   OH236655   3.373   4.689  14.794  0.1413 -0.4172 -0.5742
 5055TIP3    H136656   3.436   4.761  14.804 -2.8898  2.0634  1.5757
 5055TIP3    H236657   3.415   4.615  14.839  1.3555  1.3193  1.2866
 5056TIP3   OH236658   3.359   4.171  13.052 -0.4211  0.0580  0.0290
 5056TIP3    H136659   3.289   4.182  13.116 -0.9662  0.4593 -0.6260
 5056TIP3    H236660   3.422   4.240  13.072 -0.2522 -0.2553  0.5708
 5057TIP3   OH236661   3.087   0.293   0.721 -0.0956 -0.2003 -0.2190
 5057TIP3    H136662   3.022   0.276   0.789  0.1984  0.7491  0.3025
 5057TIP3    H236663   3.141   0.214   0.720 -0.2097 -0.2915  0.5256
 5058TIP3   OH236664   3.325   2.153  15.586 -0.7856 -0.0779  0.1256
 5058TIP3    H136665   3.230   2.147  15.577 -0.8764 -0.6692  1.3472
 5058TIP3    H236666   3.349   2.078  15.640  0.0613  1.4357  1.9453
 5059TIP3   OH236667   2.329   2.586  12.345  0.7270  0.5403 -0.6164
 5059TIP3    H136668   2.302   2.625  12.262 -0.1100  0.0934 -0.5586
 5059TIP3    H236669   2.247   2.572  12.392  1.2355  1.3227  0.5283
 5060TIP3   OH236670   3.976   3.969   3.772  0.2156 -0.3657 -0.2096
 5060TIP3    H136671   3.915   4.036   3.742 -0.4902 -0.3897  1.1596
 5060TIP3    H236672   4.061   3.995   3.735 -0.2822  0.6133 -0.6766
 5061TIP3   OH236673   3.410   3.447  12.971  0.0693 -0.0249 -0.0125
 5061TIP3    H136674   3.433   3.500  13.048  2.6215  1.2313 -1.5695
 5061TIP3    H236675   3.352   3.504  12.920  0.0518 -0.0537 -0.0240
 5062TIP3   OH236676   6.561   4.964   0.719  0.2131 -0.0332 -0.4083
 5062TIP3    H136677   6.607   5.030   0.666  0.0409  0.9741  0.6660
 5062TIP3    H236678   6.615   4.956   0.798  0.7504 -1.9089 -0.9356
 5063TIP3   OH236679   4.696   3.135   5.383 -0.4946  0.0148 -0.0176
 5063TIP3    H136680   4.747   3.058   5.408  1.1085  0.5924 -1.4247
 5063TIP3    H236681   4.744   3.209   5.420 -0.9555  0.4846 -0.3446
 5064TIP3   OH236682   2.736   5.427  16.997  0.1221  0.3670  1.0908
 5064TIP3    H136683   2.692   5.450  16.916 -0.7281 -0.4391  1.3224
 5064TIP3    H236684   2.688   5.352  17.031  0.4677  0.6902  2.3420
 5065TIP3   OH236685   2.148   1.889  12.010  0.2714 -0.4614  0.0078
 5065TIP3    H136686   2.225   1.848  12.050  0.6995  0.4971  0.1828
 5065TIP3    H236687   2.082   1.890  12.079  0.1073 -1.2702 -0.1366
 5066TIP3   OH236688   2.021   0.347  14.380 -0.1684  0.1831 -0.0177
 5066TIP3    H136689   1.989   0.269  14.334 -0.6099  0.8357 -0.8193
 5066TIP3    H236690   2.061   0.400  14.312 -0.5845  1.0341  0.4002
 5067TIP3   OH236691   3.944   0.535   1.008 -0.2495  0.4217  0.3457
 5067TIP3    H136692   3.933   0.608   1.069  1.0735  0.4345  0.5845
 5067TIP3    H236693   3.999   0.473   1.055  1.3390  0.7286 -1.0757
 5068TIP3   OH236694   1.273   4.079  11.847 -0.1819  0.2210 -0.0713
 5068TIP3    H136695   1.324   4.126  11.781  1.3098 -1.1643  0.0787
 5068TIP3    H236696   1.282   4.132  11.926  1.1090 -0.0700 -0.0206
 5069TIP3   OH236697   0.177   6.261   4.255  0.9587  0.3870 -0.3646
 5069TIP3    H136698   0.084   6.280   4.256  0.2569 -2.6860 -2.5003
 5069TIP3    H236699   0.217   6.338   4.214 -0.8755  0.7592 -1.4954
 5070TIP3   OH236700   1.434   1.937  13.708 -0.2413 -0.5684  0.2110
 5070TIP3    H136701   1.515   1.943  13.658  0.3454  2.6358  1.4305
 5070TIP3    H236702   1.445   1.861  13.764  1.7780 -0.3547  0.1211
 5071TIP3   OH236703   4.133   6.672   2.475 -0.0356 -0.4628 -0.3080
 5071TIP3    H136704   4.217   6.713   2.456  0.2703 -1.3622 -0.8940
 5071TIP3    H236705   4.111   6.624   2.396 -0.9140 -0.5531 -0.0120
 5072TIP3   OH236706   3.946   2.565  12.661  0.5692 -0.6861 -0.4172
 5072TIP3    H136707   3.891   2.639  12.635  0.6740 -0.3515  0.3096
 5072TIP3    H236708   4.029   2.580  12.617  0.3316 -0.7879 -0.9025
 5073TIP3   OH236709   1.069   0.888  11.387  0.6515 -0.1307  0.2942
 5073TIP3    H136710   1.012   0.833  11.441 -0.4934  0.0713 -0.6926
 5073TIP3    H236711   1.019   0.904  11.307  1.6310  1.0024 -0.1136
 5074TIP3   OH236712   0.443   5.428   5.400 -0.4859  0.6217 -0.8272
 5074TIP3    H136713   0.438   5.333   5.412  1.1531  0.2595 -2.7660
 5074TIP3    H236714   0.533   5.450   5.423 -1.0881  1.8660  0.4355
 5075TIP3   OH236715   3.325   3.667  15.175  0.2313 -0.2913 -0.3120
 5075TIP3    H136716   3.342   3.690  15.266  0.2366 -2.5037  0.2699
 5075TIP3    H236717   3.410   3.673  15.132  0.3285  0.2005 -0.0546
 5076TIP3   OH236718   0.407   2.318   6.053  0.4475  0.2547  0.1584
 5076TIP3    H136719   0.327   2.267   6.038 -0.1010  0.8687  0.9507
 5076TIP3    H236720   0.447   2.279   6.131  2.0532 -1.4160 -1.4587
 5077TIP3   OH236721   2.939   0.663   5.437  0.2995 -0.3576 -0.4719
 5077TIP3    H136722   2.881   0.661   5.361 -0.6978 -1.2485  0.2937
 5077TIP3    H236723   2.992   0.742   5.425 -1.4243  0.7539 -0.9353
 5078TIP3   OH236724   3.107   5.336  15.965 -0.6510 -0.0486  0.5726
 5078TIP3    H136725   3.056   5.325  16.045 -0.5867 -3.2201  0.2391
 5078TIP3    H236726   3.189   5.289  15.982 -0.4299 -0.3347 -1.1763
 5079TIP3   OH236727   6.582   5.689   2.177  0.7018  0.8396 -0.4979
 5079TIP3    H136728   6.596   5.617   2.238 -1.1434 -0.6570 -1.7544
 5079TIP3    H236729   6.635   5.667   2.101  0.4708  1.0267 -0.7157
 5080TIP3   OH236730   6.655   3.235   2.430 -0.7590 -0.3578  0.1066
 5080TIP3    H136731   6.722   3.221   2.363 -1.3988 -0.4121 -0.5346
 5080TIP3    H236732   6.576   3.253   2.380 -1.2562 -0.4499  0.8595
 5081TIP3   OH236733   6.788   4.279   6.138  1.0804 -0.2551 -0.9117
 5081TIP3    H136734   6.879   4.259   6.158  1.3624  0.1767 -1.7585
 5081TIP3    H236735   6.781   4.269   6.043  0.7001  1.4523 -1.0823
 5082TIP3   OH236736   3.540   0.831   0.163  0.0696 -0.4958  0.1374
 5082TIP3    H136737   3.461   0.777   0.167 -0.0001 -0.3789  0.3668
 5082TIP3    H236738   3.538   0.882   0.245  0.8819 -1.2055  0.6038
 5083TIP3   OH236739   5.957   3.522  16.585  0.0844 -0.8898  0.5874
 5083TIP3    H136740   5.897   3.483  16.649 -1.2257 -1.7590 -1.1358
 5083TIP3    H236741   5.900   3.559  16.518  1.4506 -1.0319 -0.6802
 5084TIP3   OH236742   1.998   5.230   2.761 -0.4938 -0.1161 -0.5446
 5084TIP3    H136743   2.001   5.165   2.831 -1.6284 -0.0128 -0.3954
 5084TIP3    H236744   1.984   5.313   2.805  0.5072  0.1769 -0.7705
 5085TIP3   OH236745   1.985   4.041   0.628  0.1070 -0.0322  0.1489
 5085TIP3    H136746   1.892   4.061   0.617 -0.1134 -0.7078  0.7303
 5085TIP3    H236747   2.005   3.981   0.555  0.3669  0.9940 -0.6323
 5086TIP3   OH236748   1.526   5.084   4.342  0.2149  0.3141 -0.1240
 5086TIP3    H136749   1.591   5.120   4.403 -0.0740 -0.4621  0.6492
 5086TIP3    H236750   1.475   5.023   4.395 -1.3635  1.1520 -0.6393
 5087TIP3   OH236751   1.342   2.549  14.394 -0.5614 -0.5667 -0.6288
 5087TIP3    H136752   1.406   2.490  14.434 -0.4314 -1.0947 -1.6120
 5087TIP3    H236753   1.394   2.620  14.358 -0.5905 -0.6309 -0.7968
 5088TIP3   OH236754   2.890   0.931   2.887  0.0378 -0.3851  0.0250
 5088TIP3    H136755   2.981   0.961   2.881  1.1464 -3.2882  1.4579
 5088TIP3    H236756   2.869   0.936   2.980 -1.5530  0.9831 -0.3918
 5089TIP3   OH236757   5.445   6.666   3.038  0.7967  0.4904 -0.4038
 5089TIP3    H136758   5.493   6.649   2.957  0.4312 -0.4738 -0.4126
 5089TIP3    H236759   5.487   6.609   3.103  0.0866  0.1303 -0.2615
 5090TIP3   OH236760   6.096   3.667  14.098  0.0798  0.6803 -0.4771
 5090TIP3    H136761   6.107   3.589  14.153 -2.0836  0.0984 -0.8270
 5090TIP3    H236762   6.140   3.736  14.146  1.9368 -0.7068 -0.0968
 5091TIP3   OH236763   2.852   2.967  15.953  0.3903  0.5870  0.2744
 5091TIP3    H136764   2.796   2.970  16.031  1.4396  1.7533  0.9895
 5091TIP3    H236765   2.930   2.920  15.981 -0.0127 -0.6118 -0.5901
 5092TIP3   OH236766   4.638   6.219  15.285 -0.3202  0.2511  0.2863
 5092TIP3    H136767   4.721   6.257  15.312 -1.4337  2.5655  0.5893
 5092TIP3    H236768   4.609   6.273  15.212 -1.7518 -0.2827  0.4411
 5093TIP3   OH236769   4.464   3.913  13.480  0.4825 -0.0871  0.6428
 5093TIP3    H136770   4.390   3.893  13.424  0.8206 -1.7384  0.7510
 5093TIP3    H236771   4.429   3.911  13.569  0.7134 -1.2415  0.7196
 5094TIP3   OH236772   1.100   4.090  15.975 -0.1346 -0.1487 -0.3087
 5094TIP3    H136773   1.142   4.100  15.890 -1.8792 -0.7652 -1.2670
 5094TIP3    H236774   1.020   4.143  15.969 -0.3833 -0.3783  0.8603
 5095TIP3   OH236775   4.735   6.442   1.603  0.1444  0.0664 -0.1264
 5095TIP3    H136776   4.827   6.465   1.616  0.0353 -0.0508  0.8920
 5095TIP3    H236777   4.691   6.526   1.591  0.0851  0.2679  1.3802
 5096TIP3   OH236778   4.570   5.379  12.764 -0.7925 -0.1099  0.1147
 5096TIP3    H136779   4.661   5.351  12.773 -0.6262  0.0457 -1.0119
 5096TIP3    H236780   4.575   5.473  12.748 -1.1893  0.0158  0.7216
 5097TIP3   OH236781   3.169   0.733  16.505 -0.5499 -0.7340 -0.5701
 5097TIP3    H136782   3.156   0.769  16.418 -0.6773 -1.5637 -0.8936
 5097TIP3    H236783   3.156   0.808  16.564 -1.4496 -0.3913 -1.1993
 5098TIP3   OH236784   1.574   5.582  12.252  0.1978  0.5104 -0.6809
 5098TIP3    H136785   1.658   5.585  12.206  0.3973  1.2128 -0.2698
 5098TIP3    H236786   1.509   5.594  12.182  0.3391 -1.6137 -1.2368
 5099TIP3   OH236787   0.088   4.224   1.886  0.1638 -0.7019  0.5907
 5099TIP3    H136788  -0.000   4.188   1.875  0.0913 -1.2728  2.9541
 5099TIP3    H236789   0.116   4.193   1.972  1.2719  2.4285  1.4032
 5100TIP3   OH236790   2.814   3.511  16.573  0.1984  0.0177  0.4618
 5100TIP3    H136791   2.885   3.507  16.510  0.0401 -0.7188  0.3227
 5100TIP3    H236792   2.741   3.550  16.525  0.2728  0.0514  0.3767
 5101TIP3   OH236793   4.910   5.970  13.586  0.4157  0.1926  0.5969
 5101TIP3    H136794   4.838   5.939  13.531 -0.5383  0.3974  1.7110
 5101TIP3    H236795   4.983   5.912  13.564 -0.9099 -1.9314  1.5767
 5102TIP3   OH236796   5.954   5.633   0.518  0.4232  1.0342 -0.3760
 5102TIP3    H136797   5.958   5.659   0.610  1.7990 -0.4178  0.0148
 5102TIP3    H236798   5.891   5.561   0.516  1.9925 -0.4010 -0.1394
 5103TIP3   OH236799   1.053   1.851   2.672 -0.0298  0.3108 -0.0010
 5103TIP3    H136800   1.097   1.894   2.599 -0.9875 -0.1976 -0.8912
 5103TIP3    H236801   0.983   1.800   2.631  0.2725 -1.0662  1.1352
 5104TIP3   OH236802   5.434   0.263   5.345 -0.2702 -0.1387  0.5774
 5104TIP3    H136803   5.508   0.203   5.330 -0.2623 -0.1031  0.4738
 5104TIP3    H236804   5.362   0.205   5.369 -0.6303 -0.3098 -0.8761
 5105TIP3   OH236805   4.558   6.519  15.948  0.0864  0.0683  0.3666
 5105TIP3    H136806   4.547   6.588  15.883  0.3068  0.1369  0.4006
 5105TIP3    H236807   4.470   6.505  15.983 -0.0258  0.0573  0.0814
 5106TIP3   OH236808   4.800   5.976  12.270  0.6558 -0.1239  0.0735
 5106TIP3    H136809   4.765   5.963  12.182  1.9024  0.7732 -0.5907
 5106TIP3    H236810   4.727   5.960  12.328  0.1906 -2.2331 -1.0466
 5107TIP3   OH236811   3.039   2.248   4.878 -0.0053 -0.0227  0.5032
 5107TIP3    H136812   3.011   2.156   4.871 -1.6169  0.3960  1.1512
 5107TIP3    H236813   3.002   2.278   4.961  1.1166  1.0222  0.6382
 5108TIP3   OH236814   1.280   6.001  14.807 -0.4198  0.1342  0.2274
 5108TIP3    H136815   1.307   5.961  14.889 -0.5161  1.2879  0.8212
 5108TIP3    H236816   1.187   5.979  14.799  0.0186 -1.5802 -0.5217
 5109TIP3   OH236817   1.324   0.469  11.815  0.5573 -0.4127  0.3450
 5109TIP3    H136818   1.293   0.392  11.863 -0.1182 -0.9313 -0.9066
 5109TIP3    H236819   1.250   0.531  11.819  0.4359 -0.5250 -0.1783
 5110TIP3   OH236820   3.229   1.558  15.188 -0.3014 -0.5093 -0.0448
 5110TIP3    H136821   3.222   1.474  15.232 -2.1432 -1.2217 -1.5918
 5110TIP3    H236822   3.309   1.551  15.136 -1.0451 -1.7669 -1.0554
 5111TIP3   OH236823   3.882   1.080   5.083  0.0073  0.2484 -0.3457
 5111TIP3    H136824   3.819   1.145   5.114  0.6770  0.4398  0.6799
 5111TIP3    H236825   3.917   1.041   5.164  0.6459 -0.3718 -0.9167
 5112TIP3   OH236826   1.290   4.478   5.985  0.5634  0.1907  0.2819
 5112TIP3    H136827   1.325   4.483   5.896  0.6068  0.9829  0.3428
 5112TIP3    H236828   1.346   4.414   6.030 -0.5422 -1.5632 -0.7534
 5113TIP3   OH236829   5.512   6.152  16.529 -0.3698  0.2588 -0.1971
 5113TIP3    H136830   5.509   6.075  16.473 -0.2843  0.3477 -0.3250
 5113TIP3    H236831   5.552   6.220  16.475  0.7864  0.0267  0.3466
 5114TIP3   OH236832   1.393   3.875   0.837  0.6110  0.3379  0.1137
 5114TIP3    H136833   1.422   3.966   0.844  0.1915  0.4186  0.7314
 5114TIP3    H236834   1.462   3.824   0.881  0.0981  0.4821  1.0830
 5115TIP3   OH236835   1.205   3.143  10.928 -0.0472  1.1427 -0.4058
 5115TIP3    H136836   1.199   3.163  11.021  2.0857 -2.8713  0.7327
 5115TIP3    H236837   1.125   3.096  10.908  0.4845  0.0468 -0.0060
 5116TIP3   OH236838   2.334   2.042  11.057  0.0905  0.1925  0.1276
 5116TIP3    H136839   2.402   2.098  11.019 -0.5151 -0.1361 -1.4617
 5116TIP3    H236840   2.291   2.003  10.982 -0.8271 -0.8377  1.1846
 5117TIP3   OH236841   6.090   3.326  15.702  0.4117 -0.0020 -0.6029
 5117TIP3    H136842   6.154   3.396  15.692  2.2840 -1.3284  1.4808
 5117TIP3    H236843   6.108   3.290  15.789 -2.7151 -0.8789 -0.2837
 5118TIP3   OH236844   3.322   4.672   1.891  0.4768 -0.1773 -0.6133
 5118TIP3    H136845   3.231   4.651   1.913  0.5389  0.8037  0.6665
 5118TIP3    H236846   3.315   4.731   1.816  0.0283  0.1754 -0.2999
 5119TIP3   OH236847   0.460   5.441  14.272 -0.2967 -0.4034  0.0763
 5119TIP3    H136848   0.430   5.389  14.347 -0.7079  0.7752  0.7514
 5119TIP3    H236849   0.543   5.479  14.302  0.3200 -1.1607 -0.6446
 5120TIP3   OH236850   4.357   4.391   6.735 -0.2734  0.2061  0.5835
 5120TIP3    H136851   4.343   4.353   6.648  1.8631 -0.1511  0.3727
 5120TIP3    H236852   4.318   4.478   6.730  1.5734  0.9672 -1.4108
 5121TIP3   OH236853   0.505   3.852   2.450  0.4366 -0.6978  0.0449
 5121TIP3    H136854   0.550   3.936   2.451  0.1492 -0.5278 -0.6103
 5121TIP3    H236855   0.469   3.842   2.538  2.6344 -1.3225  0.9071
 5122TIP3   OH236856   1.360   3.163  15.908  0.2052  0.0604  0.1663
 5122TIP3    H136857   1.266   3.175  15.918  0.2291 -0.1245  0.6474
 5122TIP3    H236858   1.391   3.145  15.997  0.8990  1.5650  0.2376
 5123TIP3   OH236859   5.012   2.082  16.160  1.0116  0.2669  0.0226
 5123TIP3    H136860   4.960   2.113  16.087 -1.9439 -0.0958  1.9068
 5123TIP3    H236861   5.022   2.158  16.217  0.1172 -0.3536  1.0276
 5124TIP3   OH236862   1.126   1.299  13.045 -0.2566 -0.2614  0.0114
 5124TIP3    H136863   1.116   1.314  13.139  0.4531 -0.1313  0.0707
 5124TIP3    H236864   1.203   1.351  13.021  0.5356 -1.5718 -0.3224
 5125TIP3   OH236865   5.510   4.078  15.282  0.3787 -0.1965  0.1669
 5125TIP3    H136866   5.496   4.162  15.238 -0.8239 -0.3577  0.2300
 5125TIP3    H236867   5.463   4.087  15.365  2.4764  0.0475  1.3852
 5126TIP3   OH236868   6.269   1.946  10.701 -0.6355 -0.0612 -0.1596
 5126TIP3    H136869   6.329   2.006  10.745  0.2928 -0.7188 -0.5290
 5126TIP3    H236870   6.302   1.859  10.723 -0.9810 -0.4137 -1.0287
 5127TIP3   OH236871   0.546   0.355  14.913  0.5778  0.4653 -0.3388
 5127TIP3    H136872   0.535   0.450  14.915  0.4994  0.4463  0.4971
 5127TIP3    H236873   0.564   0.335  14.822 -0.4125  1.1668 -0.6958
 5128TIP3   OH236874   2.287   6.761   4.704 -0.2849 -0.3291  0.0250
 5128TIP3    H136875   2.268   6.803   4.788 -2.3428 -0.0069 -0.5846
 5128TIP3    H236876   2.269   6.829   4.638  1.5188 -0.5065 -0.7022
 5129TIP3   OH236877   6.300   1.077  16.544  0.2026 -0.5975 -0.0124
 5129TIP3    H136878   6.225   1.131  16.521  1.2909  0.4353 -1.2208
 5129TIP3    H236879   6.279   1.042  16.631 -0.5124  1.7994  0.8174
 5130TIP3   OH236880   1.599   5.522  16.315 -0.3128  0.0708 -0.5369
 5130TIP3    H136881   1.590   5.470  16.395  1.1860  3.4191  1.9235
 5130TIP3    H236882   1.692   5.518  16.293 -0.5735 -0.1391 -1.6655
 5131TIP3   OH236883   4.453   4.314   5.840  0.1334 -0.2162 -0.6845
 5131TIP3    H136884   4.512   4.350   5.906  0.2758  0.4665 -1.1848
 5131TIP3    H236885   4.408   4.390   5.803 -1.2643 -0.7453 -0.1186
 5132TIP3   OH236886   0.734   1.829   5.117 -0.7202  0.3028  0.8872
 5132TIP3    H136887   0.828   1.825   5.103 -0.6668 -0.6225  1.4240
 5132TIP3    H236888   0.697   1.777   5.046 -0.9524  2.1891 -0.3998
 5133TIP3   OH236889   4.371   4.264  12.406 -0.3511 -0.1749 -0.1168
 5133TIP3    H136890   4.351   4.355  12.384  1.8938  0.5324  0.5854
 5133TIP3    H236891   4.447   4.242  12.352  0.4562 -0.9046  1.2753
 5134TIP3   OH236892   1.374   6.511   0.219  0.0964 -0.1124  0.3870
 5134TIP3    H136893   1.365   6.593   0.169 -0.2221 -1.1390 -1.2759
 5134TIP3    H236894   1.459   6.476   0.192 -1.3464 -2.1489 -1.7525
 5135TIP3   OH236895   5.377   2.237  12.554 -0.1757  0.1808  0.4508
 5135TIP3    H136896   5.304   2.181  12.581  0.5760 -0.6810  0.7381
 5135TIP3    H236897   5.442   2.176  12.518  0.3453  0.9499  0.0779
 5136TIP3   OH236898   3.280   4.913  17.058  0.3807  0.3479 -0.4789
 5136TIP3    H136899   3.251   5.001  17.081 -0.7894  0.0843 -0.8832
 5136TIP3    H236900   3.251   4.858  17.130  2.5031  0.5093  0.5462
 5137TIP3   OH236901   0.793   1.206  13.841 -0.7967 -0.2217  0.1695
 5137TIP3    H136902   0.766   1.255  13.764  0.7316 -2.3381 -1.7560
 5137TIP3    H236903   0.782   1.114  13.817  0.8291 -0.9543  2.0279
 5138TIP3   OH236904   1.822   6.413  14.464  0.7570  0.5547  0.0301
 5138TIP3    H136905   1.737   6.393  14.501  1.7602 -0.5607  1.8216
 5138TIP3    H236906   1.855   6.329  14.431  1.1968  0.9611 -0.5966
 5139TIP3   OH236907   3.714   6.281  12.241  0.4579  0.2571  0.0756
 5139TIP3    H136908   3.667   6.331  12.307  1.6425  0.2426  0.9393
 5139TIP3    H236909   3.684   6.317  12.157 -1.1895  0.1389  0.6101
 5140TIP3   OH236910   1.069   6.198  16.313  0.1281 -0.2070  0.0012
 5140TIP3    H136911   1.078   6.157  16.399 -0.7551 -0.0660  0.1649
 5140TIP3    H236912   1.040   6.287  16.332  0.4754 -0.0051 -0.4172
 5141TIP3   OH236913   2.735   2.615  13.396 -0.2554  0.1728  0.3563
 5141TIP3    H136914   2.692   2.530  13.386 -0.1748  0.2582 -0.7601
 5141TIP3    H236915   2.756   2.620  13.490  0.2732 -1.2887  0.3327
 5142TIP3   OH236916   1.884   0.367  16.090 -0.2334  0.0324  0.4288
 5142TIP3    H136917   1.819   0.300  16.114 -0.5958 -0.3070 -1.4002
 5142TIP3    H236918   1.861   0.391  16.000  0.4004  2.0446  0.7826
 5143TIP3   OH236919   5.209   0.794   3.658  0.4938  0.3113 -0.0997
 5143TIP3    H136920   5.150   0.819   3.729 -0.9613  1.2701 -1.5909
 5143TIP3    H236921   5.215   0.699   3.664  0.3977  0.3908  1.3132
 5144TIP3   OH236922   6.066   0.906  13.547 -0.0183 -0.5710  0.5434
 5144TIP3    H136923   6.039   0.843  13.613  1.8035 -1.1221  0.7842
 5144TIP3    H236924   6.121   0.968  13.594 -1.4757  1.0041  0.2280
 5145TIP3   OH236925   6.287   2.573   5.562 -0.2356 -0.2370 -0.4365
 5145TIP3    H136926   6.206   2.525   5.581  0.1017 -0.7980 -0.3815
 5145TIP3    H236927   6.290   2.578   5.467 -0.4794  0.0310 -0.4284
 5146TIP3   OH236928   5.122   1.730  17.169 -0.0355 -0.0346  0.0077
 5146TIP3    H136929   5.034   1.765  17.158 -0.4239 -0.7027  0.9193
 5146TIP3    H236930   5.163   1.742  17.084 -1.1154  0.0065 -0.5222
 5147TIP3   OH236931   4.313   2.397  13.810 -0.1623 -0.4399 -0.3284
 5147TIP3    H136932   4.341   2.483  13.777 -0.8758  0.3075  0.9543
 5147TIP3    H236933   4.392   2.344  13.809 -0.3338 -0.7184 -4.0341
 5148TIP3   OH236934   0.215   5.612  16.930 -0.0617 -0.0049  0.5529
 5148TIP3    H136935   0.134   5.630  16.978 -0.0511 -1.1279  1.0036
 5148TIP3    H236936   0.252   5.698  16.912 -0.4845  0.4529  1.8525
 5149TIP3   OH236937   5.205   2.103  16.938 -0.2215  0.6418 -0.7220
 5149TIP3    H136938   5.259   2.111  17.016  0.8248  0.9024 -1.4714
 5149TIP3    H236939   5.123   2.064  16.969  0.8333 -0.8363  0.2295
 5150TIP3   OH236940   3.664   1.570  16.254  0.7110 -0.3194  0.2666
 5150TIP3    H136941   3.574   1.539  16.238  0.3613  1.1473 -0.6839
 5150TIP3    H236942   3.719   1.500  16.218 -0.0688  0.5681 -2.8603
 5151TIP3   OH236943   3.458   1.951  14.856  0.3779 -0.0215  0.5686
 5151TIP3    H136944   3.533   1.947  14.796  0.2908  0.7070  0.4021
 5151TIP3    H236945   3.494   1.924  14.940  0.9461  0.7857  0.5911
 5152TIP3   OH236946   4.992   5.904   1.893 -0.3587  0.3430 -0.5210
 5152TIP3    H136947   5.004   5.927   1.985 -1.4915 -1.4004  0.0868
 5152TIP3    H236948   4.963   5.985   1.851 -0.6831  0.9364  0.8265
 5153TIP3   OH236949   5.792   3.272  12.038 -0.2947  0.1468 -0.1863
 5153TIP3    H136950   5.745   3.257  11.956 -1.1399  0.6307  0.1903
 5153TIP3    H236951   5.791   3.367  12.049  0.5867  0.1413 -0.0563
 5154TIP3   OH236952   3.435   2.968  15.088  0.6448  0.2081 -0.5970
 5154TIP3    H136953   3.412   2.950  15.179  1.6973  0.0197 -0.3603
 5154TIP3    H236954   3.422   3.063  15.078  2.8184  0.6429  0.4385
 5155TIP3   OH236955   0.144   4.073  14.778 -0.0775  0.2544  0.6606
 5155TIP3    H136956   0.062   4.034  14.747 -0.4377  0.1219  1.7440
 5155TIP3    H236957   0.120   4.163  14.801  0.1677  0.3244  0.6417
 5156TIP3   OH236958   1.364   2.097  15.071  0.5958 -0.0288 -0.3986
 5156TIP3    H136959   1.367   2.031  15.001 -0.2649 -0.2640 -0.2125
 5156TIP3    H236960   1.285   2.076  15.121  1.9856 -0.8102  1.5636
 5157TIP3   OH236961   0.697   0.051   4.628  0.0425 -0.4359 -0.2234
 5157TIP3    H136962   0.751   0.116   4.582 -0.6498 -0.9360 -1.7717
 5157TIP3    H236963   0.741  -0.032   4.611 -1.2734 -0.8649 -1.6134
 5158TIP3   OH236964   2.347   2.977   4.207 -0.0373  0.0612 -0.0474
 5158TIP3    H136965   2.433   2.960   4.168  0.0137  0.1285  0.0372
 5158TIP3    H236966   2.314   3.053   4.159  0.8090  1.2897  1.2645
 5159TIP3   OH236967   1.388   0.338   1.416 -0.0801 -0.0257 -0.4283
 5159TIP3    H136968   1.306   0.376   1.447 -0.4316  1.1769 -2.6938
 5159TIP3    H236969   1.455   0.375   1.474 -1.0107 -0.0723  0.6883
 5160TIP3   OH236970   2.699   4.473  16.809  0.0786 -0.7778  0.2675
 5160TIP3    H136971   2.704   4.496  16.901  2.4615 -0.9910  0.2192
 5160TIP3    H236972   2.700   4.557  16.763  0.6763 -0.7158  0.3877
 5161TIP3   OH236973   5.407   5.057  16.026 -0.8411  0.4462  0.3174
 5161TIP3    H136974   5.329   5.095  15.985 -1.8338 -1.3244  0.4900
 5161TIP3    H236975   5.448   5.007  15.955  0.0865  1.3103  0.2520
 5162TIP3   OH236976   0.532   0.202  17.219 -0.0851 -0.1535  0.1419
 5162TIP3    H136977   0.608   0.240  17.263 -0.9501  4.5492 -2.1996
 5162TIP3    H236978   0.559   0.112  17.198  2.7134 -0.4188  4.2686
 5163TIP3   OH236979   2.017   2.897  11.393  0.1277 -0.2537 -0.6269
 5163TIP3    H136980   1.986   2.987  11.393  1.0353  0.0857  1.1375
 5163TIP3    H236981   1.999   2.865  11.305 -1.0232  1.3588 -0.9953
 5164TIP3   OH236982   4.197   6.511   2.258 -0.2913 -0.5495 -0.0432
 5164TIP3    H136983   4.235   6.589   2.298 -1.8874 -0.1480  0.7361
 5164TIP3    H236984   4.250   6.496   2.179  1.6613 -0.2069  1.1585
 5165TIP3   OH236985   5.073   5.215  14.642  0.4734  0.3882 -0.2569
 5165TIP3    H136986   5.011   5.227  14.570  0.6872  2.8388 -0.0834
 5165TIP3    H236987   5.153   5.182  14.601 -0.5790 -1.7638 -0.6204
 5166TIP3   OH236988   3.692   0.473   4.616  0.0344  0.2144  0.0493
 5166TIP3    H136989   3.684   0.506   4.706 -0.0678  0.5143 -0.0685
 5166TIP3    H236990   3.601   0.468   4.585  0.1804  2.0754 -0.7395
 5167TIP3   OH236991   0.512   6.243   6.322  0.1739 -0.6158  0.4752
 5167TIP3    H136992   0.448   6.291   6.270  0.4532  0.4926  1.1457
 5167TIP3    H236993   0.576   6.210   6.258  0.7349  1.0637  0.1573
 5168TIP3   OH236994   1.129   0.348   0.371  0.6520 -0.3768  0.2342
 5168TIP3    H136995   1.151   0.258   0.397 -0.3389 -0.1468  1.9229
 5168TIP3    H236996   1.210   0.397   0.382  1.5954 -1.3244 -2.0699
 5169TIP3   OH236997   2.806   3.500   4.332 -0.1284 -0.1372  0.5364
 5169TIP3    H136998   2.778   3.418   4.291 -0.6255  0.3686 -0.1641
 5169TIP3    H236999   2.856   3.545   4.263  0.4317 -0.0120  1.0291
 5170TIP3   OH237000   0.150   6.511  10.524  0.0826 -0.4462  0.0614
 5170TIP3    H137001   0.203   6.453  10.578 -0.1290 -1.3053 -0.6349
 5170TIP3    H237002   0.166   6.599  10.559  0.7815 -0.8706  0.8144
 5171TIP3   OH237003   5.862   5.779   2.570 -0.2858  0.2444  0.2497
 5171TIP3    H137004   5.861   5.683   2.560  0.5462  0.4095 -1.5566
 5171TIP3    H237005   5.889   5.812   2.485 -2.2278  2.1816  0.3269
 5172TIP3   OH237006   6.689   0.349  12.582  0.9556  0.2668 -0.1973
 5172TIP3    H137007   6.672   0.358  12.488  0.2325  0.4849 -0.0524
 5172TIP3    H237008   6.784   0.356  12.590  1.2247 -2.1126 -1.1480
 5173TIP3   OH237009   3.230   0.395  13.109  0.3207 -0.3680  0.7461
 5173TIP3    H137010   3.251   0.474  13.059  1.1649 -0.3572  1.1168
 5173TIP3    H237011   3.292   0.395  13.181 -0.0463 -1.0772  1.0653
 5174TIP3   OH237012   1.983   6.064   5.968  0.0432 -0.2913 -0.7645
 5174TIP3    H137013   1.896   6.042   6.001 -0.7942  1.0839 -1.9797
 5174TIP3    H237014   2.029   5.980   5.963 -1.4124 -1.1046 -0.6816
 5175TIP3   OH237015   5.326   5.674  13.609  0.7021 -0.4622  0.3815
 5175TIP3    H137016   5.362   5.713  13.529  0.2424  3.0682  1.7840
 5175TIP3    H237017   5.403   5.649  13.660  1.1638  1.8582  0.9110
 5176TIP3   OH237018   6.395   6.170   6.153  0.1302 -0.0733  0.1838
 5176TIP3    H137019   6.347   6.087   6.144  0.2156 -0.1640  0.5263
 5176TIP3    H237020   6.439   6.162   6.238 -1.1154  0.9565  0.9565
 5177TIP3   OH237021   3.178   1.221  14.701  0.4607 -0.5854  0.1238
 5177TIP3    H137022   3.236   1.182  14.636 -0.4154  1.0932 -1.7291
 5177TIP3    H237023   3.212   1.309  14.714  0.9301 -1.0728  2.3690
 5178TIP3   OH237024   6.162   1.313  15.099  0.0227 -0.4078  0.2400
 5178TIP3    H137025   6.152   1.408  15.092  1.3523 -0.1729  1.2794
 5178TIP3    H237026   6.183   1.298  15.191 -3.8211 -2.0850  0.9319
 5179TIP3   OH237027   4.094   0.665  14.504  0.2389 -0.1948  0.1101
 5179TIP3    H137028   4.076   0.701  14.591  2.2904 -0.0570  0.5137
 5179TIP3    H237029   4.158   0.726  14.466  2.3627 -2.3581  0.0866
 5180TIP3   OH237030   5.672   0.967  17.124  0.2766 -1.1127  0.2045
 5180TIP3    H137031   5.681   0.995  17.033  0.6916 -2.5738 -0.2107
 5180TIP3    H237032   5.714   0.882  17.128 -0.1469 -1.2768  1.6697
 5181TIP3   OH237033   4.606   5.126   0.915 -0.1967  0.1042 -0.1686
 5181TIP3    H137034   4.654   5.200   0.879  2.3075 -1.2463  0.2447
 5181TIP3    H237035   4.517   5.158   0.926  0.3520  2.3837 -1.9372
 5182TIP3   OH237036   2.500   1.943   0.517  0.0787 -0.6720  0.2178
 5182TIP3    H137037   2.455   1.999   0.455  0.7396  2.2778  2.2900
 5182TIP3    H237038   2.587   1.929   0.479  0.0055 -0.0407 -0.1879
 5183TIP3   OH237039   6.174   6.323   0.315 -0.3675  0.1397 -0.2676
 5183TIP3    H137040   6.091   6.365   0.291 -0.6383 -1.4321 -2.1208
 5183TIP3    H237041   6.149   6.257   0.379  0.0173  2.4587  2.3889
 5184TIP3   OH237042   2.345   3.290  15.273  0.1934 -0.0251 -0.2690
 5184TIP3    H137043   2.366   3.304  15.365  1.7308  0.8886 -0.7403
 5184TIP3    H237044   2.324   3.377  15.239 -2.0525 -0.5731 -0.4142
 5185TIP3   OH237045   6.632   3.711   4.335  0.0953 -0.5865  0.1131
 5185TIP3    H137046   6.672   3.717   4.422 -1.2453 -0.4247  0.7378
 5185TIP3    H237047   6.635   3.800   4.301 -1.8944 -0.0865  1.1673
 5186TIP3   OH237048   5.516   3.703  17.001  0.1722 -0.5933  0.0609
 5186TIP3    H137049   5.486   3.792  16.984  0.9543 -0.2953  0.2231
 5186TIP3    H237050   5.604   3.699  16.963 -0.5525 -1.8525 -1.5468
 5187TIP3   OH237051   2.858   4.137   3.595  0.0864  0.0326 -0.7289
 5187TIP3    H137052   2.789   4.094   3.544 -0.5963  0.6965 -0.3685
 5187TIP3    H237053   2.811   4.196   3.654  0.8259 -0.9459  0.8905
 5188TIP3   OH237054   3.218   2.932   0.796  0.2063 -0.2974 -0.5211
 5188TIP3    H137055   3.152   2.993   0.762  1.1034 -0.1704 -2.1080
 5188TIP3    H237056   3.255   2.891   0.718  1.1785 -1.2361  0.4121
 5189TIP3   OH237057   6.803   0.436   3.388  0.2051  0.2633  0.2398
 5189TIP3    H137058   6.788   0.438   3.294 -0.2117 -0.6924  0.2763
 5189TIP3    H237059   6.840   0.349   3.405  0.2500  0.4184  0.9580
 5190TIP3   OH237060   5.233   2.049  10.848  0.2781  0.4730  0.4213
 5190TIP3    H137061   5.200   2.135  10.820  0.5670  0.8830  1.3264
 5190TIP3    H237062   5.225   2.050  10.943 -0.8572 -0.9859  0.3463
 5191TIP3   OH237063   4.115   3.978   0.590  0.0942 -0.3328  0.3809
 5191TIP3    H137064   4.037   4.020   0.627  0.4360 -0.0777  0.8246
 5191TIP3    H237065   4.188   4.026   0.629  0.4949 -1.3410  0.8902
 5192TIP3   OH237066   0.823   0.706   2.178 -0.2948  0.1709 -0.0585
 5192TIP3    H137067   0.808   0.759   2.100  0.3075 -0.5028 -0.6422
 5192TIP3    H237068   0.900   0.652   2.157 -1.1240 -1.2175  0.3631
 5193TIP3   OH237069   1.143   4.483  12.918 -0.4658  0.1205  0.3188
 5193TIP3    H137070   1.080   4.554  12.929 -0.7967 -0.0184 -0.6280
 5193TIP3    H237071   1.145   4.466  12.823  1.0485  0.1675  0.3299
 5194TIP3   OH237072   5.292   0.145  13.433 -0.4282 -0.0533 -0.9642
 5194TIP3    H137073   5.225   0.213  13.440  0.2032  0.5751 -0.9205
 5194TIP3    H237074   5.244   0.063  13.438 -0.7452  0.2621  4.4813
 5195TIP3   OH237075   2.879   2.565   1.165 -0.1109  0.5246  0.1650
 5195TIP3    H137076   2.925   2.581   1.247 -1.8120  0.0591  1.2165
 5195TIP3    H237077   2.881   2.470   1.154  0.7757  0.6330 -0.7407
 5196TIP3   OH237078   5.309   2.030  16.073  0.5039  0.0086  0.3152
 5196TIP3    H137079   5.372   2.023  16.001 -0.1170 -1.9314 -0.0546
 5196TIP3    H237080   5.250   2.101  16.046  0.2821 -0.6855 -1.0968
 5197TIP3   OH237081   2.805   1.762  13.368 -0.3012 -0.7372 -0.1760
 5197TIP3    H137082   2.786   1.794  13.280 -1.6571 -0.3413  0.2479
 5197TIP3    H237083   2.749   1.684  13.378  1.3836 -2.0038 -0.4160
 5198TIP3   OH237084   5.184   4.588   0.822 -0.2381  0.5750  0.1333
 5198TIP3    H137085   5.259   4.636   0.858 -1.4535  3.0867 -0.5863
 5198TIP3    H237086   5.191   4.600   0.727 -0.9584 -0.0682 -0.0065
 5199TIP3   OH237087   4.192   1.592  14.894 -0.0574 -0.1240 -0.2670
 5199TIP3    H137088   4.271   1.642  14.875 -0.1461 -0.4201 -1.4232
 5199TIP3    H237089   4.225   1.513  14.937  0.1622  0.4101  0.5632
 5200TIP3   OH237090   3.614   1.328  13.538  0.1237  0.1440  0.1841
 5200TIP3    H137091   3.598   1.289  13.452  0.6519 -0.5472  0.3998
 5200TIP3    H237092   3.527   1.331  13.579 -0.3731  1.8187 -0.9196
 5201TIP3   OH237093   5.754   1.751  12.587 -0.0674 -0.0992  0.3579
 5201TIP3    H137094   5.818   1.790  12.528  0.4715 -0.1816  0.8758
 5201TIP3    H237095   5.796   1.671  12.618 -1.1849 -1.1040 -0.7193
 5202TIP3   OH237096   2.960   5.565   0.581 -0.1327  0.2583  0.1153
 5202TIP3    H137097   2.936   5.634   0.643 -0.3412 -0.9935  1.4492
 5202TIP3    H237098   2.877   5.542   0.539 -0.3852 -0.4111  0.9579
 5203TIP3   OH237099   1.809   6.219   3.799 -0.0450  0.8716  0.0040
 5203TIP3    H137100   1.721   6.199   3.832 -0.2187  4.2660  1.7995
 5203TIP3    H237101   1.805   6.194   3.706 -1.0220 -4.3938  1.2786
 5204TIP3   OH237102   1.792   0.388  16.412 -0.0134  0.4358 -0.0163
 5204TIP3    H137103   1.881   0.417  16.436 -0.6729  1.1442  1.6574
 5204TIP3    H237104   1.752   0.363  16.495 -0.7416 -1.7597 -0.9936
 5205TIP3   OH237105   0.322   2.059  16.364 -0.4281 -0.2413 -0.0547
 5205TIP3    H137106   0.236   2.023  16.343 -1.4520  0.3238  2.8749
 5205TIP3    H237107   0.376   1.983  16.387 -0.5603 -0.4807 -0.5429
 5206TIP3   OH237108   2.811   3.026   6.492 -0.2716  0.5651 -0.4879
 5206TIP3    H137109   2.808   3.120   6.512 -2.9305  0.0389  1.8779
 5206TIP3    H237110   2.724   3.008   6.455 -0.7753 -1.4779  1.6174
 5207TIP3   OH237111   4.249   2.885   2.788 -0.2091  0.2670 -0.0622
 5207TIP3    H137112   4.239   2.863   2.695  1.7700  1.7802 -0.6701
 5207TIP3    H237113   4.159   2.891   2.820 -0.8889 -1.9578 -1.4547
 5208TIP3   OH237114   5.167   2.085  12.625 -0.4693  0.4345  0.6036
 5208TIP3    H137115   5.083   2.046  12.601 -1.6435  2.9584  0.4658
 5208TIP3    H237116   5.162   2.094  12.720 -1.0682  2.0900  0.4349
 5209TIP3   OH237117   6.504   5.826  14.674 -0.2747  0.0573 -0.7130
 5209TIP3    H137118   6.562   5.838  14.599  1.2347  1.2413  0.6020
 5209TIP3    H237119   6.418   5.855  14.643  0.7808  2.7119 -1.3315
 5210TIP3   OH237120   5.859   0.441   2.587  0.0975 -0.2480 -0.6666
 5210TIP3    H137121   5.893   0.483   2.508 -0.4510  1.1867 -0.1729
 5210TIP3    H237122   5.768   0.472   2.592 -0.0247 -0.7431  0.2392
 5211TIP3   OH237123   6.038   4.548   5.464  0.1586 -0.0899  0.0690
 5211TIP3    H137124   6.071   4.487   5.399 -2.5449 -0.2356 -1.2334
 5211TIP3    H237125   6.027   4.495   5.543  0.8416 -0.5449 -0.1384
 5212TIP3   OH237126   6.633   1.382  12.486 -0.2317 -0.2912  0.2005
 5212TIP3    H137127   6.548   1.377  12.443  0.0552  1.0181 -0.5712
 5212TIP3    H237128   6.685   1.440  12.429  1.2094 -1.1688  0.5870
 5213TIP3   OH237129   3.902   2.657   2.026  0.2992  0.6415 -0.4708
 5213TIP3    H137130   3.810   2.648   2.051 -0.1442 -2.1182 -2.7987
 5213TIP3    H237131   3.911   2.748   1.999 -1.2965  1.3963  1.5045
 5214TIP3   OH237132   0.861   1.507  12.797  0.1426 -0.2116  0.0335
 5214TIP3    H137133   0.774   1.469  12.785 -0.0801  0.3336 -0.0790
 5214TIP3    H237134   0.903   1.499  12.711  0.1731 -0.3937  0.0649
 5215TIP3   OH237135   0.202   1.794  14.364  0.4476 -0.3217 -0.1004
 5215TIP3    H137136   0.130   1.822  14.307  0.9581  1.9658  0.3447
 5215TIP3    H237137   0.161   1.784  14.450  0.5460  0.4337  0.0352
 5216TIP3   OH237138   4.932   3.410  11.572 -0.2654  0.1546 -0.6491
 5216TIP3    H137139   4.907   3.360  11.650 -0.4625  0.3348 -0.5974
 5216TIP3    H237140   4.989   3.351  11.524 -2.0496 -0.8681 -1.5600
 5217TIP3   OH237141   0.666   4.018  12.618  0.6057 -0.8624 -0.3527
 5217TIP3    H137142   0.751   3.999  12.658 -0.4817 -0.9988  1.9431
 5217TIP3    H237143   0.655   4.112  12.627  0.5349 -0.8336 -0.7104
 5218TIP3   OH237144   2.710   3.391  13.607  0.0382 -0.3876  0.5122
 5218TIP3    H137145   2.737   3.415  13.696 -0.9524  0.7252  0.5280
 5218TIP3    H237146   2.771   3.437  13.550  0.5969 -1.0017  0.6085
 5219TIP3   OH237147   4.747   3.249  15.925 -0.3247  0.2698  0.2567
 5219TIP3    H137148   4.820   3.189  15.909  1.1011  1.8705  0.5537
 5219TIP3    H237149   4.696   3.205  15.993  0.3851 -0.8594  0.0900
 5220TIP3   OH237150   1.658   2.728  14.551 -0.4691 -0.0057  0.7368
 5220TIP3    H137151   1.697   2.644  14.528 -0.9989  0.5014 -2.1441
 5220TIP3    H237152   1.725   2.771  14.605  1.6421 -0.4717 -1.4390
 5221TIP3   OH237153   5.644   6.276  10.738 -0.1162  0.3498 -0.4564
 5221TIP3    H137154   5.687   6.274  10.653  1.0167  2.2244  0.0360
 5221TIP3    H237155   5.651   6.367  10.766  1.7921 -0.7220  2.7775
 5222TIP3   OH237156   4.262   2.618   6.398  0.0272 -0.2469 -0.0311
 5222TIP3    H137157   4.356   2.636   6.410  0.0367 -0.9807  1.0848
 5222TIP3    H237158   4.260   2.546   6.335  0.2526 -0.7672  0.5494
 5223TIP3   OH237159   2.917   2.767  14.490  0.1743  0.0291  0.4147
 5223TIP3    H137160   2.880   2.723  14.413  0.4309  0.7864 -0.1440
 5223TIP3    H237161   2.991   2.712  14.515  0.1789 -0.1483  0.0262
 5224TIP3   OH237162   5.246   5.834   5.435  0.0523  0.0443  0.0668
 5224TIP3    H137163   5.246   5.742   5.410 -0.4042 -0.1118  0.6515
 5224TIP3    H237164   5.204   5.836   5.521 -0.3769  0.8520 -0.1573
 5225TIP3   OH237165   6.153   4.191   1.032  0.2122 -0.0947  0.0344
 5225TIP3    H137166   6.109   4.183   1.117  2.0839 -1.6599  0.8928
 5225TIP3    H237167   6.162   4.286   1.019 -1.2814  0.1925  0.9446
 5226TIP3   OH237168   1.587   6.058   3.211  0.3899 -0.7161  0.4470
 5226TIP3    H137169   1.590   6.153   3.204  1.3753 -0.7108  0.8395
 5226TIP3    H237170   1.624   6.027   3.128 -2.7217 -0.8108 -0.9982
 5227TIP3   OH237171   2.607   6.592  15.024  0.1132 -0.2148  0.1445
 5227TIP3    H137172   2.520   6.630  15.037 -0.3506 -1.2529  0.1243
 5227TIP3    H237173   2.662   6.666  14.997 -0.5249  0.6328  1.1568
 5228TIP3   OH237174   4.051   2.545   6.661 -0.7618  0.4680  0.1403
 5228TIP3    H137175   3.972   2.494   6.678 -1.0357  0.5582 -0.8655
 5228TIP3    H237176   4.123   2.489   6.691 -1.0873 -0.3291 -0.5683
 5229TIP3   OH237177   3.779   0.535  14.744 -0.3145 -0.4011  0.0020
 5229TIP3    H137178   3.739   0.579  14.669 -2.8458 -1.1243  0.8884
 5229TIP3    H237179   3.793   0.445  14.714  0.0652 -0.3042 -0.1079
 5230TIP3   OH237180   5.651   1.246   1.055  0.0555 -0.2971  0.2686
 5230TIP3    H137181   5.641   1.311   0.985 -0.0989 -0.5692  0.0326
 5230TIP3    H237182   5.650   1.162   1.009 -2.9540 -0.6329  0.8454
 5231TIP3   OH237183   2.411   0.369   0.466 -0.2832 -0.1657  0.1305
 5231TIP3    H137184   2.384   0.290   0.419 -0.0078 -0.3341  0.2547
 5231TIP3    H237185   2.389   0.440   0.406  0.0488 -0.3768 -0.2535
 5232TIP3   OH237186   0.261   4.346   4.445  0.0086  0.1235 -0.1101
 5232TIP3    H137187   0.310   4.428   4.442 -0.0033  0.1075 -0.7583
 5232TIP3    H237188   0.195   4.355   4.376 -1.3637  0.4273  1.2164
 5233TIP3   OH237189   1.065   5.725  16.553  0.7035  0.3806 -0.2343
 5233TIP3    H137190   1.127   5.750  16.484  1.2199 -1.8466 -0.6286
 5233TIP3    H237191   1.114   5.738  16.635  0.0615  3.1063 -0.2341
 5234TIP3   OH237192   4.068   4.037   2.011  0.0162  0.6533  0.2887
 5234TIP3    H137193   4.134   4.001   2.070  0.0718  1.7441  0.9164
 5234TIP3    H237194   3.990   3.983   2.026  0.0127  0.9554  1.4257
 5235TIP3   OH237195   6.492   5.528  15.797  0.2950 -0.5987  0.0370
 5235TIP3    H137196   6.550   5.465  15.841 -1.2032 -0.9183  1.6006
 5235TIP3    H237197   6.404   5.501  15.821 -0.3883  2.2078  0.9393
 5236TIP3   OH237198   1.931   0.821  12.009 -0.1444 -0.1976 -0.6051
 5236TIP3    H137199   2.022   0.794  12.022 -0.2832 -0.3852  0.0202
 5236TIP3    H237200   1.927   0.852  11.918  0.8770  1.1486 -0.2133
 5237TIP3   OH237201   5.588   5.323  11.339 -0.2329 -0.5653  0.0207
 5237TIP3    H137202   5.581   5.252  11.403  1.9688 -1.2116 -0.4162
 5237TIP3    H237203   5.528   5.390  11.371 -1.3018 -2.0442  1.2019
 5238TIP3   OH237204   4.655   5.850   5.104 -0.1293 -0.2731 -0.0787
 5238TIP3    H137205   4.616   5.862   5.190 -0.8753 -0.0716 -0.4342
 5238TIP3    H237206   4.580   5.829   5.047 -0.1330  2.9894 -1.3484
 5239TIP3   OH237207   3.494   2.444   5.573 -0.2333 -0.2197  0.5032
 5239TIP3    H137208   3.575   2.445   5.521  0.3083 -0.9139  1.3189
 5239TIP3    H237209   3.492   2.529   5.616  1.5898 -1.2774  2.7750
 5240TIP3   OH237210   5.650   1.053  12.633  0.0884  0.3771  0.2112
 5240TIP3    H137211   5.568   1.044  12.584 -0.2129  0.8696  0.6220
 5240TIP3    H237212   5.625   1.042  12.724  0.7855 -1.3611  0.2083
 5241TIP3   OH237213   4.057   0.167   3.736  0.3374  0.3347 -0.0232
 5241TIP3    H137214   3.975   0.170   3.687 -1.9752  0.0641  3.6425
 5241TIP3    H237215   4.097   0.084   3.710 -1.9848 -0.9210  0.3040
 5242TIP3   OH237216   4.685   2.408   6.192  0.6088 -0.1349  0.0601
 5242TIP3    H137217   4.742   2.406   6.269  0.2027 -0.9677  0.3424
 5242TIP3    H237218   4.663   2.316   6.176  1.9723 -0.1451 -2.0036
 5243TIP3   OH237219   5.507   2.482  12.974  0.0079  0.3994 -0.0281
 5243TIP3    H137220   5.591   2.438  12.960 -0.4760 -0.5337 -0.0405
 5243TIP3    H237221   5.447   2.438  12.913 -0.4118  1.2904 -0.2664
 5244TIP3   OH237222   0.638   4.337  14.541  0.6450  0.4332 -0.2839
 5244TIP3    H137223   0.572   4.275  14.572 -0.6313  1.6543 -0.4748
 5244TIP3    H237224   0.722   4.299  14.568 -0.1366 -1.1083  0.0266
 5245TIP3   OH237225   1.945   3.939  11.530  0.1067 -0.5800  0.4545
 5245TIP3    H137226   1.986   3.976  11.609  0.5573  0.5562 -0.2940
 5245TIP3    H237227   2.016   3.937  11.466 -0.7014  0.2136 -0.4750
 5246TIP3   OH237228   4.214   3.206  16.479 -0.1398 -0.4550  0.3788
 5246TIP3    H137229   4.135   3.253  16.507  0.0293  1.1551 -1.7418
 5246TIP3    H237230   4.282   3.236  16.539 -0.2536  1.2971 -0.3325
 5247TIP3   OH237231   5.377   4.859  14.344  0.3628  0.1236 -0.1655
 5247TIP3    H137232   5.389   4.914  14.421 -1.0205  0.6434 -0.3013
 5247TIP3    H237233   5.333   4.780  14.376  0.0454  0.2138 -0.3737
 5248TIP3   OH237234   2.966   2.799  10.809 -0.2633 -0.2099 -0.5870
 5248TIP3    H137235   3.061   2.796  10.812 -0.2436  0.5041 -0.3881
 5248TIP3    H237236   2.945   2.848  10.730 -0.4825 -1.1350 -1.1069
 5249TIP3   OH237237   6.678   0.935   4.760  0.3850 -0.2443 -0.0371
 5249TIP3    H137238   6.700   0.911   4.850  0.3380 -0.9586 -0.2141
 5249TIP3    H237239   6.710   0.862   4.707 -0.7789 -0.4565 -0.4690
 5250TIP3   OH237240   3.119   6.495   4.213 -0.2409 -0.5232  0.3403
 5250TIP3    H137241   3.183   6.476   4.145  0.9093 -2.1537  1.7965
 5250TIP3    H237242   3.044   6.439   4.192  0.1565 -1.1078  0.4635
 5251TIP3   OH237243   6.237   5.246  14.585  0.3026  0.0880 -0.2704
 5251TIP3    H137244   6.208   5.177  14.643 -0.5088  1.2687  0.7594
 5251TIP3    H237245   6.330   5.228  14.570  0.3557 -0.5942  0.8729
 5252TIP3   OH237246   1.057   2.779  12.867 -0.0275 -0.6863 -0.1923
 5252TIP3    H137247   1.054   2.734  12.783 -0.2129 -0.4772 -0.2995
 5252TIP3    H237248   1.055   2.709  12.932 -1.1260 -0.8054 -0.3448
 5253TIP3   OH237249   5.601   3.814  11.909  0.0718  0.6055 -0.5939
 5253TIP3    H137250   5.692   3.835  11.929  0.8359 -2.7730 -0.2415
 5253TIP3    H237251   5.590   3.842  11.818  1.4984  0.9474 -0.6792
 5254TIP3   OH237252   6.718   4.507  10.601 -0.4572  0.1309 -0.4661
 5254TIP3    H137253   6.734   4.449  10.675 -0.3811  0.4449 -0.2341
 5254TIP3    H237254   6.625   4.528  10.607 -0.8194 -1.1320 -1.4007
 5255TIP3   OH237255   6.044   5.977   6.488  0.0574  0.5244  0.6228
 5255TIP3    H137256   6.025   5.910   6.553  1.2595 -0.6181 -0.1995
 5255TIP3    H237257   6.035   5.933   6.403  1.2441  1.2692  0.0844
 5256TIP3   OH237258   0.180   1.496  15.668 -0.1147  0.0438 -0.2173
 5256TIP3    H137259   0.173   1.403  15.644 -2.6175  0.0980  0.1230
 5256TIP3    H237260   0.270   1.520  15.648  0.8358 -2.7221  0.5569
 5257TIP3   OH237261   6.436   6.568  10.697 -0.3643 -0.3166  0.3157
 5257TIP3    H137262   6.419   6.626  10.622  0.0178  1.7465  1.7805
 5257TIP3    H237263   6.402   6.483  10.670 -1.7827  0.8088 -1.5435
 5258TIP3   OH237264   3.525   2.943   5.356  0.4754 -0.2659  0.2808
 5258TIP3    H137265   3.506   3.027   5.398  0.9065  0.2695 -0.6015
 5258TIP3    H237266   3.439   2.907   5.336  0.2829 -0.1694  0.9082
 5259TIP3   OH237267   0.578   0.766  11.713  0.1233  0.0865  0.4530
 5259TIP3    H137268   0.647   0.807  11.661 -0.1924  0.5197  0.3753
 5259TIP3    H237269   0.565   0.680  11.672 -1.9291  1.4246 -1.7771
 5260TIP3   OH237270   6.310   0.564  14.843  0.1347  0.7262  0.0210
 5260TIP3    H137271   6.363   0.625  14.792  0.2176  1.8264  1.4046
 5260TIP3    H237272   6.242   0.535  14.782  0.5516  1.5900 -0.8741
 5261TIP3   OH237273   6.283   2.248  14.069 -0.4512 -0.9571  0.3421
 5261TIP3    H137274   6.343   2.284  14.004 -0.6977 -0.1259  0.5670
 5261TIP3    H237275   6.337   2.237  14.147 -0.6950  0.2835  0.7048
 5262TIP3   OH237276   1.828   5.386   0.777  0.1444  0.3009 -0.2738
 5262TIP3    H137277   1.872   5.310   0.739  0.3363  0.6252 -0.6987
 5262TIP3    H237278   1.896   5.430   0.828  0.4305  1.0518 -1.2960
 5263TIP3   OH237279   1.868   5.949  14.746  0.4480  0.0235  0.2560
 5263TIP3    H137280   1.779   5.923  14.721  0.9812 -1.8288  0.2002
 5263TIP3    H237281   1.866   6.045  14.745 -1.0722  0.0079 -1.4086
 5264TIP3   OH237282   5.150   3.035  15.505 -0.3581 -0.1370  1.2722
 5264TIP3    H137283   5.217   3.005  15.567  1.2878 -0.5554 -0.6890
 5264TIP3    H237284   5.178   3.002  15.420 -2.0462  1.3114  0.1109
 5265TIP3   OH237285   5.615   2.400   1.866  0.5429  0.5608 -0.3217
 5265TIP3    H137286   5.698   2.355   1.851  0.6674  0.9686 -0.8835
 5265TIP3    H237287   5.581   2.363   1.947  0.7066 -0.4507 -0.7106
 5266TIP3   OH237288   4.010   1.577   6.703  0.4139 -0.6811 -0.3125
 5266TIP3    H137289   4.093   1.566   6.655 -0.5105 -0.6406 -1.9698
 5266TIP3    H237290   4.026   1.537   6.788  1.6646 -2.0227 -1.1524
 5267TIP3   OH237291   0.080   1.847  11.741 -0.1648  0.0159 -0.2391
 5267TIP3    H137292   0.035   1.902  11.677  1.4451 -0.1844 -1.5600
 5267TIP3    H237293   0.011   1.790  11.775 -1.2541  0.8372 -1.0162
 5268TIP3   OH237294   2.153   0.427  15.328  0.2359  0.5360 -0.1595
 5268TIP3    H137295   2.064   0.422  15.362  0.0217  1.5889 -0.5500
 5268TIP3    H237296   2.209   0.418  15.405 -0.2022 -0.3350  0.0630
 5269TIP3   OH237297   6.815   4.100   2.461  0.6876 -0.1742  0.4621
 5269TIP3    H137298   6.741   4.039   2.461  1.6800 -1.3809  0.8608
 5269TIP3    H237299   6.836   4.112   2.554  1.3475 -0.2738  0.3260
 5270TIP3   OH237300   3.458   6.009   2.107 -0.0959 -0.0709 -0.3709
 5270TIP3    H137301   3.442   6.103   2.119  1.2133  0.4257 -2.1992
 5270TIP3    H237302   3.379   5.977   2.063 -1.0170 -0.0560  1.2677
 5271TIP3   OH237303   3.648   6.480  15.808 -0.1978 -0.5808 -0.3840
 5271TIP3    H137304   3.641   6.389  15.780 -1.9859 -0.6320  0.1097
 5271TIP3    H237305   3.601   6.530  15.741 -0.2959 -0.1765 -0.0191
 5272TIP3   OH237306   2.223   2.767  12.122  0.0894 -0.2533 -0.4526
 5272TIP3    H137307   2.295   2.813  12.080  0.1173  0.2261  0.1266
 5272TIP3    H237308   2.159   2.835  12.144 -0.5372 -0.6690 -0.9492
 5273TIP3   OH237309   6.523   1.215   5.724 -0.2755  0.0617 -0.4891
 5273TIP3    H137310   6.477   1.240   5.643  0.2480  1.0508 -0.4898
 5273TIP3    H237311   6.530   1.297   5.773 -0.4362 -0.5052  0.4869
 5274TIP3   OH237312   4.038   5.362  13.870 -0.3230 -0.2247  0.2672
 5274TIP3    H137313   4.092   5.439  13.851 -0.6003  0.1729  1.0564
 5274TIP3    H237314   4.083   5.318  13.942 -1.1148  0.1899  1.0281
 5275TIP3   OH237315   1.268   5.083   4.626  0.6939 -0.5791 -0.3458
 5275TIP3    H137316   1.286   5.039   4.709 -1.6372 -1.5339 -0.2920
 5275TIP3    H237317   1.304   5.024   4.560  2.4092  0.1053 -0.0536
 5276TIP3   OH237318   0.579   0.937  16.624  0.6366 -0.1112  0.4439
 5276TIP3    H137319   0.591   0.843  16.618  0.8841 -0.0756  0.3702
 5276TIP3    H237320   0.645   0.966  16.687  1.8106  0.2545 -0.9202
 5277TIP3   OH237321   6.581   2.737   5.513  0.2065 -0.6765 -0.4293
 5277TIP3    H137322   6.574   2.832   5.497  3.5170 -0.4848 -1.1416
 5277TIP3    H237323   6.543   2.697   5.435 -2.4715  0.0140  0.4753
 5278TIP3   OH237324   5.562   2.517  14.617 -0.5529  0.4805  0.1749
 5278TIP3    H137325   5.493   2.550  14.673 -0.1012  1.4229  0.1873
 5278TIP3    H237326   5.532   2.534  14.528 -1.2436 -0.9586  0.1200
 5279TIP3   OH237327   2.910   6.442   0.745 -0.4286 -0.2787 -0.1826
 5279TIP3    H137328   2.910   6.491   0.828  0.9995  2.2996 -1.6315
 5279TIP3    H237329   2.980   6.377   0.756 -0.2637  0.0314  0.6537
 5280TIP3   OH237330   0.815   3.797   5.249  0.3324  0.0200  0.2424
 5280TIP3    H137331   0.828   3.817   5.342  0.6853 -1.1748  0.4524
 5280TIP3    H237332   0.898   3.823   5.208  1.0575 -1.6688  0.6247
 5281TIP3   OH237333   2.632   5.211   1.609  0.0433 -0.3774 -0.1146
 5281TIP3    H137334   2.655   5.161   1.687 -0.2537  0.7023  0.6822
 5281TIP3    H237335   2.691   5.179   1.542  0.0431 -1.5930  0.4553
 5282TIP3   OH237336   0.208   1.885   4.250 -0.5799  0.4088 -0.3583
 5282TIP3    H137337   0.198   1.886   4.345 -1.3793 -1.1452 -0.3970
 5282TIP3    H237338   0.295   1.848   4.236 -0.1807  1.2963 -0.2188
 5283TIP3   OH237339   1.558   5.131   4.761 -0.4971  0.4601 -0.2816
 5283TIP3    H137340   1.525   5.041   4.771  0.0451  0.2896 -0.0223
 5283TIP3    H237341   1.525   5.177   4.838  1.9378 -0.3326  1.2876
 5284TIP3   OH237342   3.234   2.609  13.383 -0.0309  0.8606  0.0516
 5284TIP3    H137343   3.301   2.676  13.397 -0.5627  1.5519 -0.6403
 5284TIP3    H237344   3.184   2.606  13.464  1.9261 -0.9185  1.2346
 5285TIP3   OH237345   2.645   2.257   4.435 -0.6197 -0.6726  0.1841
 5285TIP3    H137346   2.558   2.256   4.474 -0.5299  0.5738  0.4597
 5285TIP3    H237347   2.698   2.307   4.497 -0.2297  0.4601 -1.0250
 5286TIP3   OH237348   3.415   2.701  16.081 -0.4004  0.7018 -0.1832
 5286TIP3    H137349   3.429   2.719  15.988  3.0759 -1.3886 -0.1704
 5286TIP3    H237350   3.425   2.607  16.089 -0.6805  0.8428  2.3314
 5287TIP3   OH237351   6.595   5.439   0.950  0.2641 -0.2851  0.6687
 5287TIP3    H137352   6.682   5.475   0.968  0.4982 -0.0099 -0.9132
 5287TIP3    H237353   6.593   5.429   0.855 -0.7337 -2.1092  0.8726
 5288TIP3   OH237354   1.751   0.961  16.879 -0.3219  0.2550 -0.6542
 5288TIP3    H137355   1.661   0.945  16.908 -0.1432 -0.2247 -0.3421
 5288TIP3    H237356   1.788   0.873  16.869 -0.2117  0.4294 -1.8123
 5289TIP3   OH237357   0.970   2.177  16.128 -0.1496 -0.0227 -0.6623
 5289TIP3    H137358   0.892   2.126  16.148  0.4915 -1.1608 -0.9986
 5289TIP3    H237359   0.939   2.251  16.077 -0.9278 -0.7850 -1.2822
 5290TIP3   OH237360   4.109   0.728  11.361 -0.5512 -0.4135 -0.4984
 5290TIP3    H137361   4.075   0.639  11.373 -1.2188 -0.0893  0.0474
 5290TIP3    H237362   4.034   0.778  11.327 -0.9589  0.5683  1.7883
 5291TIP3   OH237363   5.947   4.433  14.770 -0.0286 -0.7428  0.1508
 5291TIP3    H137364   5.934   4.486  14.849 -1.0571 -1.3172  0.3664
 5291TIP3    H237365   5.879   4.463  14.709 -1.5387 -2.8213  0.7951
 5292TIP3   OH237366   6.413   2.936  12.602  0.5661 -0.2244 -0.0459
 5292TIP3    H137367   6.342   2.999  12.590  0.4844 -0.2589  0.2697
 5292TIP3    H237368   6.486   2.988  12.636  0.5527 -0.2694  0.0512
 5293TIP3   OH237369   0.989   5.602  12.257 -0.9294 -0.1089  0.6270
 5293TIP3    H137370   1.019   5.578  12.344  1.2688  2.7229  0.7335
 5293TIP3    H237371   1.017   5.529  12.201 -1.1301 -1.2915  2.0392
 5294TIP3   OH237372   2.373   1.998  11.831  0.4800  0.1461 -0.5282
 5294TIP3    H137373   2.279   1.982  11.824  0.3502 -1.4202  3.6730
 5294TIP3    H237374   2.385   2.036  11.918  3.8829 -0.9384 -0.4566
 5295TIP3   OH237375   4.302   0.104  15.049 -0.4328  0.4983  0.0605
 5295TIP3    H137376   4.252   0.094  15.130 -0.9187  3.7668  0.2240
 5295TIP3    H237377   4.343   0.190  15.056  0.1917  0.5024 -2.8301
 5296TIP3   OH237378   4.620   6.774  15.309 -1.1421 -0.0272 -0.5761
 5296TIP3    H137379   4.601   6.826  15.232 -0.5899  0.3831 -0.4384
 5296TIP3    H237380   4.594   6.828  15.383  1.7498  1.1200 -0.3193
 5297TIP3   OH237381   1.682   1.056   0.325 -0.2478 -0.3726  0.3084
 5297TIP3    H137382   1.716   0.981   0.276 -0.1181  0.5060 -1.0012
 5297TIP3    H237383   1.756   1.117   0.330 -0.5184 -0.0883  0.8279
 5298TIP3   OH237384   6.543   6.046   5.287 -0.4682  0.5191  0.3891
 5298TIP3    H137385   6.451   6.028   5.308  0.0711  1.2465  3.6355
 5298TIP3    H237386   6.592   5.983   5.340  0.9714  1.1336 -0.2001
 5299TIP3   OH237387   4.203   3.208  12.478 -0.1291  0.0300  0.5296
 5299TIP3    H137388   4.221   3.114  12.469 -1.5522 -0.3860  1.8131
 5299TIP3    H237389   4.271   3.239  12.539  0.7064 -0.0243 -0.3527
 5300TIP3   OH237390   1.700   3.328  15.435  0.0179 -0.0685  0.4082
 5300TIP3    H137391   1.731   3.239  15.416  0.7152  0.2687 -0.0413
 5300TIP3    H237392   1.608   3.316  15.460 -0.7564 -0.6220 -2.5337
 5301TIP3   OH237393   5.867   0.322   1.481  0.2521 -0.0140 -0.2702
 5301TIP3    H137394   5.946   0.359   1.519  0.6884 -0.0538 -1.1262
 5301TIP3    H237395   5.876   0.337   1.387 -0.7978  0.0657 -0.3725
 5302TIP3   OH237396   3.342   3.287   4.145 -0.3085 -0.4958  0.3282
 5302TIP3    H137397   3.428   3.261   4.111  0.4862  1.0750  1.0761
 5302TIP3    H237398   3.287   3.292   4.067 -0.0018 -2.4527 -0.0505
 5303TIP3   OH237399   2.713   1.937  16.129  0.9322 -0.4636 -0.2325
 5303TIP3    H137400   2.633   1.885  16.135  0.1354  0.8440  0.8323
 5303TIP3    H237401   2.746   1.920  16.041 -0.7731 -0.6740 -0.8607
 5304TIP3   OH237402   5.383   6.660   3.560 -0.8351  0.3216  0.0135
 5304TIP3    H137403   5.343   6.604   3.494  3.0388 -1.2065 -1.1667
 5304TIP3    H237404   5.373   6.748   3.526 -2.3119 -0.0757 -0.6569
 5305TIP3   OH237405   4.425   6.782  14.563 -0.1750 -0.6549 -0.0632
 5305TIP3    H137406   4.365   6.840  14.514 -0.3683  0.3509  1.3251
 5305TIP3    H237407   4.512   6.817  14.545 -0.3497  0.5463  1.3782
 5306TIP3   OH237408   5.486   0.154   4.408  0.0690 -0.4089 -0.2708
 5306TIP3    H137409   5.563   0.210   4.410  0.0367 -0.3343 -1.0887
 5306TIP3    H237410   5.520   0.067   4.386  0.0948 -0.6684  0.7832
 5307TIP3   OH237411   5.870   6.466   5.963 -0.3683 -0.0741  0.0860
 5307TIP3    H137412   5.923   6.389   5.942 -1.4108 -0.7885  0.0775
 5307TIP3    H237413   5.933   6.538   5.964  1.2015 -1.3997  3.2836
 5308TIP3   OH237414   6.417   4.947  11.427  0.0908  0.0836  0.3772
 5308TIP3    H137415   6.436   5.039  11.445  0.3935  0.2930 -0.9993
 5308TIP3    H237416   6.445   4.933  11.337 -0.9947 -1.0735  0.1965
 5309TIP3   OH237417   5.683   3.331   4.467  0.8005  0.8928 -0.4362
 5309TIP3    H137418   5.710   3.401   4.526 -0.6950  2.3640 -1.4591
 5309TIP3    H237419   5.677   3.373   4.381  0.1004 -0.5428 -1.1108
 5310TIP3   OH237420   6.290   1.191  15.380 -0.3610 -0.1818 -0.3411
 5310TIP3    H137421   6.310   1.127  15.312 -1.3327  0.4872 -1.2888
 5310TIP3    H237422   6.346   1.168  15.453 -0.1780 -1.6626 -0.9392
 5311TIP3   OH237423   4.420   4.640   4.276  0.0727 -0.5225  0.6929
 5311TIP3    H137424   4.362   4.687   4.335  0.1762 -0.3041  0.6218
 5311TIP3    H237425   4.458   4.708   4.220 -0.4298 -0.7827  0.0187
 5312TIP3   OH237426   6.557   5.355   5.131  0.3329  0.3897 -0.4295
 5312TIP3    H137427   6.604   5.438   5.139  2.4488 -0.8935  1.0583
 5312TIP3    H237428   6.571   5.328   5.040  0.7318  1.0056 -0.5537
 5313TIP3   OH237429   1.564   3.325   5.949  0.2171 -0.0347  0.2062
 5313TIP3    H137430   1.627   3.257   5.923 -0.3913  0.0224 -1.5348
 5313TIP3    H237431   1.596   3.404   5.905 -1.2477 -0.0929 -1.0214
 5314TIP3   OH237432   6.520   5.310   3.827 -0.7962 -0.2169 -0.3827
 5314TIP3    H137433   6.509   5.355   3.743 -0.7379  0.8770  0.1966
 5314TIP3    H237434   6.587   5.243   3.809  1.3125  1.8703 -0.4934
 5315TIP3   OH237435   0.045   6.729  12.809  0.3686 -0.3567  0.3127
 5315TIP3    H137436   0.041   6.635  12.794  0.1592 -1.0554  4.1762
 5315TIP3    H237437   0.130   6.743  12.851 -0.0434  1.0131  0.7135
 5316TIP3   OH237438   3.539   0.378   3.921 -0.2485  0.4333  0.7332
 5316TIP3    H137439   3.624   0.367   3.964 -0.1318  0.2115  0.4425
 5316TIP3    H237440   3.500   0.291   3.923 -0.7833  0.6818  1.5192
 5317TIP3   OH237441   5.115   5.851   5.148  0.4981 -0.8365  0.4752
 5317TIP3    H137442   5.148   5.867   5.236 -0.5708  0.5800  0.6169
 5317TIP3    H237443   5.047   5.916   5.134  0.6896 -0.9896 -1.4249
 5318TIP3   OH237444   6.575   2.080  13.746 -0.5118 -0.0331  0.1015
 5318TIP3    H137445   6.564   2.107  13.655  0.3852  2.2525  0.6413
 5318TIP3    H237446   6.623   1.998  13.742  0.2947  0.5087 -1.4638
 5319TIP3   OH237447   5.915   5.132   0.882 -0.3521 -0.2806 -0.1168
 5319TIP3    H137448   5.979   5.075   0.840 -0.5838 -0.7011  0.1026
 5319TIP3    H237449   5.887   5.193   0.813 -0.3567 -0.6436 -0.4344
 5320TIP3   OH237450   0.033   0.929  15.497  0.0335 -0.3322 -0.3675
 5320TIP3    H137451   0.074   0.877  15.566  1.2856  1.3134  0.1567
 5320TIP3    H237452  -0.025   0.990  15.543 -0.6579 -0.5699 -0.9065
 5321TIP3   OH237453   2.443   6.146   4.984  0.5681  0.7019 -0.4203
 5321TIP3    H137454   2.462   6.053   4.971  1.1889  0.8265 -0.4140
 5321TIP3    H237455   2.524   6.182   5.021 -0.7190  0.6022  2.6702
 5322TIP3   OH237456   3.447   6.008  14.488 -0.2579 -0.3757  0.3684
 5322TIP3    H137457   3.425   5.918  14.462  0.6638  0.0842 -2.2104
 5322TIP3    H237458   3.366   6.057  14.476 -0.4058 -0.5950  0.4643
 5323TIP3   OH237459   2.145   0.581   1.197 -0.2700  0.1792 -0.1566
 5323TIP3    H137460   2.155   0.516   1.127  0.7712  1.7778 -1.5369
 5323TIP3    H237461   2.153   0.666   1.153 -2.3350  1.2924  1.4996
 5324TIP3   OH237462   6.117   1.030  16.212  0.7498 -0.2025 -0.2237
 5324TIP3    H137463   6.197   0.986  16.184  0.1421 -1.2531 -0.3136
 5324TIP3    H237464   6.148   1.099  16.271  1.7188 -0.6136 -0.2290
 5325TIP3   OH237465   2.950   6.287  12.028  0.5639 -0.1374  0.0473
 5325TIP3    H137466   2.947   6.198  11.993 -0.7460 -0.0949  0.0263
 5325TIP3    H237467   2.929   6.343  11.953  2.8770  0.3098 -0.3057
 5326TIP3   OH237468   3.356   4.736  11.378 -0.4700 -0.3291 -0.0284
 5326TIP3    H137469   3.417   4.768  11.312  0.1896 -0.8150  0.3389
 5326TIP3    H237470   3.274   4.722  11.331 -0.2404  0.1289 -0.5651
 5327TIP3   OH237471   6.077   0.568   0.245 -0.1253  0.0836 -0.3921
 5327TIP3    H137472   6.065   0.661   0.268  2.0405  0.5118 -0.8748
 5327TIP3    H237473   6.116   0.570   0.157  0.1940 -1.2789 -0.2873
 5328TIP3   OH237474   3.191   1.939  13.545 -0.3804 -0.2133 -1.1428
 5328TIP3    H137475   3.238   1.860  13.572 -1.4970 -0.0741  1.3319
 5328TIP3    H237476   3.152   1.972  13.625 -1.9677  1.5091 -2.5803
 5329TIP3   OH237477   2.416   5.984  17.081 -0.2469 -0.1820 -0.0188
 5329TIP3    H137478   2.500   6.026  17.098  0.0435 -0.7842  0.0350
 5329TIP3    H237479   2.351   6.053  17.096  0.1448 -0.0922  1.2792
 5330TIP3   OH237480   6.711   5.468   3.086  0.0558  0.5987 -0.0530
 5330TIP3    H137481   6.720   5.423   3.170  2.1787  0.8930 -0.0946
 5330TIP3    H237482   6.620   5.452   3.060 -1.0981  1.7883  2.9904
 5331TIP3   OH237483   4.551   3.331   2.954  0.3074 -0.2505  0.6099
 5331TIP3    H137484   4.456   3.332   2.966  0.3328 -1.6787  1.0671
 5331TIP3    H237485   4.574   3.421   2.932 -1.0175  0.3582  1.6580
 5332TIP3   OH237486   4.193   4.807  14.837  0.2380  0.1996 -0.0282
 5332TIP3    H137487   4.124   4.754  14.796 -0.8378  1.0717  0.6103
 5332TIP3    H237488   4.194   4.779  14.928  0.9411 -0.0218 -0.1037
 5333TIP3   OH237489   2.309   5.720   0.489 -0.6613  0.0282 -0.1316
 5333TIP3    H137490   2.378   5.674   0.440 -1.6890  0.1261 -1.7109
 5333TIP3    H237491   2.228   5.691   0.448 -1.4564  1.3434  0.5032
 5334TIP3   OH237492   4.772   1.020   2.003 -0.2861  0.0180  0.1344
 5334TIP3    H137493   4.777   1.041   1.910 -1.3678  1.1940  0.3343
 5334TIP3    H237494   4.697   0.960   2.010 -0.8194  0.7161  0.3898
 5335TIP3   OH237495   1.469   4.513   4.836 -0.2918 -0.0880  0.1971
 5335TIP3    H137496   1.501   4.562   4.912 -0.7784 -0.1717  0.4547
 5335TIP3    H237497   1.481   4.573   4.762 -0.4785  0.2555  0.4456
 5336TIP3   OH237498   1.777   6.684  14.834  0.2045  0.1805  0.8143
 5336TIP3    H137499   1.835   6.608  14.822 -2.8925 -2.6593  2.9237
 5336TIP3    H237500   1.808   6.724  14.915  0.2682 -0.3433  1.0553
 5337TIP3   OH237501   3.877   6.240  12.834 -0.8789 -0.6553 -0.3776
 5337TIP3    H137502   3.938   6.312  12.852 -1.2073 -0.3626 -0.4329
 5337TIP3    H237503   3.864   6.199  12.920 -1.9700  0.3694 -0.0386
 5338TIP3   OH237504   5.475   1.521  14.731 -0.0467  0.2971 -0.2986
 5338TIP3    H137505   5.442   1.611  14.730  0.3832  0.4840  0.9058
 5338TIP3    H237506   5.401   1.469  14.763  0.2593  0.4848  0.7528
 5339TIP3   OH237507   3.058   0.518  12.846 -0.0463  0.3466  0.3084
 5339TIP3    H137508   3.139   0.510  12.796 -0.4385 -0.1848 -0.2604
 5339TIP3    H237509   3.025   0.428  12.852  1.0216  0.1005  3.2794
 5340TIP3   OH237510   0.981   4.835  17.003 -0.0372 -0.0587 -0.0638
 5340TIP3    H137511   0.919   4.908  17.006  0.4306  0.4019 -1.4274
 5340TIP3    H237512   1.041   4.852  17.075  0.0159  0.8557 -0.3154
 5341TIP3   OH237513   1.725   5.842   1.126 -0.8058  0.2156 -0.0375
 5341TIP3    H137514   1.670   5.780   1.174 -2.0068  0.0818 -1.5528
 5341TIP3    H237515   1.675   5.863   1.048  0.6726  1.2245 -0.7366
 5342TIP3   OH237516   5.095   3.800  17.263  0.7964  0.2007  0.2783
 5342TIP3    H137517   5.018   3.841  17.302  0.7095 -0.8187  1.2001
 5342TIP3    H237518   5.115   3.854  17.187 -0.8357  0.4703  0.0195
 5343TIP3   OH237519   4.053   4.209   1.793 -1.0657 -0.0613 -0.0857
 5343TIP3    H137520   4.080   4.160   1.871 -0.7925 -0.4137 -0.3991
 5343TIP3    H237521   4.021   4.142   1.732 -2.1870  0.3016  0.0830
 5344TIP3   OH237522   2.417   4.854   3.669 -0.3072 -0.1173  0.1034
 5344TIP3    H137523   2.481   4.889   3.608 -0.7483 -3.1149 -2.2424
 5344TIP3    H237524   2.336   4.900   3.648  0.1810  0.8654  0.3689
 5345TIP3   OH237525   6.076   6.701  12.889  0.4193  0.0694 -0.1934
 5345TIP3    H137526   6.106   6.630  12.946  4.0992  1.2993 -0.5002
 5345TIP3    H237527   6.083   6.779  12.943 -0.5909  0.6444 -0.8749
 5346TIP3   OH237528   5.197   2.107  13.294 -0.2114 -0.0324  0.3881
 5346TIP3    H137529   5.157   2.106  13.207 -2.0244  1.4641  1.1719
 5346TIP3    H237530   5.141   2.048  13.346 -1.0629  1.5792  1.3311
 5347TIP3   OH237531   2.092   0.140   3.386 -0.0289 -0.3447 -0.4995
 5347TIP3    H137532   2.118   0.202   3.318 -0.5256  0.8861  0.3861
 5347TIP3    H237533   2.170   0.133   3.442 -0.2415  0.1467 -0.1346
 5348TIP3   OH237534   3.375   1.363   0.841 -0.3202 -0.2270  0.2284
 5348TIP3    H137535   3.431   1.352   0.765  0.6890  1.2072  0.7437
 5348TIP3    H237536   3.410   1.441   0.886 -2.9403  0.9282  0.3475
 5349TIP3   OH237537   0.463   6.691  15.419 -0.8273 -0.9710  0.1979
 5349TIP3    H137538   0.441   6.687  15.326 -1.8112 -0.5262  0.4073
 5349TIP3    H237539   0.403   6.757  15.455 -0.6243 -1.3256  1.1923
 5350TIP3   OH237540   0.833   6.525   1.883  0.8787  0.0284 -0.4146
 5350TIP3    H137541   0.849   6.462   1.812  0.7682  0.7676 -1.0960
 5350TIP3    H237542   0.857   6.610   1.847 -2.8324  0.9573 -0.8976
 5351TIP3   OH237543   3.674   3.428   2.141 -0.2037  0.1922 -0.0928
 5351TIP3    H137544   3.738   3.478   2.191 -0.2567  0.4546 -0.2876
 5351TIP3    H237545   3.706   3.433   2.050  1.3215 -2.4389  0.2447
 5352TIP3   OH237546   0.780   0.729  12.682  0.2317  0.5837 -0.1105
 5352TIP3    H137547   0.747   0.752  12.595 -0.0567 -0.6682 -0.3509
 5352TIP3    H237548   0.714   0.764  12.743 -0.4058  0.0491 -0.4845
 5353TIP3   OH237549   5.369   1.489  16.339  0.2667 -0.6661  0.3877
 5353TIP3    H137550   5.314   1.468  16.414 -2.0957 -0.3770 -1.2011
 5353TIP3    H237551   5.426   1.412  16.328  0.1909 -0.9744  2.0423
 5354TIP3   OH237552   6.203   4.431   3.408  0.5493 -0.4418  0.3448
 5354TIP3    H137553   6.230   4.357   3.355 -0.2335 -1.8091  1.7990
 5354TIP3    H237554   6.121   4.461   3.368  0.1970 -1.1795  0.4966
 5355TIP3   OH237555   2.818   0.024   0.313  0.4325 -0.0530 -0.4150
 5355TIP3    H137556   2.890   0.047   0.253  1.0697 -1.2531 -0.1340
 5355TIP3    H237557   2.862   0.002   0.395 -0.3025 -0.2898 -0.0849
 5356TIP3   OH237558   4.064   0.104  10.928  0.0260 -0.3626  0.7084
 5356TIP3    H137559   4.021   0.164  10.867  0.5968 -0.1117  0.5501
 5356TIP3    H237560   4.107   0.040  10.873  0.0640 -0.4698  0.8621
 5357TIP3   OH237561   4.108   3.639  15.222 -0.5671 -0.1372  0.6450
 5357TIP3    H137562   4.177   3.573  15.229 -2.6936 -2.7068 -1.4770
 5357TIP3    H237563   4.047   3.616  15.293 -1.6530 -0.9364 -0.5247
 5358TIP3   OH237564   1.140   1.763  14.968  0.4970  0.0293 -0.4376
 5358TIP3    H137565   1.073   1.818  14.926 -2.0145 -2.4843  0.1534
 5358TIP3    H237566   1.094   1.682  14.990  3.6004 -1.5005  0.6275
 5359TIP3   OH237567   0.890   0.475  16.457  0.6217  0.4604  0.4820
 5359TIP3    H137568   0.828   0.521  16.515  0.2260 -1.1327  1.3638
 5359TIP3    H237569   0.836   0.444  16.385  0.8155  1.0570  0.0831
 5360TIP3   OH237570   2.290   5.001   5.621  0.1004 -0.0321 -0.0504
 5360TIP3    H137571   2.206   4.981   5.662 -0.0488  0.5234 -0.0745
 5360TIP3    H237572   2.293   5.097   5.618  0.1908 -0.0597 -1.1582
 5361TIP3   OH237573   3.050   4.893   2.982 -0.1493 -0.4567 -0.7327
 5361TIP3    H137574   3.130   4.878   2.931  0.0749 -2.4375  0.1543
 5361TIP3    H237575   2.981   4.901   2.916  0.4092 -1.2236 -1.4228
 5362TIP3   OH237576   5.649   2.016   0.139 -0.0752 -0.5588 -0.4169
 5362TIP3    H137577   5.588   1.987   0.071 -0.8779  1.4761 -0.6036
 5362TIP3    H237578   5.594   2.024   0.218  0.1940  0.1058 -0.2946
 5363TIP3   OH237579   0.805   2.861  15.746  0.5256  0.0099  0.8510
 5363TIP3    H137580   0.887   2.856  15.697 -0.6274  0.7691 -1.2270
 5363TIP3    H237581   0.832   2.880  15.836  2.5756  2.1388 -0.1389
 5364TIP3   OH237582   5.327   6.343   2.894  1.0203 -0.0260  0.0630
 5364TIP3    H137583   5.294   6.315   2.808  0.6578 -0.2271  0.2631
 5364TIP3    H237584   5.264   6.410   2.922  1.3223  0.2735  0.0285
 5365TIP3   OH237585   2.945   4.093  14.170  0.4084  0.0067 -0.3476
 5365TIP3    H137586   2.944   4.046  14.086 -0.4071  0.3522 -0.5338
 5365TIP3    H237587   2.993   4.173  14.151 -0.4964  0.4735 -0.7025
 5366TIP3   OH237588   3.330   4.102   1.497  0.0556 -0.5357  0.6141
 5366TIP3    H137589   3.318   4.008   1.479 -1.3523 -0.0005 -1.3855
 5366TIP3    H237590   3.250   4.143   1.466  1.7103  1.6625 -0.8969
 5367TIP3   OH237591   2.493   5.445  14.424  0.4688  0.0230 -0.2548
 5367TIP3    H137592   2.576   5.476  14.461  0.1197 -0.4119  0.9375
 5367TIP3    H237593   2.436   5.435  14.500  1.3923 -6.2449 -0.1360
 5368TIP3   OH237594   1.134   2.163  13.981  0.7507 -0.4266  0.2554
 5368TIP3    H137595   1.137   2.163  13.886  1.6509 -0.7716  0.2759
 5368TIP3    H237596   1.045   2.191  14.003  0.7853  0.4428 -0.6721
 5369TIP3   OH237597   4.084   0.491   2.172  0.1821  0.4141 -0.2989
 5369TIP3    H137598   4.145   0.471   2.243  1.0600  1.3958 -0.7585
 5369TIP3    H237599   4.139   0.497   2.094 -0.4463  1.6217 -0.6675
 5370TIP3   OH237600   3.230   4.102  15.010  0.1170  0.0937  0.0266
 5370TIP3    H137601   3.218   4.166  14.939 -1.9118  0.0371  0.3067
 5370TIP3    H237602   3.301   4.139  15.063  0.2506  1.1727 -0.8773
 5371TIP3   OH237603   4.921   6.620   5.903  0.3103 -0.1691 -0.3523
 5371TIP3    H137604   4.855   6.608   5.836 -0.1678 -2.3415  0.4608
 5371TIP3    H237605   4.912   6.711   5.930 -0.5149  0.2926 -2.1280
 5372TIP3   OH237606   6.315   2.002   5.506 -0.2603  0.2029  0.0171
 5372TIP3    H137607   6.373   2.000   5.430  0.2476  0.8836  0.3897
 5372TIP3    H237608   6.342   1.926   5.558  0.5547  0.7498  0.3865
 5373TIP3   OH237609   5.285   6.664  10.723  0.2339 -0.0522  0.1103
 5373TIP3    H137610   5.342   6.610  10.667 -0.5678  0.3718 -1.1268
 5373TIP3    H237611   5.205   6.613  10.732 -0.2059  0.5424 -0.3677
 5374TIP3   OH237612   0.071   2.853  16.887  0.8907  0.3262 -0.1692
 5374TIP3    H137613   0.073   2.915  16.815 -1.3890  0.0586 -0.5001
 5374TIP3    H237614  -0.007   2.877  16.937  1.6500 -0.3928  1.4074
 5375TIP3   OH237615   2.146   3.771   3.997 -0.1424  0.3953 -0.2637
 5375TIP3    H137616   2.216   3.833   4.022  0.9778 -1.0743  0.2929
 5375TIP3    H237617   2.183   3.722   3.924  0.0682 -1.5349  1.1063
 5376TIP3   OH237618   3.920   2.658   3.085  0.1141  0.3160 -0.3274
 5376TIP3    H137619   3.967   2.678   3.166 -0.9897  1.9751 -0.0793
 5376TIP3    H237620   3.890   2.568   3.096  0.1776  0.4506  0.9974
 5377TIP3   OH237621   1.270   3.909  15.377  0.8700 -0.6375 -0.7926
 5377TIP3    H137622   1.338   3.976  15.380 -0.3574  0.6629 -1.2259
 5377TIP3    H237623   1.208   3.941  15.310 -0.1187 -1.8129 -0.4519
 5378TIP3   OH237624   6.530   1.510   5.123 -0.0771  0.1427  0.3753
 5378TIP3    H137625   6.581   1.459   5.060  0.5651  0.0848  0.9349
 5378TIP3    H237626   6.595   1.542   5.185 -0.6893  0.3238  0.9205
 5379TIP3   OH237627   1.231   1.987   6.297 -0.1769  0.0583 -1.0846
 5379TIP3    H137628   1.146   1.952   6.326  0.6685 -1.5878 -0.5327
 5379TIP3    H237629   1.226   2.080   6.318 -0.6339 -0.5886  1.9709
 5380TIP3   OH237630   2.538   3.003  16.393 -0.4646  0.2327 -0.3089
 5380TIP3    H137631   2.467   2.941  16.408  1.0543 -1.3091  0.6648
 5380TIP3    H237632   2.566   3.029  16.481  0.3953  0.5801 -0.6751
 5381TIP3   OH237633   4.844   0.722  13.223 -0.7070  0.1314 -0.6214
 5381TIP3    H137634   4.855   0.703  13.130  0.2077  0.5365 -0.6008
 5381TIP3    H237635   4.834   0.818  13.227 -1.0038  0.0926 -0.3235
 5382TIP3   OH237636   0.319   0.330  11.394 -0.7865 -0.4420 -0.6651
 5382TIP3    H137637   0.346   0.261  11.453 -0.0361  1.6364  1.5037
 5382TIP3    H237638   0.400   0.365  11.358 -1.1171 -0.3265 -1.3121
 5383TIP3   OH237639   6.023   5.397   6.058  0.3732 -0.0054  0.0121
 5383TIP3    H137640   6.102   5.408   6.111  0.5198 -0.2880 -0.1465
 5383TIP3    H237641   5.958   5.455   6.098  1.2180  1.6480 -0.9637
 5384TIP3   OH237642   3.741   5.607  12.037 -0.0963  0.3712 -0.3524
 5384TIP3    H137643   3.735   5.563  12.122 -1.7177 -0.9945 -1.1278
 5384TIP3    H237644   3.748   5.700  12.058  2.7923 -0.1777  1.3178
 5385TIP3   OH237645   6.166   5.150   1.908 -0.3599  0.3215 -0.4705
 5385TIP3    H137646   6.162   5.154   1.812  0.2581 -1.4348 -0.5921
 5385TIP3    H237647   6.223   5.222   1.933 -1.1640  1.2892 -1.3691
 5386TIP3   OH237648   4.128   4.049   3.289 -0.1795  0.0328 -0.0672
 5386TIP3    H137649   4.153   3.975   3.234  0.7491  0.7166 -0.6040
 5386TIP3    H237650   4.033   4.047   3.291 -0.1854 -0.7159 -0.7187
 5387TIP3   OH237651   0.356   2.986  15.611  0.7414 -0.1461  0.0179
 5387TIP3    H137652   0.418   3.016  15.678 -0.3249 -0.8951  1.3639
 5387TIP3    H237653   0.333   2.897  15.637 -1.5952  0.4301  0.0462
 5388TIP3   OH237654   0.128   6.397  17.003 -0.4475 -0.2681  0.4440
 5388TIP3    H137655   0.070   6.410  16.929 -1.0541 -1.4210  0.6926
 5388TIP3    H237656   0.101   6.312  17.040  2.2870 -1.5262 -0.2713
 5389TIP3   OH237657   0.857   6.102   2.685  0.2529 -0.3146  0.4055
 5389TIP3    H137658   0.872   6.120   2.778 -1.3524 -2.0588  1.0270
 5389TIP3    H237659   0.767   6.131   2.669  0.2922 -0.6433 -0.4314
 5390TIP3   OH237660   5.260   4.861   5.318 -0.7878 -0.1732  0.0393
 5390TIP3    H137661   5.171   4.888   5.342 -0.0208 -0.7320  3.7893
 5390TIP3    H237662   5.317   4.911   5.376  1.3959  0.3276 -2.4730
 5391TIP3   OH237663   0.862   1.918  11.888  0.2875 -0.0799 -0.3659
 5391TIP3    H137664   0.909   1.925  11.971  1.3220 -0.0050 -0.9502
 5391TIP3    H237665   0.865   2.007  11.852  1.8599 -0.5989 -1.5630
 5392TIP3   OH237666   3.203   1.706   5.729  0.0236  0.0290  0.6002
 5392TIP3    H137667   3.224   1.626   5.777  1.2543  1.0752  1.8466
 5392TIP3    H237668   3.131   1.745   5.778  0.0626  0.1798  0.5370
 5393TIP3   OH237669   2.383   0.408  17.091  0.3146  0.4286  0.2422
 5393TIP3    H137670   2.432   0.464  17.031 -0.7015  1.4515  0.3461
 5393TIP3    H237671   2.339   0.470  17.150  1.2464 -0.5478  2.0061
 5394TIP3   OH237672   3.522   6.716   1.679 -0.0155  0.6637  0.2261
 5394TIP3    H137673   3.493   6.735   1.769 -1.5288 -2.5932  0.4763
 5394TIP3    H237674   3.596   6.656   1.690 -1.1295 -0.9063 -0.7161
 5395TIP3   OH237675   6.513   0.579   0.597 -0.0518 -0.5852  0.0622
 5395TIP3    H137676   6.467   0.496   0.608  2.2897 -2.0369 -0.7131
 5395TIP3    H237677   6.471   0.620   0.521 -0.6683 -1.4379 -0.0616
 5396TIP3   OH237678   1.854   5.282  13.942 -0.1189  0.2255 -0.0154
 5396TIP3    H137679   1.861   5.216  13.873 -2.1205 -0.2629  0.2128
 5396TIP3    H237680   1.941   5.321  13.947  1.1476 -2.4765 -0.0736
 5397TIP3   OH237681   2.014   6.602   0.930 -0.6045  0.3879 -0.1398
 5397TIP3    H137682   2.054   6.517   0.909  0.8161  1.3914 -1.6665
 5397TIP3    H237683   2.016   6.650   0.847  1.0946  2.8888  1.2775
 5398TIP3   OH237684   1.699   5.926   0.733  0.6331  0.0612  0.4948
 5398TIP3    H137685   1.773   5.976   0.696  0.1475 -0.3417 -1.0584
 5398TIP3    H237686   1.663   5.984   0.800 -0.1906  2.0098 -1.5775
 5399TIP3   OH237687   6.403   5.387   2.329 -0.2906  0.2437  0.0892
 5399TIP3    H137688   6.404   5.291   2.337  0.9848  0.0205 -2.3869
 5399TIP3    H237689   6.493   5.413   2.349 -0.6832  0.9414  0.9275
 5400TIP3   OH237690   0.383   4.290  12.812  0.0461 -0.3172 -0.3287
 5400TIP3    H137691   0.325   4.349  12.764 -0.1183 -0.1048  0.1326
 5400TIP3    H237692   0.334   4.266  12.891  1.1559  1.0408  0.8101
 5401TIP3   OH237693   5.817   3.707   3.784 -0.2388 -0.6939  0.1363
 5401TIP3    H137694   5.850   3.780   3.838 -2.0502 -0.1472  0.5485
 5401TIP3    H237695   5.887   3.642   3.787  0.8380  0.4628  0.9011
 5402TIP3   OH237696   2.260   5.609  12.281  0.0398 -0.3358 -0.0308
 5402TIP3    H137697   2.271   5.592  12.187  0.3022 -1.4799  0.1887
 5402TIP3    H237698   2.298   5.532  12.323 -0.5304 -0.0618  1.0043
 5403TIP3   OH237699   2.638   5.598  17.271 -0.3696 -0.1486  0.0492
 5403TIP3    H137700   2.607   5.521  17.318  0.5168 -0.5555 -0.0252
 5403TIP3    H237701   2.578   5.607  17.197 -0.5385 -0.6988  0.1200
 5404TIP3   OH237702   6.093   5.468   0.203  0.5463  0.1473 -0.0801
 5404TIP3    H137703   6.093   5.448   0.110  2.0727 -0.7264  0.0969
 5404TIP3    H237704   6.000   5.468   0.228  0.1697 -0.0796 -1.4856
 5405TIP3   OH237705   5.344   1.766  15.205  0.3572 -0.0107  0.4376
 5405TIP3    H137706   5.253   1.737  15.207  0.5305 -0.5210  0.9037
 5405TIP3    H237707   5.388   1.703  15.148  1.1142 -1.7616  2.9125
 5406TIP3   OH237708   2.248   5.270   0.223 -0.2687  0.4578  0.0948
 5406TIP3    H137709   2.156   5.251   0.205 -0.5259  0.8211  0.9946
 5406TIP3    H237710   2.296   5.204   0.173 -1.0481 -0.4552  0.5295
 5407TIP3   OH237711   3.127   2.411  13.857  0.3405 -0.6586  0.4931
 5407TIP3    H137712   3.184   2.402  13.933 -0.3383 -0.2690  1.0481
 5407TIP3    H237713   3.053   2.354  13.875 -0.2200  0.0570  0.5091
 5408TIP3   OH237714   6.265   1.453   5.248 -0.0806 -0.1121  0.2804
 5408TIP3    H137715   6.342   1.488   5.203  0.1648 -0.1316  0.6903
 5408TIP3    H237716   6.222   1.399   5.181  0.5063 -0.4717  0.1891
 5409TIP3   OH237717   2.622   5.499   3.279 -0.5270 -0.2733  0.0901
 5409TIP3    H137718   2.714   5.523   3.285 -0.3627 -0.5105 -1.2265
 5409TIP3    H237719   2.578   5.553   3.344  0.3837  0.7223 -0.1155
 5410TIP3   OH237720   6.525   6.741   0.721  0.0568 -0.0680 -0.2590
 5410TIP3    H137721   6.586   6.708   0.787 -0.9170  0.8416  1.1317
 5410TIP3    H237722   6.580   6.786   0.657  0.8938  0.4172  0.7862
 5411TIP3   OH237723   6.421   2.864  15.604  0.1331  0.2022  0.1263
 5411TIP3    H137724   6.426   2.944  15.657  1.3445  0.3044 -0.1298
 5411TIP3    H237725   6.396   2.795  15.666 -0.7162  0.7362  0.3866
 5412TIP3   OH237726   6.463   1.277  12.673 -0.0560 -0.4386  0.1059
 5412TIP3    H137727   6.527   1.299  12.605 -0.9052 -1.6567 -1.1072
 5412TIP3    H237728   6.515   1.265  12.753  1.0909 -0.2836 -0.6185
 5413TIP3   OH237729   1.755   5.580  16.625 -0.1761 -0.4125 -0.0577
 5413TIP3    H137730   1.816   5.563  16.697 -0.1381  1.0346  0.2601
 5413TIP3    H237731   1.767   5.506  16.565  1.5161 -0.3898  0.2513
 5414TIP3   OH237732   5.470   0.632   0.093 -0.2078 -0.3196  0.3715
 5414TIP3    H137733   5.385   0.589   0.080  1.1215 -2.7672 -0.6223
 5414TIP3    H237734   5.466   0.710   0.038 -1.2848 -1.1951 -0.8426
 5415TIP3   OH237735   2.734   3.839   2.747  0.3502  0.7403 -0.1233
 5415TIP3    H137736   2.675   3.900   2.703 -0.0729  1.1263  0.9683
 5415TIP3    H237737   2.678   3.765   2.771  0.9143 -0.2169 -1.6750
 5416TIP3   OH237738   6.005   4.750  16.404  0.0721 -0.0901 -0.2286
 5416TIP3    H137739   6.008   4.656  16.423  0.4045  0.1118  0.7694
 5416TIP3    H237740   5.981   4.755  16.312  0.0138 -1.1576 -0.2845
 5417TIP3   OH237741   0.383   1.310   6.387  0.8929  0.7115  0.1952
 5417TIP3    H137742   0.453   1.312   6.321 -0.8720 -0.2678 -1.7678
 5417TIP3    H237743   0.336   1.392   6.375 -0.6090 -0.3012 -1.1456
 5418TIP3   OH237744   4.887   3.378  13.857  0.2103 -0.2190 -0.3703
 5418TIP3    H137745   4.972   3.388  13.815  0.1109 -0.2943 -0.5916
 5418TIP3    H237746   4.841   3.459  13.837  0.2281 -0.1816 -0.2583
 5419TIP3   OH237747   3.771   1.559  13.852 -0.6531 -0.1562  0.1904
 5419TIP3    H137748   3.770   1.639  13.800 -0.3803  0.6252  1.3733
 5419TIP3    H237749   3.780   1.589  13.943 -1.5853 -1.4718  0.7358
 5420TIP3   OH237750   3.127   0.123  12.258 -0.3813 -0.4344 -0.4163
 5420TIP3    H137751   3.169   0.047  12.217 -0.2809 -0.8218  0.4046
 5420TIP3    H237752   3.166   0.127  12.345 -0.0822  0.8107 -0.6078
 5421TIP3   OH237753   5.034   4.858   0.086  0.1152  0.4399  0.2104
 5421TIP3    H137754   4.998   4.934   0.041 -2.4193 -0.3229  0.8841
 5421TIP3    H237755   4.992   4.859   0.172 -0.0604 -1.8008  0.1724
 5422TIP3   OH237756   4.069   2.346  13.646  0.4104  1.1587 -0.6159
 5422TIP3    H137757   3.980   2.332  13.676  0.8564 -1.5359 -0.4711
 5422TIP3    H237758   4.121   2.354  13.726  0.6357  0.5242 -0.7025
 5423TIP3   OH237759   4.991   2.509  14.165  0.1401 -0.7877 -0.4483
 5423TIP3    H137760   5.086   2.508  14.154  0.6637 -0.6056  3.3947
 5423TIP3    H237761   4.964   2.420  14.142  1.3977 -1.1718 -0.5007
 5424TIP3   OH237762   1.549   1.846   1.984  0.0559  0.3777  0.0113
 5424TIP3    H137763   1.530   1.771   1.927 -0.8716  0.7340 -0.1363
 5424TIP3    H237764   1.587   1.911   1.926  1.0346 -0.0323  0.1706
 5425TIP3   OH237765   1.458   5.085  13.191  0.1116 -0.0315  0.3042
 5425TIP3    H137766   1.528   5.098  13.255 -0.9817 -2.3730  2.0510
 5425TIP3    H237767   1.408   5.010  13.225 -2.2964  0.5917 -1.7321
 5426TIP3   OH237768   2.070   3.715  10.948  0.2795 -0.1248  0.0342
 5426TIP3    H137769   2.057   3.728  11.042  0.4056 -0.6170  0.1248
 5426TIP3    H237770   2.004   3.650  10.923 -0.0687  0.3633 -0.3169
 5427TIP3   OH237771   4.074   6.739  14.060 -0.4940  0.1532  0.0013
 5427TIP3    H137772   4.124   6.659  14.075 -0.1455 -0.0612 -2.0748
 5427TIP3    H237773   4.139   6.802  14.029 -0.4202  1.8701  3.3819
 5428TIP3   OH237774   3.990   3.525  15.833  0.1422 -0.3265  0.1827
 5428TIP3    H137775   3.919   3.586  15.811  0.2393  0.1899  1.2464
 5428TIP3    H237776   4.010   3.545  15.924  1.6024 -0.5315 -0.0834
 5429TIP3   OH237777   0.711   1.823   0.543 -0.4001 -0.8361 -0.1246
 5429TIP3    H137778   0.795   1.845   0.583  0.2110 -0.7200 -1.4260
 5429TIP3    H237779   0.712   1.870   0.459 -1.5179 -1.2899 -0.4009
 5430TIP3   OH237780   2.678   4.107   6.107 -0.0530 -0.2363  0.8360
 5430TIP3    H137781   2.630   4.083   6.028  0.9002 -0.6870  0.3999
 5430TIP3    H237782   2.656   4.038   6.170 -0.1640 -0.3133  0.7128
 5431TIP3   OH237783   6.225   4.890   0.486 -0.1439  0.5233 -0.3763
 5431TIP3    H137784   6.249   4.800   0.466  0.6002  1.0004 -1.7393
 5431TIP3    H237785   6.147   4.907   0.432 -0.2114  0.7303 -0.2160
 5432TIP3   OH237786   4.158   4.831   1.702  0.4010  0.4845 -0.5383
 5432TIP3    H137787   4.118   4.746   1.717  1.6486  0.3384  2.3152
 5432TIP3    H237788   4.123   4.860   1.618 -2.0290 -1.6746 -0.3241
 5433TIP3   OH237789   6.476   0.083   2.905  0.1819 -0.3424  0.6436
 5433TIP3    H137790   6.398   0.030   2.884  0.3615 -0.6204  0.6698
 5433TIP3    H237791   6.547   0.019   2.912  0.4782 -0.0517  0.2907
 5434TIP3   OH237792   6.485   5.706  15.608 -0.0252  0.1394  0.4688
 5434TIP3    H137793   6.568   5.722  15.563 -0.3808  0.7621  0.0209
 5434TIP3    H237794   6.507   5.648  15.680  0.4332 -1.6226 -1.0503
 5435TIP3   OH237795   1.031   2.120   5.758  0.0174  0.4894 -0.0892
 5435TIP3    H137796   1.125   2.109   5.741  0.0373 -1.1897  0.9637
 5435TIP3    H237797   0.999   2.171   5.684  1.8851  1.6971 -0.1110
 5436TIP3   OH237798   1.272   3.660   0.398 -0.3791 -0.0549  0.0775
 5436TIP3    H137799   1.347   3.611   0.433  0.1944 -0.0675 -1.1334
 5436TIP3    H237800   1.213   3.670   0.472  0.7568 -0.1851  1.0192
 5437TIP3   OH237801   0.597   1.814  13.389  0.7377 -0.3121  0.8730
 5437TIP3    H137802   0.599   1.726  13.427  1.8637  0.2112  2.0439
 5437TIP3    H237803   0.590   1.799  13.294 -0.8161 -1.6365  1.1832
 5438TIP3   OH237804   5.094   6.227   5.201 -0.1517  0.3592  0.5325
 5438TIP3    H137805   5.106   6.244   5.295  0.6805  0.4484  0.4164
 5438TIP3    H237806   5.006   6.258   5.182 -1.5816 -2.6606  1.9689
 5439TIP3   OH237807   2.859   5.969  15.878 -0.3946  0.7210 -0.9273
 5439TIP3    H137808   2.883   5.904  15.945 -1.9328  2.3174  1.2472
 5439TIP3    H237809   2.837   6.048  15.928 -1.9437  1.8586 -3.3135
 5440TIP3   OH237810   6.528   0.575   5.030  0.3870 -0.3280 -0.2999
 5440TIP3    H137811   6.562   0.496   5.071  0.7206 -1.1920 -2.1736
 5440TIP3    H237812   6.569   0.576   4.943 -0.0062  1.6379 -0.4868
 5441TIP3   OH237813   5.989   1.122  11.787  0.8485 -0.5433 -0.3744
 5441TIP3    H137814   5.996   1.145  11.880  1.2994  2.4578 -1.0772
 5441TIP3    H237815   5.957   1.032  11.787 -0.2984 -0.2260  2.6853
 5442TIP3   OH237816   5.129   0.478  14.097 -0.2760  0.0652  0.1369
 5442TIP3    H137817   5.118   0.416  14.169  1.7505 -0.8968 -0.3548
 5442TIP3    H237818   5.079   0.440  14.025 -1.2353  0.3731  0.6269
 5443TIP3   OH237819   5.664   4.965  11.398  0.5154  0.2973  0.3728
 5443TIP3    H137820   5.653   4.892  11.337  1.6967  0.9224 -0.5978
 5443TIP3    H237821   5.756   4.960  11.424  0.3874  0.9483  0.9575
 5444TIP3   OH237822   3.935   5.883   0.730 -0.7525 -0.0423  0.1490
 5444TIP3    H137823   3.960   5.934   0.807  0.6120  0.4867 -0.6174
 5444TIP3    H237824   3.864   5.826   0.760  0.6093 -0.7520  2.1330
 5445TIP3   OH237825   4.539   5.040  15.445  0.3019 -0.0236 -0.1463
 5445TIP3    H137826   4.589   4.991  15.379  0.6350  0.5793 -0.3506
 5445TIP3    H237827   4.504   5.115  15.397  2.5722  1.7521  0.8694
 5446TIP3   OH237828   2.243   1.999   2.482 -0.3092  0.5290 -0.5596
 5446TIP3    H137829   2.310   1.936   2.509  0.5735  2.1602  1.1625
 5446TIP3    H237830   2.171   1.985   2.543 -0.6043  0.3726 -0.9400
 5447TIP3   OH237831   3.252   2.032  16.404  0.2654 -0.3992 -0.2867
 5447TIP3    H137832   3.282   1.941  16.393  0.2111 -0.2247 -1.9997
 5447TIP3    H237833   3.163   2.024  16.438  1.6157 -0.9435  3.3067
 5448TIP3   OH237834   6.027   2.186   0.589 -0.3599  0.5918 -0.0863
 5448TIP3    H137835   6.065   2.249   0.650 -0.4554  1.8877 -1.3351
 5448TIP3    H237836   5.958   2.143   0.640 -0.9372  2.1775  0.5307
 5449TIP3   OH237837   2.750   2.017  14.063 -0.5036 -0.0206  0.2572
 5449TIP3    H137838   2.674   2.018  14.122  1.1001 -0.1417  2.4193
 5449TIP3    H237839   2.761   1.925  14.040 -0.4392 -0.1459  0.7631
 5450TIP3   OH237840   0.814   5.958   0.474 -0.2779 -0.3622  0.1322
 5450TIP3    H137841   0.840   5.976   0.384  2.5904 -1.3133  0.7338
 5450TIP3    H237842   0.773   5.871   0.470  0.6466 -0.7862 -0.1035
 5451TIP3   OH237843   0.648   6.607  12.278  0.3054 -0.2980 -0.2492
 5451TIP3    H137844   0.721   6.553  12.308 -0.5987 -1.8465 -0.7742
 5451TIP3    H237845   0.576   6.586  12.337 -0.7204 -1.3998 -1.8732
 5452TIP3   OH237846   3.868   0.813   4.231  0.6406 -0.6194  0.0441
 5452TIP3    H137847   3.839   0.759   4.158 -0.0207  1.3639 -1.1980
 5452TIP3    H237848   3.932   0.873   4.193  1.6054 -0.7109  1.4652
 5453TIP3   OH237849   3.536   5.313  17.035 -0.4718  0.7110 -0.3425
 5453TIP3    H137850   3.480   5.353  17.101 -0.0916 -0.3826  0.6702
 5453TIP3    H237851   3.476   5.283  16.966 -1.0592  0.2464  0.3681
 5454TIP3   OH237852   4.985   2.975   0.964  0.3683 -0.2569  0.3412
 5454TIP3    H137853   4.985   3.029   0.885 -0.3038 -0.0616  0.4730
 5454TIP3    H237854   4.919   3.014   1.020  0.1438 -0.9858  0.5966
 5455TIP3   OH237855   0.376   2.520  12.980 -0.1237 -0.0905  0.1419
 5455TIP3    H137856   0.446   2.456  12.970 -0.3106 -0.6544  2.1100
 5455TIP3    H237857   0.308   2.492  12.919  0.4858 -0.8104 -0.2122
 5456TIP3   OH237858   2.099   5.796  12.507  0.1264  0.5992  0.0614
 5456TIP3    H137859   2.190   5.766  12.510  0.1300  0.5900 -0.1107
 5456TIP3    H237860   2.074   5.806  12.598  0.0472 -0.1656  0.1223
 5457TIP3   OH237861   2.260   4.766   3.379 -0.0671  0.2430  0.3093
 5457TIP3    H137862   2.230   4.836   3.437  0.7303  0.4974  0.4313
 5457TIP3    H237863   2.356   4.773   3.381  0.0121 -0.6948  0.1265
 5458TIP3   OH237864   5.875   5.014  14.484  0.2674  0.0847 -0.4371
 5458TIP3    H137865   5.893   4.952  14.555 -0.3598  1.9910  1.4113
 5458TIP3    H237866   5.936   4.988  14.414  1.2091 -1.5363  0.9476
 5459TIP3   OH237867   6.572   6.295   5.822 -0.5911 -0.1483 -0.3057
 5459TIP3    H137868   6.488   6.254   5.843 -1.1518  0.5037 -1.2626
 5459TIP3    H237869   6.622   6.226   5.780 -0.4798 -0.6691  0.6734
 5460TIP3   OH237870   4.637   4.860  11.224 -0.2759 -0.4153 -0.2771
 5460TIP3    H137871   4.612   4.952  11.211  0.4486 -0.3966 -1.6041
 5460TIP3    H237872   4.578   4.810  11.168  0.5422 -0.6092 -0.9797
 5461TIP3   OH237873   2.211   0.148  12.199  0.3783  0.7298 -0.3820
 5461TIP3    H137874   2.192   0.150  12.105 -0.8309  1.3537 -0.1363
 5461TIP3    H237875   2.173   0.229  12.233  2.8528  1.6736  0.2864
 5462TIP3   OH237876   5.225   0.274  11.641 -0.7742  0.4409  0.3637
 5462TIP3    H137877   5.148   0.326  11.663 -2.8618 -1.6531 -1.7202
 5462TIP3    H237878   5.215   0.254  11.548  1.3057 -1.4453  0.4993
 5463TIP3   OH237879   3.393   5.870  15.724  0.3746 -0.2810 -0.0167
 5463TIP3    H137880   3.391   5.848  15.817  0.1939 -1.8382 -0.3656
 5463TIP3    H237881   3.308   5.910  15.706 -0.1062 -1.1828  0.2201
 5464TIP3   OH237882   6.725   1.366   2.079 -0.1480  0.1340 -0.5617
 5464TIP3    H137883   6.743   1.425   2.006 -1.9180  1.5505  0.1155
 5464TIP3    H237884   6.648   1.403   2.121 -0.6927 -2.1248  0.4748
 5465TIP3   OH237885   5.190   0.100   2.099 -0.6442 -0.2245 -0.0926
 5465TIP3    H137886   5.143   0.039   2.155 -0.0908 -1.7790 -1.2935
 5465TIP3    H237887   5.148   0.092   2.014  0.3639  0.0067 -0.6233
 5466TIP3   OH237888   4.538   1.506   2.544 -0.2874  0.3883  0.3224
 5466TIP3    H137889   4.503   1.595   2.541 -0.0628  0.5167  1.4316
 5466TIP3    H237890   4.619   1.513   2.593 -0.1289 -0.3866  0.1816
 5467TIP3   OH237891   5.945   2.531  13.065  0.0088 -0.1527 -0.8301
 5467TIP3    H137892   5.910   2.614  13.032 -2.4788 -0.2509  1.4455
 5467TIP3    H237893   6.025   2.518  13.013 -0.8310  2.4051 -2.9452
 5468TIP3   OH237894   2.186   4.973  10.832 -0.1511 -0.1922  0.4337
 5468TIP3    H137895   2.108   4.920  10.850 -0.0344 -0.8075 -0.8127
 5468TIP3    H237896   2.245   4.913  10.785  0.3164  0.8128 -0.2697
 5469TIP3   OH237897   0.195   3.530   1.136  0.4846 -0.4267  0.4103
 5469TIP3    H137898   0.113   3.517   1.184  0.1209  0.2322 -0.0197
 5469TIP3    H237899   0.258   3.474   1.180 -0.4634 -1.8117  0.0506
 5470TIP3   OH237900   4.127   5.002  16.496  0.0896  0.2606 -0.0145
 5470TIP3    H137901   4.118   5.002  16.592  0.9483 -0.0309  0.0709
 5470TIP3    H237902   4.212   5.043  16.480  0.6190 -1.0252 -0.5785
 5471TIP3   OH237903   4.036   0.330  11.286 -0.4083  0.4893  0.1633
 5471TIP3    H137904   3.958   0.354  11.335 -0.6136 -2.6046  1.4568
 5471TIP3    H237905   4.096   0.296  11.352  0.3334 -1.2803 -1.3820
 5472TIP3   OH237906   6.387   0.062   3.951  0.3683  0.1558  0.4973
 5472TIP3    H137907   6.346   0.035   3.869 -0.6569  2.1854  0.3299
 5472TIP3    H237908   6.444   0.135   3.927 -1.5446  2.1852  1.8732
 5473TIP3   OH237909   4.104   4.708  11.841 -0.0373  0.6608  0.6757
 5473TIP3    H137910   4.034   4.737  11.782  0.8494  1.0602 -0.1880
 5473TIP3    H237911   4.067   4.632  11.886 -1.7879  2.1186  1.7704
 5474TIP3   OH237912   2.718   4.251  12.358 -0.3051 -0.0639  0.0021
 5474TIP3    H137913   2.735   4.190  12.430  0.4056 -0.0461 -0.1512
 5474TIP3    H237914   2.796   4.246  12.303  0.5213  2.2005  0.8580
 5475TIP3   OH237915   5.140   6.090  12.797 -0.4245 -0.1887  0.4308
 5475TIP3    H137916   5.104   6.054  12.878 -0.4211 -2.0664 -0.3738
 5475TIP3    H237917   5.079   6.160  12.772 -0.6179  0.1543  1.8485
 5476TIP3   OH237918   1.318   3.884  14.435  1.0312 -0.0986  0.9275
 5476TIP3    H137919   1.301   3.887  14.529 -1.2399  1.0641  0.5247
 5476TIP3    H237920   1.250   3.827  14.400  0.9212  0.6942 -0.1874
 5477TIP3   OH237921   5.333   4.117  14.380  0.9153 -0.3541 -0.3732
 5477TIP3    H137922   5.254   4.064  14.370 -0.4552  1.8712 -1.7959
 5477TIP3    H237923   5.357   4.107  14.472 -0.6666 -1.5180 -0.0595
 5478TIP3   OH237924   4.788   4.314   3.287 -0.0406 -0.2416 -0.5691
 5478TIP3    H137925   4.759   4.270   3.206 -1.5460 -0.0465 -0.1553
 5478TIP3    H237926   4.780   4.248   3.355 -2.1525  0.5786  0.0276
 5479TIP3   OH237927   3.052   0.794   6.306  0.4808 -0.0402 -0.0118
 5479TIP3    H137928   2.974   0.770   6.356  1.1521  1.9785  2.0592
 5479TIP3    H237929   3.125   0.781   6.366  1.5735 -0.0062 -1.3014
 5480TIP3   OH237930   1.347   6.137  16.156 -0.6201 -0.3027 -0.3177
 5480TIP3    H137931   1.322   6.190  16.080  0.1211 -1.6691 -1.5255
 5480TIP3    H237932   1.280   6.157  16.221 -2.6963 -0.9758 -2.1851
 5481TIP3   OH237933   1.364   4.918   4.444 -0.2734  0.7998 -0.1104
 5481TIP3    H137934   1.382   4.825   4.451 -0.2136  0.8312  0.1576
 5481TIP3    H237935   1.284   4.923   4.392  2.5571  0.8256 -4.7642
 5482TIP3   OH237936   3.121   1.442   3.276  0.0643  0.0317  0.8949
 5482TIP3    H137937   3.104   1.348   3.287 -0.3936 -0.0691 -0.5188
 5482TIP3    H237938   3.046   1.473   3.225  0.5276  1.0439  0.8316
 5483TIP3   OH237939   0.356   6.553  16.603 -0.2736  0.4925 -0.1581
 5483TIP3    H137940   0.301   6.490  16.558  0.2089  0.0740 -0.1748
 5483TIP3    H237941   0.360   6.521  16.694  0.6892 -0.0089 -0.3629
 5484TIP3   OH237942   3.710   3.842   5.724 -0.2096 -0.0425 -0.1907
 5484TIP3    H137943   3.683   3.875   5.809  0.1432 -0.1847 -0.0245
 5484TIP3    H237944   3.670   3.755   5.718 -0.2086 -0.0447 -0.1582
 5485TIP3   OH237945   4.590   6.226   0.915  0.3821  0.0840  0.2506
 5485TIP3    H137946   4.667   6.189   0.958  0.1998 -0.5477  0.0566
 5485TIP3    H237947   4.553   6.152   0.866 -0.2591  0.4182  0.2217
 5486TIP3   OH237948   0.876   5.597   4.800 -0.2895 -0.5974 -0.2515
 5486TIP3    H137949   0.922   5.519   4.830 -0.5367 -0.5046  0.3753
 5486TIP3    H237950   0.828   5.628   4.877 -0.6111 -0.1285 -0.6356
 5487TIP3   OH237951   0.048   1.302   3.907 -0.0626  0.6940 -0.0698
 5487TIP3    H137952  -0.022   1.247   3.871 -0.6087  0.2153  1.6497
 5487TIP3    H237953   0.125   1.245   3.906 -0.2508  0.4264  0.1815
 5488TIP3   OH237954   2.679   3.487   4.758  0.3947 -0.1128 -0.1497
 5488TIP3    H137955   2.692   3.398   4.726  1.5237 -0.5857  1.5368
 5488TIP3    H237956   2.591   3.486   4.796  1.5644 -1.4402  2.6837
 5489TIP3   OH237957   5.258   3.825  15.363  0.3068  0.6303 -0.6206
 5489TIP3    H137958   5.189   3.887  15.389  0.5389  0.0440  1.4655
 5489TIP3    H237959   5.215   3.739  15.365  0.9779  0.3113  0.2473
 5490TIP3   OH237960   5.570   2.293   5.847  0.2133 -0.6060 -0.3960
 5490TIP3    H137961   5.560   2.364   5.910  0.6011  0.0624 -1.0707
 5490TIP3    H237962   5.648   2.245   5.875 -0.3052 -1.0336  0.3148
 5491TIP3   OH237963   0.086   0.436   2.884 -0.1507  0.8775 -0.1448
 5491TIP3    H137964  -0.008   0.417   2.877 -0.1274 -0.2421  2.0080
 5491TIP3    H237965   0.095   0.481   2.968  1.2910  0.5357 -0.0969
 5492TIP3   OH237966   4.131   2.139  14.918  0.9017 -0.5149  0.8880
 5492TIP3    H137967   4.121   2.068  14.981 -1.4802 -0.7560  0.2835
 5492TIP3    H237968   4.113   2.219  14.968 -0.7316 -0.6880  0.6044
 5493TIP3   OH237969   6.191   1.635   3.203 -0.3256 -0.1087 -0.6654
 5493TIP3    H137970   6.224   1.702   3.264  2.9034 -1.0026 -1.3670
 5493TIP3    H237971   6.207   1.552   3.248 -1.7980 -0.5830 -0.9813
 5494TIP3   OH237972   0.591   6.275   5.269  0.4444  0.4451  0.3123
 5494TIP3    H137973   0.585   6.253   5.362 -1.3240  0.2345  0.1768
 5494TIP3    H237974   0.536   6.353   5.259  0.5346  0.4076 -0.5799
 5495TIP3   OH237975   2.762   0.585  14.167  0.2769  0.1211 -0.3711
 5495TIP3    H137976   2.724   0.633  14.240  1.1741 -0.8268  0.7350
 5495TIP3    H237977   2.819   0.648  14.124  0.0784  0.5626  0.0108
 5496TIP3   OH237978   0.271   3.090  12.084  0.5614 -0.1627 -0.1079
 5496TIP3    H137979   0.300   3.046  12.004 -0.2031  1.6154 -1.3926
 5496TIP3    H237980   0.235   3.019  12.138  0.7273 -1.3288 -1.4838
 5497TIP3   OH237981   5.376   3.739   3.042  0.0550 -0.2941 -0.7455
 5497TIP3    H137982   5.411   3.679   2.977  0.1961 -1.3917  0.3320
 5497TIP3    H237983   5.427   3.820   3.029 -1.0579  0.0581 -3.0777
 5498TIP3   OH237984   3.904   5.585   2.685 -0.0673  0.1362 -0.6921
 5498TIP3    H137985   3.976   5.595   2.622 -0.2931 -0.7226 -1.0862
 5498TIP3    H237986   3.836   5.538   2.637 -0.7390  0.5811 -0.1878
 5499TIP3   OH237987   1.349   5.637   0.592 -0.2769 -0.1221  0.0419
 5499TIP3    H137988   1.276   5.696   0.572 -2.1971 -2.0051  1.2881
 5499TIP3    H237989   1.357   5.641   0.688  0.2492 -1.0652  0.0411
 5500TIP3   OH237990   0.273   0.905   5.203 -0.6473  0.0700 -0.7841
 5500TIP3    H137991   0.221   0.910   5.283 -0.0392  1.3254 -0.4564
 5500TIP3    H237992   0.289   0.996   5.179  1.7591 -0.2914 -0.6358
 5501TIP3   OH237993   4.168   4.760   1.394 -0.3639 -0.4063  0.6559
 5501TIP3    H137994   4.256   4.793   1.410 -0.0483  0.4712 -2.4588
 5501TIP3    H237995   4.178   4.665   1.388  0.3988 -0.3062  0.3006
 5502TIP3   OH237996   1.918   2.839   3.669 -0.2301  0.0044  0.0270
 5502TIP3    H137997   1.993   2.842   3.610 -1.2742 -0.8108 -1.3829
 5502TIP3    H237998   1.947   2.886   3.747  0.8162  2.0509 -1.5354
 5503TIP3   OH237999   4.921   6.264   3.734  0.4643 -0.0898 -0.2097
 5503TIP3    H138000   4.870   6.208   3.793 -0.4112  1.0464  0.1223
 5503TIP3    H238001   4.894   6.237   3.646 -0.1610 -0.0032 -0.0460
 5504TIP3   OH238002   1.500   0.331  16.146 -0.0297  0.0321  0.5220
 5504TIP3    H138003   1.408   0.354  16.134 -0.3733 -2.1337 -1.2931
 5504TIP3    H238004   1.498   0.257  16.207  0.5502  0.2923  0.8595
 5505TIP3   OH238005   4.230   3.145  12.796  0.0993 -0.5519  0.0157
 5505TIP3    H138006   4.180   3.175  12.872 -2.1139  0.3240 -1.7402
 5505TIP3    H238007   4.320   3.175  12.813 -0.5223  0.3147  1.9108
 5506TIP3   OH238008   1.199   2.607  15.278  0.1613 -0.1655 -0.0211
 5506TIP3    H138009   1.115   2.648  15.299  0.5459  1.2789 -1.2254
 5506TIP3    H238010   1.265   2.670  15.309  0.7677 -0.2028 -1.2308
 5507TIP3   OH238011   4.320   6.329   1.836  0.8533  0.3963 -0.2550
 5507TIP3    H138012   4.342   6.364   1.923 -1.6948 -0.8426  0.9330
 5507TIP3    H238013   4.225   6.319   1.837  0.7840  0.3582 -3.2202
 5508TIP3   OH238014   4.475   0.906   5.178  0.1127  0.1610  0.1337
 5508TIP3    H138015   4.421   0.869   5.107 -1.1990  0.6519  0.8488
 5508TIP3    H238016   4.544   0.955   5.133  0.6124 -1.3668 -0.8185
 5509TIP3   OH238017   0.930   2.966   5.566 -0.4249 -0.2356  0.2263
 5509TIP3    H138018   0.950   3.056   5.591 -1.1170 -0.2339  0.8113
 5509TIP3    H238019   0.906   2.923   5.649  1.0492 -1.2729  0.1347
 5510TIP3   OH238020   5.068   0.986  12.823  0.1866 -0.7415  0.7202
 5510TIP3    H138021   5.130   0.938  12.767 -1.6755 -0.9603 -1.2533
 5510TIP3    H238022   5.021   1.044  12.763 -1.6243 -0.6960  2.1180
 5511TIP3   OH238023   2.888   1.038   5.347  0.2435  0.3411  0.0683
 5511TIP3    H138024   2.950   0.995   5.405  0.5203  0.7150  0.0573
 5511TIP3    H238025   2.906   1.000   5.261  0.7550  0.7507 -0.0132
 5512TIP3   OH238026   4.640   0.387   4.098 -0.6207  0.6739 -0.0564
 5512TIP3    H138027   4.643   0.291   4.093 -0.7420  0.7176 -1.0385
 5512TIP3    H238028   4.730   0.413   4.115 -0.4924  0.4076 -0.3164
 5513TIP3   OH238029   3.104   4.008   1.350 -0.2095  0.1443  0.3236
 5513TIP3    H138030   3.009   4.017   1.352 -0.3752 -0.4406 -2.8192
 5513TIP3    H238031   3.121   3.926   1.397 -1.4712 -0.9136 -1.0090
 5514TIP3   OH238032   3.576   6.745   1.418 -0.4845 -0.1713 -0.5493
 5514TIP3    H138033   3.544   6.742   1.508  2.1575  1.0564  0.4764
 5514TIP3    H238034   3.542   6.828   1.384  2.0662  1.4587  0.7576
 5515TIP3   OH238035   3.646   4.691   5.315  0.1686  0.8335 -0.0332
 5515TIP3    H138036   3.634   4.782   5.287 -0.5193  0.4165 -1.1029
 5515TIP3    H238037   3.601   4.686   5.400  0.8839  1.6873  0.4082
 5516TIP3   OH238038   3.999   0.240   1.934  0.0562 -0.3897 -0.2823
 5516TIP3    H138039   4.077   0.197   1.968  1.7202  2.2121 -0.7015
 5516TIP3    H238040   3.987   0.204   1.846  1.7423  0.3674 -0.8370
 5517TIP3   OH238041   2.049   6.473  11.070  0.1900  0.0034 -0.4930
 5517TIP3    H138042   2.091   6.456  10.985 -0.3106 -0.5172 -0.6444
 5517TIP3    H238043   2.117   6.453  11.134  0.9802  1.6454 -0.8024
 5518TIP3   OH238044   1.729   1.124   3.390 -0.4650 -0.4668  0.4674
 5518TIP3    H138045   1.665   1.195   3.393  0.8144  0.6719  1.0863
 5518TIP3    H238046   1.681   1.048   3.426 -1.0119  0.7414  2.3694
 5519TIP3   OH238047   5.860   3.030   2.239 -0.0563 -0.2878  0.0282
 5519TIP3    H138048   5.905   2.963   2.290 -1.2803 -0.5375  0.7989
 5519TIP3    H238049   5.823   3.089   2.304 -2.5920 -1.2176 -0.5007
 5520TIP3   OH238050   3.924   0.107  15.918 -0.2363  0.4811  0.3176
 5520TIP3    H138051   3.898   0.170  15.986 -0.0179  0.7462  0.1603
 5520TIP3    H238052   4.015   0.129  15.899 -0.4291  0.6908 -0.3774
 5521TIP3   OH238053   0.003   0.356  16.076  0.3245 -0.4440  0.6395
 5521TIP3    H138054   0.060   0.287  16.042  0.5920 -0.4745  1.1405
 5521TIP3    H238055  -0.042   0.316  16.150  0.5280 -0.0631  0.9717
 5522TIP3   OH238056   1.540   4.211  15.103  0.0789  0.7735 -0.1498
 5522TIP3    H138057   1.496   4.126  15.100  1.4004 -0.0185  1.8033
 5522TIP3    H238058   1.472   4.272  15.132 -0.8421  0.3734 -1.4191
 5523TIP3   OH238059   5.349   5.516   6.395  0.1093  0.2913  0.1834
 5523TIP3    H138060   5.312   5.566   6.468 -1.8676  2.4154 -2.1957
 5523TIP3    H238061   5.435   5.556   6.380 -0.6071  1.6686 -0.3624
 5524TIP3   OH238062   4.573   5.629  15.095 -0.1590  0.3294  0.6609
 5524TIP3    H138063   4.507   5.696  15.078  0.3370  0.4949 -0.7587
 5524TIP3    H238064   4.535   5.549  15.059  0.0407  0.2439  0.6406
 5525TIP3   OH238065   6.219   3.107  15.488  0.6930 -0.6544  0.1566
 5525TIP3    H138066   6.281   3.151  15.546  0.2649  0.6785 -0.3634
 5525TIP3    H238067   6.274   3.069  15.419  0.8764  1.6594 -1.0376
 5526TIP3   OH238068   6.519   3.899   1.923  0.0273  0.6304 -0.3210
 5526TIP3    H138069   6.523   3.812   1.881 -0.9748 -0.6931  2.2165
 5526TIP3    H238070   6.433   3.933   1.900  0.2306  0.7501 -0.9153
 5527TIP3   OH238071   5.422   3.739  11.368 -0.3164  0.3243  0.3881
 5527TIP3    H138072   5.429   3.787  11.286 -2.3869  0.1863  0.0820
 5527TIP3    H238073   5.490   3.775  11.424  0.0634  1.5480 -0.8386
 5528TIP3   OH238074   3.255   2.892   5.566  0.1196  0.5088 -0.1841
 5528TIP3    H138075   3.337   2.869   5.610  0.2565  0.8355 -0.2626
 5528TIP3    H238076   3.190   2.897   5.637  0.5435  1.9748  0.1279
 5529TIP3   OH238077   2.418   0.994  11.937  0.0498  0.5085  0.1143
 5529TIP3    H138078   2.485   0.962  11.998  0.5808  0.6032 -0.4190
 5529TIP3    H238079   2.467   1.024  11.861 -0.7617 -1.8202 -1.3798
 5530TIP3   OH238080   0.557   1.242  16.920 -0.3892 -0.3221  0.3454
 5530TIP3    H138081   0.634   1.188  16.937 -0.3736 -0.1531  0.8276
 5530TIP3    H238082   0.590   1.317  16.871 -0.2828 -0.3521  0.3689
 5531TIP3   OH238083   3.350   6.301   2.104  0.3387 -0.5250  0.1075
 5531TIP3    H138084   3.314   6.316   2.017  0.9712  1.0401  0.0922
 5531TIP3    H238085   3.348   6.387   2.146  3.0284 -0.5972  0.4894
 5532TIP3   OH238086   0.995   6.181   2.215 -0.5238  0.1722 -0.0876
 5532TIP3    H138087   0.950   6.258   2.182 -2.4515 -0.7592  0.2851
 5532TIP3    H238088   1.080   6.181   2.171 -2.1148  0.2165 -3.2792
 5533TIP3   OH238089   4.131   3.170   2.453  0.3528  0.1729  0.1445
 5533TIP3    H138090   4.171   3.248   2.415 -1.2419  1.2800  0.6548
 5533TIP3    H238091   4.141   3.182   2.548  2.3035 -1.4671  0.1653
 5534TIP3   OH238092   3.381   1.175   2.919  0.0486 -0.2379  0.1203
 5534TIP3    H138093   3.443   1.117   2.874 -0.5567 -0.2732 -0.6879
 5534TIP3    H238094   3.295   1.150   2.884 -0.5327 -0.8656  1.9810
 5535TIP3   OH238095   5.710   4.628   3.549 -0.1419 -0.4216 -0.5464
 5535TIP3    H138096   5.751   4.714   3.555  1.3133 -1.1038 -0.6566
 5535TIP3    H238097   5.616   4.646   3.556  0.1942  1.0921  0.2158
 5536TIP3   OH238098   5.046   2.707   2.121  0.4071  0.0872 -0.5484
 5536TIP3    H138099   5.073   2.794   2.091  1.4834 -0.4087 -1.0675
 5536TIP3    H238100   5.053   2.711   2.216 -1.3465  1.1413 -0.4518
 5537TIP3   OH238101   0.338   3.857  16.907 -0.3652  0.2624 -0.2072
 5537TIP3    H138102   0.366   3.949  16.908  0.3983  0.0415  1.2264
 5537TIP3    H238103   0.379   3.820  16.829 -1.4495  1.3562 -1.3096
 5538TIP3   OH238104   5.160   1.383   1.673  0.0850  0.1464  0.1844
 5538TIP3    H138105   5.170   1.454   1.736  0.8297 -1.3647  1.7869
 5538TIP3    H238106   5.248   1.366   1.641 -0.2713  0.8439 -1.2567
 5539TIP3   OH238107   0.839   2.025  11.238 -0.3946  0.0890 -0.3531
 5539TIP3    H138108   0.753   2.053  11.204 -0.7254 -1.7103 -1.0382
 5539TIP3    H238109   0.895   2.024  11.161  0.1145  0.7292  0.0057
 5540TIP3   OH238110   1.638   1.201   4.742  0.1369 -0.4880 -0.0471
 5540TIP3    H138111   1.629   1.283   4.693 -0.9913 -2.0182 -2.4993
 5540TIP3    H238112   1.733   1.187   4.748  0.3328  0.8480  0.1922
 5541TIP3   OH238113   4.880   3.969  16.421 -0.6025  0.5928 -0.3732
 5541TIP3    H138114   4.885   4.054  16.378  0.3281  0.7468  0.0191
 5541TIP3    H238115   4.938   3.913  16.370  1.3277  1.0478  1.2577
 5542TIP3   OH238116   2.160   4.442  14.578 -0.0923 -0.4951  0.4990
 5542TIP3    H138117   2.177   4.518  14.523  0.6596 -0.0183  1.3644
 5542TIP3    H238118   2.233   4.383  14.560  0.1434 -0.3471  0.9696
 5543TIP3   OH238119   5.354   1.945  15.566  0.6607 -0.0756 -0.4132
 5543TIP3    H138120   5.402   1.902  15.637 -1.0764  1.5736  1.7956
 5543TIP3    H238121   5.305   1.875  15.524 -0.0036 -0.6961  1.4023
 5544TIP3   OH238122   5.550   0.742  15.156  0.3769  0.4083  0.2003
 5544TIP3    H138123   5.601   0.822  15.145  0.1989  0.6584  1.1494
 5544TIP3    H238124   5.574   0.688  15.080  0.0277  1.5960 -0.7642
 5545TIP3   OH238125   1.980   3.275   3.326 -0.1058  0.3080  0.0204
 5545TIP3    H138126   2.044   3.287   3.396 -1.1291  0.8429  0.8881
 5545TIP3    H238127   1.986   3.182   3.304  2.8956  0.8933 -1.8366
 5546TIP3   OH238128   4.995   0.823   0.621  0.0561 -0.7648 -0.3954
 5546TIP3    H138129   5.068   0.878   0.648  1.0140 -1.8792 -0.6677
 5546TIP3    H238130   5.036   0.744   0.586 -1.2777 -1.3609 -0.6551
 5547TIP3   OH238131   0.353   6.067   5.989  0.3522 -0.2957 -0.3855
 5547TIP3    H138132   0.436   6.091   5.947  0.9806 -0.2412  0.8747
 5547TIP3    H238133   0.304   6.150   5.994 -1.3282 -0.9400 -4.4387
 5548TIP3   OH238134   1.358   3.023   5.537  0.2963  0.4457 -0.0157
 5548TIP3    H138135   1.422   3.001   5.606 -1.5419 -0.5975  1.4026
 5548TIP3    H238136   1.303   3.090   5.577 -0.5699  0.0790 -0.5970
 5549TIP3   OH238137   2.490   3.184  16.988 -0.9894  0.4810  0.4024
 5549TIP3    H138138   2.563   3.234  17.025 -1.7974  1.9435  0.0919
 5549TIP3    H238139   2.515   3.092  17.000  0.7857  0.9524  0.4936
 5550TIP3   OH238140   1.087   5.644  14.204  0.6322 -0.9607  0.0852
 5550TIP3    H138141   1.164   5.683  14.162  0.1439 -1.0658 -0.9368
 5550TIP3    H238142   1.013   5.695  14.170  0.1809 -1.3701  0.4417
 5551TIP3   OH238143   4.022   4.766  16.752  0.6560 -0.0195  0.4688
 5551TIP3    H138144   4.112   4.772  16.785  1.2232 -0.2491 -0.9832
 5551TIP3    H238145   3.996   4.675  16.769  0.7958 -0.0233  0.6597
 5552TIP3   OH238146   0.683   5.898   0.751  0.4750 -0.2107  0.2763
 5552TIP3    H138147   0.637   5.861   0.676  0.2028 -0.1023  0.3875
 5552TIP3    H238148   0.697   5.824   0.810 -0.2370 -0.1000  0.5829
 5553TIP3   OH238149   6.351   5.944   3.739  0.1644 -0.5105 -0.5330
 5553TIP3    H138150   6.362   5.946   3.644 -0.2080 -0.6156 -0.5817
 5553TIP3    H238151   6.258   5.965   3.752 -0.1255 -1.8910 -0.2641
 5554TIP3   OH238152   2.907   0.548   2.182  0.4000  0.1100  0.4132
 5554TIP3    H138153   2.991   0.593   2.176  0.7051 -0.7863 -2.9423
 5554TIP3    H238154   2.930   0.458   2.206  0.2210  0.3836  1.6230
 5555TIP3   OH238155   4.355   3.550   1.023 -0.7858 -0.3905  0.3979
 5555TIP3    H138156   4.443   3.558   1.059 -1.1114 -1.7132  1.5600
 5555TIP3    H238157   4.367   3.547   0.929  0.1715  2.2175  0.3960
 5556TIP3   OH238158   0.777   4.658   5.451  0.1176 -0.0114 -0.1455
 5556TIP3    H138159   0.712   4.648   5.381  0.5000 -0.9417 -0.3764
 5556TIP3    H238160   0.837   4.584   5.439  1.4728  1.0741 -0.2051
 5557TIP3   OH238161   1.919   2.890  13.176  0.2233 -0.4068 -0.2635
 5557TIP3    H138162   1.837   2.842  13.166 -0.0813  0.1612 -0.5470
 5557TIP3    H238163   1.968   2.842  13.243 -0.5489 -0.4720  0.2583
 5558TIP3   OH238164   2.946   6.376  16.155 -0.1933 -0.3701 -0.0603
 5558TIP3    H138165   2.877   6.405  16.215  0.3821 -0.1711  0.5092
 5558TIP3    H238166   2.989   6.456  16.127  2.0755 -0.7042  2.3237
 5559TIP3   OH238167   6.796   4.783  17.060 -0.3422 -0.0618 -0.1217
 5559TIP3    H138168   6.753   4.706  17.097 -0.7313  0.4352  0.4776
 5559TIP3    H238169   6.739   4.856  17.083 -0.7506  0.2371 -1.9683
 5560TIP3   OH238170   2.851   0.545   3.063  0.4757  0.6115  0.3923
 5560TIP3    H138171   2.895   0.461   3.081  0.0343  0.7333  2.0347
 5560TIP3    H238172   2.816   0.573   3.147 -1.7123  1.1310 -0.6614
 5561TIP3   OH238173   5.349   5.776  17.240  0.0117  0.1639 -0.5460
 5561TIP3    H138174   5.419   5.728  17.285 -0.3707 -0.5915 -0.7357
 5561TIP3    H238175   5.294   5.707  17.201 -1.0637  0.7293 -0.0573
 5562TIP3   OH238176   5.597   0.789  14.364  0.1203 -0.5890  0.1316
 5562TIP3    H138177   5.659   0.854  14.396  0.8509 -1.6311  0.8680
 5562TIP3    H238178   5.529   0.840  14.320  0.4002  0.6997  1.1742
 5563TIP3   OH238179   2.453   3.656  15.032  0.2709 -0.0742 -0.0793
 5563TIP3    H138180   2.459   3.749  15.054  2.4055  0.1088 -1.2817
 5563TIP3    H238181   2.518   3.614  15.088 -2.0977 -1.1598  1.9353
 5564TIP3   OH238182   4.220   6.469   2.959  0.1948  0.0172  0.0588
 5564TIP3    H138183   4.204   6.467   2.865 -0.0040  0.5978  0.0796
 5564TIP3    H238184   4.175   6.547   2.989  0.7767  0.1690  0.5404
 5565TIP3   OH238185   0.433   3.940   1.736  0.2211 -0.1203 -0.5610
 5565TIP3    H138186   0.502   3.875   1.749  0.3689  0.2871  0.7296
 5565TIP3    H238187   0.462   3.991   1.661 -0.0224 -1.7058 -1.7536
 5566TIP3   OH238188   2.437   3.095   3.463  0.2554  0.0691  0.1406
 5566TIP3    H138189   2.417   3.006   3.434 -1.4910  0.0229  1.3729
 5566TIP3    H238190   2.486   3.084   3.544 -0.1278  0.2113  0.3969
 5567TIP3   OH238191   6.393   2.008   0.760  0.0775 -0.0480 -0.0919
 5567TIP3    H138192   6.349   2.005   0.674 -1.4453 -0.0890  0.6604
 5567TIP3    H238193   6.321   2.021   0.822  1.2904  1.1499  1.0822
 5568TIP3   OH238194   5.795   4.767  10.661  0.5677  0.6267  0.2875
 5568TIP3    H138195   5.874   4.821  10.664  1.3529 -0.5508  1.2977
 5568TIP3    H238196   5.732   4.813  10.718  1.4710  0.1131  1.7163
 5569TIP3   OH238197   4.992   4.532   6.346 -0.0793 -0.3810 -0.5318
 5569TIP3    H138198   4.935   4.468   6.304 -2.0054  1.7255 -1.2148
 5569TIP3    H238199   5.051   4.561   6.277  0.4782 -1.0514 -0.3421
 5570TIP3   OH238200   6.204   0.074   5.227  0.3372 -0.2807  0.0645
 5570TIP3    H138201   6.213   0.169   5.230  0.8301 -0.1848 -2.6973
 5570TIP3    H238202   6.257   0.047   5.152 -0.5943 -2.6326  0.1841
 5571TIP3   OH238203   4.799   2.071  11.086  0.0112  0.2488  0.2733
 5571TIP3    H138204   4.747   2.071  11.005  0.3970 -0.1808  0.0230
 5571TIP3    H238205   4.821   2.163  11.100  0.8061  0.2129 -0.6780
 5572TIP3   OH238206   1.373   5.779   3.513  0.3642 -0.2875 -0.0121
 5572TIP3    H138207   1.408   5.721   3.581  0.4972  0.1110  0.2575
 5572TIP3    H238208   1.278   5.777   3.526  0.2824 -1.3153 -0.7006
 5573TIP3   OH238209   5.035   4.679   5.500 -0.2831  0.8319 -0.4488
 5573TIP3    H138210   4.997   4.754   5.455  1.5231  2.2878  0.3447
 5573TIP3    H238211   4.995   4.680   5.587 -1.4017 -0.0578 -0.9498
 5574TIP3   OH238212   6.572   2.095  12.768  0.3063  0.1796 -0.7259
 5574TIP3    H138213   6.519   2.152  12.712 -0.0328 -0.6259 -1.2294
 5574TIP3    H238214   6.615   2.035  12.708 -0.4273 -0.9999 -0.0937
 5575TIP3   OH238215   4.738   0.968  14.176 -0.0308  0.2894  0.1286
 5575TIP3    H138216   4.780   0.995  14.257 -0.1024  0.5033  0.0969
 5575TIP3    H238217   4.773   0.881  14.158 -0.2321  0.1261  0.5371
 5576TIP3   OH238218   5.625   4.306   3.792 -0.0408  0.2454 -0.2261
 5576TIP3    H138219   5.578   4.343   3.868  0.3605  0.4038 -0.0519
 5576TIP3    H238220   5.671   4.231   3.828 -0.6579 -0.2798 -0.5309
 5577TIP3   OH238221   1.852   1.304   0.177  0.1014 -0.2896  0.4271
 5577TIP3    H138222   1.912   1.371   0.145  0.8773 -0.2516  1.9506
 5577TIP3    H238223   1.907   1.245   0.229 -0.5981 -2.0025 -0.7223
 5578TIP3   OH238224   0.635   4.140  16.808  0.1754  0.5093 -0.4371
 5578TIP3    H138225   0.610   4.093  16.729  0.5662  1.7917 -1.3469
 5578TIP3    H238226   0.638   4.073  16.876  1.0855 -0.8402 -1.7683
 5579TIP3   OH238227   4.594   6.434   2.334 -0.2552 -0.5810  0.0931
 5579TIP3    H138228   4.557   6.398   2.415  1.3514 -0.7633  0.7658
 5579TIP3    H238229   4.587   6.363   2.271 -2.8098  0.0224 -0.3473
 5580TIP3   OH238230   5.553   2.139  10.996 -0.0529 -0.3092 -0.0786
 5580TIP3    H138231   5.554   2.233  11.017 -0.8493 -0.6283  1.4403
 5580TIP3    H238232   5.631   2.104  11.037  0.7268 -0.1765 -1.4056
 5581TIP3   OH238233   0.291   5.431   5.032  0.5355  0.8130  0.0309
 5581TIP3    H138234   0.236   5.434   4.953  0.1081  0.9017  0.3270
 5581TIP3    H238235   0.231   5.455   5.103  0.2532 -1.9559  0.7553
 5582TIP3   OH238236   1.269   0.660   4.819 -0.2853 -0.7497  0.0688
 5582TIP3    H138237   1.233   0.591   4.876  1.4047 -1.1747  0.6456
 5582TIP3    H238238   1.360   0.670   4.848  0.4651 -0.6563 -2.2642
 5583TIP3   OH238239   5.925   6.732  16.419  0.3851  0.2957 -0.3667
 5583TIP3    H138240   5.872   6.724  16.339  0.3938  2.6640 -0.6443
 5583TIP3    H238241   5.987   6.660  16.413 -0.8774 -0.7364 -1.5273
 5584TIP3   OH238242   5.836   2.243  11.399 -0.6743 -0.6776 -0.4911
 5584TIP3    H138243   5.876   2.297  11.467 -1.6129 -1.5242  0.7510
 5584TIP3    H238244   5.886   2.263  11.320  0.0748  0.7271  0.3238
 5585TIP3   OH238245   1.271   5.603  11.543  0.0247  0.2313 -0.1486
 5585TIP3    H138246   1.308   5.664  11.480 -1.7563  1.7574  0.2347
 5585TIP3    H238247   1.334   5.531  11.546  1.1116  1.0470 -2.1753
 5586TIP3   OH238248   3.195   5.267   0.012 -0.0765 -0.4710 -0.5599
 5586TIP3    H138249   3.110   5.311   0.004  0.0153 -0.3423 -0.8347
 5586TIP3    H238250   3.203   5.217  -0.070  0.6732  0.4976 -1.0842
 5587TIP3   OH238251   3.974   0.798  13.909 -0.6387  0.8444  0.0474
 5587TIP3    H138252   3.940   0.865  13.968 -0.8294 -0.3125  1.2660
 5587TIP3    H238253   3.899   0.742  13.891 -0.5974  1.2241 -1.3623
 5588TIP3   OH238254   2.386   6.249   3.228 -0.2322 -0.1818 -0.0021
 5588TIP3    H138255   2.393   6.340   3.201  3.7179 -1.0498 -2.3718
 5588TIP3    H238256   2.352   6.204   3.151 -2.4760 -0.7375  1.2593
 5589TIP3   OH238257   3.647   6.600   5.012 -0.3735  0.0712  0.1107
 5589TIP3    H138258   3.689   6.679   4.977  0.3827  1.1451  3.2637
 5589TIP3    H238259   3.589   6.570   4.942  1.5545  1.6946 -2.2758
 5590TIP3   OH238260   3.160   0.728  12.155  0.4167  0.0320  0.3656
 5590TIP3    H138261   3.092   0.709  12.220  0.9071  0.6990  1.0721
 5590TIP3    H238262   3.166   0.647  12.104 -0.9558 -0.0140  0.2417
 5591TIP3   OH238263   0.279   0.413  15.716  0.4433  0.3585 -0.6316
 5591TIP3    H138264   0.301   0.498  15.753  1.4054  0.0789 -0.5425
 5591TIP3    H238265   0.185   0.405  15.728  0.3916  1.2852 -0.3833
 5592TIP3   OH238266   3.042   4.110   3.243 -0.9272  0.2928  0.3881
 5592TIP3    H138267   3.010   4.199   3.231 -0.0200  0.7796  1.4734
 5592TIP3    H238268   3.132   4.112   3.210 -0.5059  0.0960  1.4929
 5593TIP3   OH238269   6.654   5.904   2.396  0.6371 -0.2169 -0.2099
 5593TIP3    H138270   6.749   5.916   2.385  0.7395 -0.3496  0.5193
 5593TIP3    H238271   6.628   5.853   2.319  1.4021 -1.3403  0.2535
 5594TIP3   OH238272   0.139   6.507  14.812 -0.0255 -0.0507  0.2260
 5594TIP3    H138273   0.148   6.436  14.749  0.4153  1.7802 -1.8138
 5594TIP3    H238274   0.171   6.584  14.766 -0.5740  1.5028  2.3824
 5595TIP3   OH238275   4.537   1.570   1.754 -0.5634 -0.5026 -0.1110
 5595TIP3    H138276   4.443   1.572   1.736 -0.4166 -2.5753 -1.2311
 5595TIP3    H238277   4.546   1.509   1.827 -0.0166 -0.8900 -0.4997
 5596TIP3   OH238278   1.497   1.283   2.170 -0.3828  0.0990  0.5961
 5596TIP3    H138279   1.446   1.299   2.249  0.0668  2.3317  0.4683
 5596TIP3    H238280   1.433   1.289   2.099 -0.5478 -0.5735  0.6838
 5597TIP3   OH238281   5.022   2.304  12.806  0.4308  0.6834 -0.1308
 5597TIP3    H138282   5.083   2.235  12.833  0.4207  1.3455  1.6254
 5597TIP3    H238283   4.957   2.307  12.875 -1.2630  0.4500 -1.6621
 5598TIP3   OH238284   5.955   5.230   0.335 -0.4153  0.2277 -0.2155
 5598TIP3    H138285   5.914   5.309   0.298  0.0962  0.3398 -0.5395
 5598TIP3    H238286   5.881   5.180   0.370 -0.6965  1.0749  0.4204
 5599TIP3   OH238287   4.826   4.080  12.172  0.0466 -0.1088 -0.4786
 5599TIP3    H138288   4.900   4.136  12.150  1.4939 -1.9100 -0.2442
 5599TIP3    H238289   4.834   4.005  12.113 -1.0867 -0.7568  0.1756
 5600TIP3   OH238290   5.624   6.616  12.407 -0.2968 -0.1125 -0.6057
 5600TIP3    H138291   5.540   6.572  12.422 -0.0464 -0.0657  1.0615
 5600TIP3    H238292   5.646   6.654  12.492  0.2615  1.8893 -1.6324
 5601TIP3   OH238293   1.871   2.012  14.716 -0.4331 -0.0605 -0.1712
 5601TIP3    H138294   1.867   1.971  14.803 -0.4080  2.3858  1.0371
 5601TIP3    H238295   1.786   1.995  14.677 -0.2960 -1.5466  0.1447
 5602TIP3   OH238296   3.970   0.059   5.290  0.0318 -0.0822  0.2608
 5602TIP3    H138297   4.051   0.012   5.272 -0.4501 -0.9731  0.3657
 5602TIP3    H238298   3.997   0.150   5.305  0.8016  0.0179 -1.6061
 5603TIP3   OH238299   5.131   3.550  15.311  0.6164  0.6189  0.1843
 5603TIP3    H138300   5.070   3.562  15.383 -0.9190  0.1448 -0.9985
 5603TIP3    H238301   5.168   3.463  15.325  0.1722  0.4476  0.3099
 5604TIP3   OH238302   4.500   6.172  17.190  0.5460 -0.6064  0.0330
 5604TIP3    H138303   4.510   6.178  17.095  1.2427  0.5102  0.1738
 5604TIP3    H238304   4.421   6.223  17.210  1.8966  1.4061  0.3340
 5605TIP3   OH238305   1.730   2.684   1.388 -0.2972  0.0911  0.8115
 5605TIP3    H138306   1.787   2.723   1.454 -0.6225 -1.0675  1.7897
 5605TIP3    H238307   1.675   2.756   1.358  3.1522  1.8069 -1.8191
 5606TIP3   OH238308   6.774   4.650  14.302  0.1796  0.1582  0.4123
 5606TIP3    H138309   6.844   4.585  14.300 -0.3232 -0.3482 -1.1465
 5606TIP3    H238310   6.698   4.603  14.335  0.1003  0.2311  0.3357
 5607TIP3   OH238311   4.958   3.369  12.212  0.1939  0.2774  0.0873
 5607TIP3    H138312   4.937   3.330  12.127 -0.4013  0.7798 -0.0019
 5607TIP3    H238313   4.944   3.300  12.276  0.1704  0.0429 -0.1736
 5608TIP3   OH238314   1.612   5.105   6.908  0.4425  0.2973  0.1238
 5608TIP3    H138315   1.539   5.167   6.904  0.8917  0.7817 -0.7639
 5608TIP3    H238316   1.576   5.024   6.873  0.1647  0.3717  0.2336
 5609TIP3   OH238317   4.325   4.332  16.112  0.0513 -0.1675 -0.3002
 5609TIP3    H138318   4.389   4.351  16.181  0.5764 -2.1293 -0.2270
 5609TIP3    H238319   4.341   4.399  16.045 -0.1045  1.4258  1.2292
 5610TIP3   OH238320   2.933   2.170   5.487 -0.4679 -0.1300  0.0561
 5610TIP3    H138321   2.871   2.099   5.472 -0.3665 -0.0618 -0.7543
 5610TIP3    H238322   2.991   2.137   5.556 -1.1192 -0.3766  0.4867
 5611TIP3   OH238323   1.042   1.653   0.200 -0.4211  0.3976  0.4851
 5611TIP3    H138324   1.121   1.696   0.234 -0.6282  0.4304  0.9326
 5611TIP3    H238325   1.060   1.638   0.108  0.7041 -0.9088  0.8989
 5612TIP3   OH238326   0.999   3.791   0.671  0.7786  0.3221 -0.2574
 5612TIP3    H138327   0.997   3.863   0.734  0.5919 -0.2820  0.4229
 5612TIP3    H238328   0.930   3.732   0.699  0.4591  0.2240 -1.2391
 5613TIP3   OH238329   4.327   5.675   3.941 -0.1142 -0.9103  0.5011
 5613TIP3    H138330   4.375   5.695   3.860 -2.7712  1.3762 -0.6032
 5613TIP3    H238331   4.268   5.604   3.917  0.3311 -1.4406  0.9511
 5614TIP3   OH238332   0.912   4.932   1.985  0.7929 -0.2685  0.2705
 5614TIP3    H138333   0.986   4.875   2.007  0.8886 -0.4997 -0.6530
 5614TIP3    H238334   0.950   5.003   1.935  0.3765 -0.4525 -0.3144
 5615TIP3   OH238335   0.207   4.667   2.314  0.0679  0.0761 -0.9987
 5615TIP3    H138336   0.288   4.654   2.363 -1.0961  0.4993  1.0963
 5615TIP3    H238337   0.144   4.608   2.355 -1.0378  0.7540 -1.6963
 5616TIP3   OH238338   1.102   1.192   2.616  0.1082  0.1005 -0.2551
 5616TIP3    H138339   1.036   1.146   2.668  0.9138 -0.5768  0.1828
 5616TIP3    H238340   1.170   1.127   2.600  1.2106  1.1071  0.2730
 5617TIP3   OH238341   4.552   3.090   1.968 -0.4283  0.3010  0.9290
 5617TIP3    H138342   4.502   3.018   2.008  0.1285 -0.2100  0.7174
 5617TIP3    H238343   4.492   3.128   1.903 -0.7566  0.0835  1.1041
 5618TIP3   OH238344   3.204   0.494   1.742 -0.0327 -0.6057 -0.0526
 5618TIP3    H138345   3.157   0.566   1.699  1.8215  1.3533  1.1138
 5618TIP3    H238346   3.152   0.417   1.722 -1.9986  1.0257 -1.4860
 5619TIP3   OH238347   0.897   3.656   3.642 -0.6430 -0.2315  0.0641
 5619TIP3    H138348   0.896   3.594   3.715 -1.3917  0.6945  0.8633
 5619TIP3    H238349   0.912   3.603   3.564  0.2964 -1.2188  0.9143
 5620TIP3   OH238350   1.095   3.776  16.645 -0.0412 -0.4839 -0.0133
 5620TIP3    H138351   1.149   3.782  16.724  0.1557  0.1781 -0.1990
 5620TIP3    H238352   1.119   3.691  16.606 -0.5201 -1.0457  0.9061
 5621TIP3   OH238353   4.451   4.293  14.249  0.3352 -0.1968 -0.0523
 5621TIP3    H138354   4.477   4.222  14.309 -3.8256 -1.6110  0.2605
 5621TIP3    H238355   4.448   4.371  14.304  1.9735 -0.3721  0.3023
 5622TIP3   OH238356   6.052   0.924   0.747  0.2770  0.2003 -0.0330
 5622TIP3    H138357   6.063   0.894   0.837  3.0618 -0.9938 -0.7188
 5622TIP3    H238358   6.006   0.852   0.703  0.7518 -0.0876 -0.0557
 5623TIP3   OH238359   4.562   1.365   1.949  0.0390 -0.5295 -0.9025
 5623TIP3    H138360   4.504   1.311   2.004 -0.2126  0.3345 -0.3195
 5623TIP3    H238361   4.605   1.301   1.891  2.0919 -1.7957  1.8705
 5624TIP3   OH238362   2.241   2.161   2.209 -0.1738  0.1164  0.2216
 5624TIP3    H138363   2.182   2.202   2.145 -1.0079 -0.2667  0.7336
 5624TIP3    H238364   2.255   2.229   2.275 -0.1198  0.1775  0.1474
 5625TIP3   OH238365   2.354   1.988   1.578  0.1819  0.3046  0.2689
 5625TIP3    H138366   2.356   2.081   1.553  2.3255  0.1229 -0.4004
 5625TIP3    H238367   2.400   1.943   1.507 -1.8109 -1.4320  0.0464
 5626TIP3   OH238368   0.520   6.682   6.550  0.6600 -0.1073  0.0618
 5626TIP3    H138369   0.518   6.752   6.615  0.2847 -0.8234  0.8311
 5626TIP3    H238370   0.585   6.620   6.584  2.1574  0.5986 -1.3956
 5627TIP3   OH238371   3.509   3.660  13.145  0.3855 -0.1848 -0.6188
 5627TIP3    H138372   3.434   3.719  13.138  0.6790  0.1168 -1.1875
 5627TIP3    H238373   3.491   3.608  13.224 -0.3301  0.0116 -0.6522
 5628TIP3   OH238374   3.826   5.315  13.704 -0.3027  0.3597  0.3932
 5628TIP3    H138375   3.760   5.372  13.745 -0.3755 -0.8519  2.0466
 5628TIP3    H238376   3.895   5.308  13.770  0.4137 -0.2389 -0.4140
 5629TIP3   OH238377   2.493   5.530  14.875  0.0345  0.3019 -0.6102
 5629TIP3    H138378   2.501   5.610  14.823 -0.1213  0.5677 -0.2320
 5629TIP3    H238379   2.427   5.551  14.941 -1.4188 -0.7748 -1.6942
 5630TIP3   OH238380   2.705   4.068  11.414 -0.1277 -0.0477  0.2722
 5630TIP3    H138381   2.627   4.063  11.359  0.2604  1.8281 -0.4736
 5630TIP3    H238382   2.671   4.075  11.503 -0.8138  0.5485 -0.0325
 5631TIP3   OH238383   2.145   0.851  12.703 -0.0868 -0.1196  0.1888
 5631TIP3    H138384   2.171   0.883  12.617  1.5163 -0.6122  0.4753
 5631TIP3    H238385   2.187   0.766  12.711  0.8954  0.5073  1.9973
 5632TIP3   OH238386   1.415   4.908  12.873  0.0878 -0.3459  0.1827
 5632TIP3    H138387   1.440   4.884  12.963 -1.1785  0.9153  0.8881
 5632TIP3    H238388   1.320   4.902  12.872 -0.0971  2.2560 -0.2945
 5633TIP3   OH238389   1.431   6.079  10.638 -0.1323  0.3940 -0.0807
 5633TIP3    H138390   1.377   6.034  10.703  0.5232  2.3703  1.8810
 5633TIP3    H238391   1.373   6.092  10.563 -0.4061 -3.4465 -0.6391
 5634TIP3   OH238392   1.776   3.354  15.056 -0.1486  0.0849 -0.0891
 5634TIP3    H138393   1.763   3.449  15.058  0.8553  0.2234  2.5179
 5634TIP3    H238394   1.866   3.342  15.087 -0.6958 -1.7607  0.8567
 5635TIP3   OH238395   1.617   2.322   6.087 -0.2559 -0.2109 -0.4058
 5635TIP3    H138396   1.650   2.335   5.999  0.1327 -1.2000 -0.4110
 5635TIP3    H238397   1.635   2.230   6.107  0.7438  0.2901  1.1487
 5636TIP3   OH238398   0.513   3.423  17.181 -0.1051  0.0273  0.7010
 5636TIP3    H138399   0.574   3.479  17.229  0.1151  0.2159  0.2015
 5636TIP3    H238400   0.441   3.481  17.158 -0.4324 -0.1725  1.2035
 5637TIP3   OH238401   1.708   2.674   2.072  0.4788  0.0730  0.0880
 5637TIP3    H138402   1.647   2.715   2.134  1.3784 -0.6298  1.4512
 5637TIP3    H238403   1.651   2.634   2.006 -0.4978  0.5470  0.6311
 5638TIP3   OH238404   1.888   3.005  16.733 -0.6057 -0.3055 -0.4227
 5638TIP3    H138405   1.976   3.040  16.720 -0.8243 -0.0736 -1.3392
 5638TIP3    H238406   1.867   3.025  16.824  0.7256 -1.3386  0.1364
 5639TIP3   OH238407   2.796   2.407   1.545  0.1356  0.2031 -0.5786
 5639TIP3    H138408   2.883   2.440   1.563  0.1990 -1.3488  2.1061
 5639TIP3    H238409   2.770   2.361   1.624 -2.4306 -0.8533 -1.9607
 5640TIP3   OH238410   4.378   4.974   3.482 -0.6290 -0.2932  0.1862
 5640TIP3    H138411   4.337   4.986   3.396 -0.7627 -1.8359  0.0204
 5640TIP3    H238412   4.304   4.963   3.542 -0.5259  0.1045  0.3813
 5641TIP3   OH238413   3.241   0.888   3.093  0.2070  0.2067  0.3522
 5641TIP3    H138414   3.192   0.840   3.160  0.3056 -3.1622 -1.8539
 5641TIP3    H238415   3.324   0.909   3.135 -0.8897  0.9305  2.2599
 5642TIP3   OH238416   6.457   3.796   0.036 -0.0655  0.5441  0.1695
 5642TIP3    H138417   6.428   3.783  -0.054 -0.0189  0.6358  0.1421
 5642TIP3    H238418   6.517   3.723   0.053  0.0526  0.6179  0.0717
 5643TIP3   OH238419   4.759   4.016  14.855 -0.2001  0.1818  0.2691
 5643TIP3    H138420   4.853   4.002  14.842 -0.2343  0.0713  0.1380
 5643TIP3    H238421   4.747   4.008  14.950 -0.3072 -1.2570  0.1507
 5644TIP3   OH238422   5.821   0.906   5.179  0.1879 -0.0953  0.6810
 5644TIP3    H138423   5.876   0.952   5.115  0.8054 -1.1947  0.4240
 5644TIP3    H238424   5.748   0.966   5.194  0.1917  0.3105 -0.8310
 5645TIP3   OH238425   2.242   4.921   6.663 -0.5438  0.8730  0.1262
 5645TIP3    H138426   2.182   4.883   6.599 -0.3347  0.1107  0.3839
 5645TIP3    H238427   2.187   4.935   6.741 -0.1355 -0.8815  0.7461
 5646TIP3   OH238428   1.648   6.792  13.945 -0.0002 -0.0657  0.0423
 5646TIP3    H138429   1.604   6.829  13.869 -0.4537  0.4876  0.5655
 5646TIP3    H238430   1.613   6.703  13.953 -1.7749  0.6885  1.0254
 5647TIP3   OH238431   5.074   0.260   0.688 -0.3631  0.3565 -0.6756
 5647TIP3    H138432   5.122   0.259   0.605  0.5698 -0.8653 -0.1137
 5647TIP3    H238433   4.982   0.270   0.661  0.0601  1.4436 -1.7900
 5648TIP3   OH238434   4.922   2.935  16.188 -0.2447 -0.4396  0.6279
 5648TIP3    H138435   5.017   2.949  16.191 -0.4156  0.8956  0.0314
 5648TIP3    H238436   4.889   2.982  16.264 -0.4909 -0.4472  0.5225
 5649TIP3   OH238437   6.558   3.157   4.876 -0.2123 -0.2710 -0.8456
 5649TIP3    H138438   6.499   3.190   4.944 -0.4436  1.9398 -2.0831
 5649TIP3    H238439   6.554   3.061   4.885 -2.4176 -0.0849  0.3793
 5650TIP3   OH238440   1.264   0.982   0.955  0.6603  0.1827  0.3272
 5650TIP3    H138441   1.331   0.915   0.941 -0.0658 -0.3615 -0.5656
 5650TIP3    H238442   1.211   0.949   1.027 -1.4125 -1.5666 -1.9385
 5651TIP3   OH238443   1.568   0.974  17.254  0.4197 -0.0648  0.1086
 5651TIP3    H138444   1.570   1.069  17.254 -1.1454 -0.0256  0.7294
 5651TIP3    H238445   1.660   0.948  17.246  0.6533  1.4634 -2.7826
 5652TIP3   OH238446   3.450   0.581   2.717 -0.2817 -0.4523 -0.3862
 5652TIP3    H138447   3.395   0.646   2.760  1.8848  0.3921  1.1281
 5652TIP3    H238448   3.497   0.537   2.788  1.0252 -1.1716 -1.6608
 5653TIP3   OH238449   4.258   2.037   3.317 -0.1041  0.2299  0.1236
 5653TIP3    H138450   4.180   2.027   3.263 -0.6195  1.2835  0.6779
 5653TIP3    H238451   4.262   2.130   3.337  1.1021  0.1272  0.3906
 5654TIP3   OH238452   6.613   2.548  13.564  0.1546  0.0459  0.3477
 5654TIP3    H138453   6.557   2.541  13.641  0.5024 -0.3352  0.5697
 5654TIP3    H238454   6.622   2.642  13.549  0.3818  0.1298  0.9981
 5655TIP3   OH238455   1.605   1.406  14.612  0.1041  0.7038  0.2917
 5655TIP3    H138456   1.615   1.339  14.545 -0.3470 -0.5717  1.4716
 5655TIP3    H238457   1.684   1.399  14.666 -0.7934 -0.1400  1.5157
 5656TIP3   OH238458   4.556   1.794   4.819  0.0578  0.2761 -0.3876
 5656TIP3    H138459   4.555   1.799   4.724 -1.7717  0.4210 -0.3741
 5656TIP3    H238460   4.537   1.883   4.848  0.9759  0.3126  0.1249
 5657TIP3   OH238461   0.042   6.703   1.808  0.0558 -0.8305  0.5862
 5657TIP3    H138462  -0.037   6.650   1.793  1.0546 -2.3676  0.7020
 5657TIP3    H238463   0.013   6.772   1.868 -1.1214 -1.5767  0.8902
 5658TIP3   OH238464   3.511   5.766  14.085  0.0584 -0.2266  0.4584
 5658TIP3    H138465   3.446   5.836  14.090 -0.1415 -0.4844  1.5251
 5658TIP3    H238466   3.468   5.699  14.031  0.8499  1.0836 -1.8859
 5659TIP3   OH238467   1.146   5.333   4.663  0.2150  0.5739 -0.1523
 5659TIP3    H138468   1.162   5.373   4.578 -1.3630  0.0390 -0.7260
 5659TIP3    H238469   1.161   5.240   4.649  1.5832  0.6704  0.5906
 5660TIP3   OH238470   6.054   2.263   0.266  0.5711 -0.2316  1.0080
 5660TIP3    H138471   5.971   2.296   0.233  0.5598 -2.0552 -0.9079
 5660TIP3    H238472   6.032   2.179   0.307  1.3861 -0.5514  0.8217
 5661TIP3   OH238473   3.872   5.411  15.750 -0.3665 -0.7154 -0.5883
 5661TIP3    H138474   3.810   5.485  15.746  0.5544  0.0473 -1.0726
 5661TIP3    H238475   3.958   5.452  15.740  0.4174 -1.4851  2.5711
 5662TIP3   OH238476   6.617   0.901   4.134 -0.3741  0.1494  0.0475
 5662TIP3    H138477   6.624   0.963   4.061  0.0307  0.9867  0.7883
 5662TIP3    H238478   6.659   0.821   4.102 -0.3345  0.4592 -0.6876
 5663TIP3   OH238479   5.027   1.443  15.531  0.4741  0.0007  0.4451
 5663TIP3    H138480   4.950   1.426  15.477  0.8638 -0.1301 -0.0697
 5663TIP3    H238481   5.018   1.534  15.557  0.7467  0.3265 -0.5844
 5664TIP3   OH238482   5.979   0.041  11.464  0.3810 -0.1420  0.0515
 5664TIP3    H138483   5.902   0.062  11.411  0.3412  0.5014  0.3607
 5664TIP3    H238484   6.047   0.101  11.433  1.4820 -2.2670 -1.8522
 5665TIP3   OH238485   4.641   1.003  15.635 -0.5222 -0.7760  0.0693
 5665TIP3    H138486   4.681   1.084  15.603 -0.1792 -1.8479 -2.2890
 5665TIP3    H238487   4.674   0.993  15.724  2.8506 -0.5357 -1.0945
 5666TIP3   OH238488   5.375   1.250  11.535 -0.5940  0.3097  0.2416
 5666TIP3    H138489   5.434   1.303  11.482 -1.0329 -0.7276 -1.3118
 5666TIP3    H238490   5.288   1.267  11.498 -1.2682  1.6904  2.3915
 5667TIP3   OH238491   1.635   4.936   3.510  0.1319  0.2455 -0.4081
 5667TIP3    H138492   1.672   4.917   3.424  0.8038  1.2428 -0.3486
 5667TIP3    H238493   1.618   4.849   3.548  0.2880 -0.2052 -1.3382
 5668TIP3   OH238494   4.003   0.772  17.054 -0.6882  0.1355 -0.3621
 5668TIP3    H138495   4.083   0.795  17.102 -0.9317  1.1267 -0.4125
 5668TIP3    H238496   4.033   0.714  16.984  0.1082  1.0895 -0.8300
 5669TIP3   OH238497   1.181   0.235  13.271 -0.3763  0.1449  0.7522
 5669TIP3    H138498   1.179   0.311  13.329  0.1658  2.1736 -1.8165
 5669TIP3    H238499   1.269   0.198  13.285 -0.2284  0.6485  1.1981
 5670TIP3   OH238500   6.233   4.481   0.980  0.3445 -0.4602 -0.4644
 5670TIP3    H138501   6.187   4.533   1.046 -0.0265 -1.0683 -0.2370
 5670TIP3    H238502   6.321   4.519   0.977 -0.0872  0.5378 -0.7115
 5671TIP3   OH238503   1.685   6.753  17.266 -0.3474 -0.3313 -0.2505
 5671TIP3    H138504   1.777   6.727  17.255 -0.2352 -2.1808  3.7964
 5671TIP3    H238505   1.636   6.689  17.215  0.5803  0.6930 -2.4732
 5672TIP3   OH238506   1.395   6.718   4.924 -0.5027  0.1887  0.3607
 5672TIP3    H138507   1.420   6.633   4.889 -2.2318  0.3083 -1.1816
 5672TIP3    H238508   1.325   6.699   4.987  1.1099  0.2023  2.2339
 5673TIP3   OH238509   1.841   0.452   5.791  0.0783  0.6022 -0.1302
 5673TIP3    H138510   1.903   0.442   5.863  1.2738 -1.2097 -1.3691
 5673TIP3    H238511   1.821   0.362   5.764  0.3592  1.2583 -2.6452
 5674TIP3   OH238512   3.713   5.114   2.658  0.2131 -0.2849 -0.2471
 5674TIP3    H138513   3.634   5.166   2.676  0.3324 -0.5117  0.9949
 5674TIP3    H238514   3.725   5.120   2.564 -0.6714  0.6606 -0.3070
 5675TIP3   OH238515   1.995   3.666   0.029 -0.2734 -0.3570 -0.2135
 5675TIP3    H138516   1.967   3.694   0.116 -1.3214  0.4719 -0.8121
 5675TIP3    H238517   2.039   3.582   0.044 -0.2449 -0.1116  1.1395
 5676TIP3   OH238518   2.171   6.226   0.706  0.8490  0.0906  0.4557
 5676TIP3    H138519   2.236   6.172   0.660  2.4662  1.7418  0.7701
 5676TIP3    H238520   2.088   6.201   0.666  2.0600  0.4711 -2.4425
 5677TIP3   OH238521   2.712   6.471  14.822 -0.2968  0.2733 -0.1469
 5677TIP3    H138522   2.796   6.516  14.820 -0.5886  0.8701  0.5092
 5677TIP3    H238523   2.662   6.518  14.889 -2.0118  1.4719 -2.2155
 5678TIP3   OH238524   3.755   1.259   1.405 -0.1082 -0.3212 -0.3415
 5678TIP3    H138525   3.660   1.254   1.415 -0.0799 -0.0258  0.0877
 5678TIP3    H238526   3.788   1.270   1.495  0.3566 -0.8819 -0.4461
 5679TIP3   OH238527   1.510   4.957   5.686 -1.0512 -0.2624  0.1516
 5679TIP3    H138528   1.513   4.869   5.648 -1.1670 -0.7846  1.3446
 5679TIP3    H238529   1.417   4.982   5.681 -1.3222 -0.9623  1.5077
 5680TIP3   OH238530   1.568   4.199   1.618  0.5378 -0.3893  0.2212
 5680TIP3    H138531   1.650   4.209   1.569  1.4158 -1.7978  1.3243
 5680TIP3    H238532   1.551   4.105   1.616 -1.3717 -0.0424 -0.4665
 5681TIP3   OH238533   1.334   1.606   5.033 -0.2689  0.1114 -0.2203
 5681TIP3    H138534   1.373   1.541   5.091 -2.1498 -1.4407 -0.6679
 5681TIP3    H238535   1.243   1.578   5.022 -0.3695  1.2245 -2.6565
 5682TIP3   OH238536   5.919   5.658   6.121  0.4696  0.3862 -0.1246
 5682TIP3    H138537   5.867   5.707   6.184 -0.6634 -0.0324 -0.7329
 5682TIP3    H238538   5.876   5.672   6.037  1.3864  0.1153 -0.6454
 5683TIP3   OH238539   3.008   2.051  16.103  0.3612  0.7073  0.5967
 5683TIP3    H138540   3.017   2.136  16.146 -0.4043  0.3046  1.5702
 5683TIP3    H238541   2.918   2.050  16.070  0.1864  0.0453  1.0883
 5684TIP3   OH238542   3.891   1.409  12.978 -0.2881  1.0020 -0.0289
 5684TIP3    H138543   3.955   1.440  13.042  0.0537 -0.9477  0.5918
 5684TIP3    H238544   3.832   1.483  12.965  0.2717  1.7653  1.7222
 5685TIP3   OH238545   1.834   4.231   6.117  0.2758 -0.2035  0.4828
 5685TIP3    H138546   1.755   4.243   6.171 -0.0423 -1.6998  0.3826
 5685TIP3    H238547   1.906   4.257   6.174 -0.3479  2.3771  0.1729
 5686TIP3   OH238548   2.323   0.035  15.333  0.0420 -0.6202 -0.1440
 5686TIP3    H138549   2.351   0.075  15.251 -0.6021 -0.6156 -0.3691
 5686TIP3    H238550   2.389  -0.031  15.352  0.4954 -0.2322 -0.3719
 5687TIP3   OH238551   5.901   4.688   5.093  0.6801  0.3987 -0.0460
 5687TIP3    H138552   5.850   4.655   5.019  0.7659 -1.4301  0.6729
 5687TIP3    H238553   5.894   4.783   5.087 -0.3068  0.2413 -1.6974
 5688TIP3   OH238554   0.131   3.587  14.456  0.0022 -0.3413 -0.0515
 5688TIP3    H138555   0.065   3.625  14.397  0.9795 -0.4957 -1.2629
 5688TIP3    H238556   0.153   3.503  14.416  0.3493 -0.6565  0.7884
 5689TIP3   OH238557   5.482   0.052  15.180 -0.6808 -0.7881  0.7099
 5689TIP3    H138558   5.516  -0.030  15.145  0.2589  0.7367 -2.1516
 5689TIP3    H238559   5.440   0.094  15.105 -2.2317  0.8132  2.4151
 5690TIP3   OH238560   2.617   0.261  17.119 -0.3272 -0.3212  0.1164
 5690TIP3    H138561   2.580   0.231  17.202 -2.1633 -2.3166 -1.3613
 5690TIP3    H238562   2.549   0.316  17.080  2.1529  4.1588  1.7767
 5691TIP3   OH238563   2.370   3.284  14.989 -0.2398 -0.7105 -0.2156
 5691TIP3    H138564   2.352   3.276  15.083  0.7470  0.5601  0.1041
 5691TIP3    H238565   2.465   3.296  14.984 -0.3998  0.1632 -1.2993
 5692TIP3   OH238566   2.754   5.125  11.789  0.2925 -0.0451  0.1732
 5692TIP3    H138567   2.661   5.131  11.768 -0.0343 -0.4706  1.4078
 5692TIP3    H238568   2.792   5.071  11.720 -0.3803  0.1309 -0.3345
 5693TIP3   OH238569   2.387   4.953   1.875  0.1521  0.0494 -0.0645
 5693TIP3    H138570   2.376   4.870   1.921  0.4727  1.1987  2.1437
 5693TIP3    H238571   2.475   4.948   1.837 -0.4376 -1.2501 -1.3164
 5694TIP3   OH238572   4.551   0.107   3.247  0.4902  0.6153 -0.0780
 5694TIP3    H138573   4.522   0.025   3.287  1.5140  0.0176 -0.5312
 5694TIP3    H238574   4.557   0.169   3.320 -0.1053  0.2390  0.2948
 5695TIP3   OH238575   2.674   4.563   6.252 -0.4262 -0.1995 -0.2260
 5695TIP3    H138576   2.763   4.595   6.266 -0.6678  0.0736  0.7071
 5695TIP3    H238577   2.628   4.636   6.211 -0.2030 -0.3676 -0.7794
 5696TIP3   OH238578   2.228   2.273   4.208 -0.1747  0.6895  0.8633
 5696TIP3    H138579   2.169   2.295   4.280 -1.4222  3.8840 -1.0400
 5696TIP3    H238580   2.173   2.272   4.130  1.5953 -0.2283 -0.4394
 5697TIP3   OH238581   2.963   1.279   6.596  0.2268 -0.2127  0.6266
 5697TIP3    H138582   2.954   1.189   6.564  0.6101  0.4023 -1.2994
 5697TIP3    H238583   3.054   1.286   6.623  0.9341  0.3429 -1.7510
 5698TIP3   OH238584   2.253   4.212   1.008 -0.0710  0.0041  0.5191
 5698TIP3    H138585   2.323   4.151   1.028  1.1160  0.3171 -2.3879
 5698TIP3    H238586   2.193   4.161   0.953 -0.1482  0.8379 -0.1753
 5699TIP3   OH238587   5.790   3.996  14.229 -0.0446  0.2396  0.4312
 5699TIP3    H138588   5.870   4.047  14.245 -1.2898  2.2896  0.3290
 5699TIP3    H238589   5.788   3.932  14.300  1.8429 -0.0427  0.2474
 5700TIP3   OH238590   4.057   0.105   4.629  0.2485  0.4279  0.1816
 5700TIP3    H138591   4.132   0.164   4.630  1.3128 -0.8276 -1.8522
 5700TIP3    H238592   3.990   0.153   4.580  0.4232  0.7514  0.2611
 5701TIP3   OH238593   3.371   4.987   0.525  0.1275 -0.0715  0.8623
 5701TIP3    H138594   3.409   5.067   0.563  0.5943 -0.3278  0.9401
 5701TIP3    H238595   3.303   4.961   0.587 -2.0980  1.9407 -0.6454
 5702TIP3   OH238596   6.452   3.188  11.868 -0.3678  0.4147  0.1895
 5702TIP3    H138597   6.366   3.154  11.891  0.1613 -0.4753  0.8911
 5702TIP3    H238598   6.513   3.141  11.926  0.5533  1.2589 -0.0752
 5703TIP3   OH238599   1.278   1.038  13.886 -0.4335 -0.1877 -0.5056
 5703TIP3    H138600   1.197   1.002  13.921 -1.0034  0.1691 -1.4573
 5703TIP3    H238601   1.347   0.996  13.938 -1.1573 -1.4101 -0.5187
 5704TIP3   OH238602   6.714   5.084  15.972  0.4425 -0.3397 -0.1606
 5704TIP3    H138603   6.779   5.122  16.031  0.1934  1.0705 -0.7706
 5704TIP3    H238604   6.732   4.990  15.973  2.2962 -0.0009 -0.0992
 5705TIP3   OH238605   5.483   4.039  12.907  0.1599  1.0933  0.0067
 5705TIP3    H138606   5.477   4.128  12.941 -0.8767  1.1351 -0.2640
 5705TIP3    H238607   5.431   4.040  12.827 -0.0646  0.1822  0.1331
 5706TIP3   OH238608   2.245   6.268  15.550 -0.2947  0.5522  0.6349
 5706TIP3    H138609   2.286   6.222  15.623  1.6440 -1.3759 -1.5600
 5706TIP3    H238610   2.252   6.361  15.572  3.0491  0.1472  1.5073
 5707TIP3   OH238611   1.704   2.091   4.253  0.0071 -0.4101  0.1698
 5707TIP3    H138612   1.774   2.044   4.298 -0.5108  0.6230  2.1653
 5707TIP3    H238613   1.743   2.174   4.228  0.1193 -0.7407 -0.7646
 5708TIP3   OH238614   1.491   0.123   4.089 -0.2990 -0.3860 -0.0955
 5708TIP3    H138615   1.570   0.097   4.043 -0.8982  0.1578 -1.4557
 5708TIP3    H238616   1.513   0.207   4.130 -0.0373 -0.4488 -0.1107
 5709TIP3   OH238617   4.992   4.792   6.512 -0.4195  0.1450 -0.9277
 5709TIP3    H138618   5.087   4.795   6.498 -0.2880 -1.2791 -0.4044
 5709TIP3    H238619   4.972   4.699   6.519 -1.8929  0.4367 -1.2168
 5710TIP3   OH238620   4.811   6.724   4.356 -0.5286  0.1791 -0.3195
 5710TIP3    H138621   4.735   6.759   4.401 -0.9911  0.1865 -1.1005
 5710TIP3    H238622   4.857   6.801   4.323 -0.1512  0.1783  0.1994
 5711TIP3   OH238623   0.134   6.797   5.742 -0.2765  0.5150 -0.3720
 5711TIP3    H138624   0.049   6.787   5.785 -0.3416  1.0304 -0.3823
 5711TIP3    H238625   0.141   6.719   5.686 -1.5335  1.3655 -1.7306
 5712TIP3   OH238626   4.788   1.940  16.332 -0.2464 -0.0597 -0.0920
 5712TIP3    H138627   4.694   1.956  16.338  0.1074  1.5027  1.4698
 5712TIP3    H238628   4.826   2.025  16.309  0.9942 -0.1513  1.5415
 5713TIP3   OH238629   0.523   1.836  15.422  0.4418 -0.2005 -0.0954
 5713TIP3    H138630   0.507   1.928  15.442 -1.6034 -0.4291 -0.5290
 5713TIP3    H238631   0.525   1.832  15.326  0.9428 -0.5394 -0.0728
 5714TIP3   OH238632   0.573   4.290   0.019  0.6913  0.1198 -0.4824
 5714TIP3    H138633   0.649   4.238  -0.009 -0.0013 -0.0514 -2.1360
 5714TIP3    H238634   0.570   4.362  -0.044  1.0575  1.6428  1.1979
 5715TIP3   OH238635   0.437   4.073   6.250 -0.0701  0.0499  0.5925
 5715TIP3    H138636   0.346   4.102   6.240  0.1861  0.9497  0.8275
 5715TIP3    H238637   0.430   3.984   6.286 -0.8612 -0.1311  0.0183
 5716TIP3   OH238638   1.185   4.201  15.300 -0.0326 -0.3682 -0.1031
 5716TIP3    H138639   1.216   4.229  15.386  1.7046 -1.1293 -0.4551
 5716TIP3    H238640   1.172   4.282  15.251  1.9439 -0.0205 -0.1018
 5717TIP3   OH238641   5.994   3.502   0.051  0.3394  0.2646 -0.1070
 5717TIP3    H138642   5.974   3.504   0.145  0.8168  0.6497 -0.0141
 5717TIP3    H238643   6.088   3.487   0.047  0.0612 -1.3492 -0.5496
 5718TIP3   OH238644   5.801   0.691   5.020 -0.0348 -0.0772  0.0467
 5718TIP3    H138645   5.708   0.709   5.003  0.3029  1.6661  0.0225
 5718TIP3    H238646   5.834   0.771   5.060  1.0260 -1.3691  1.7842
 5719TIP3   OH238647   4.928   4.605   2.520  0.2504  0.4407 -0.4722
 5719TIP3    H138648   4.840   4.572   2.503  0.3568 -0.7655  1.1973
 5719TIP3    H238649   4.986   4.542   2.477  0.3841 -0.4235  0.9519
 5720TIP3   OH238650   4.549   5.815   5.938 -0.0360  0.5316 -0.4005
 5720TIP3    H138651   4.622   5.865   5.974  0.1076 -0.5873  0.8747
 5720TIP3    H238652   4.484   5.882   5.915  1.5270  1.5810 -1.9638
 5721TIP3   OH238653   1.310   0.578   0.888 -0.0300 -0.5241 -0.1648
 5721TIP3    H138654   1.289   0.574   0.981 -0.2056 -0.7759 -0.2142
 5721TIP3    H238655   1.396   0.620   0.884  0.6410 -1.8403  0.2036
 5722TIP3   OH238656   2.366   1.441  15.661  0.1050 -0.6455  0.1656
 5722TIP3    H138657   2.286   1.491  15.679 -0.4881 -2.0959  1.7102
 5722TIP3    H238658   2.337   1.362  15.616  0.5353 -1.5849  1.4780
 5723TIP3   OH238659   4.705   2.108   3.966 -0.0829 -0.3875 -0.4348
 5723TIP3    H138660   4.727   2.202   3.965  0.5575 -0.5261  0.4267
 5723TIP3    H238661   4.699   2.085   3.873  1.4725  0.1202 -0.6778
 5724TIP3   OH238662   0.988   2.526   4.540  1.1227 -0.1193 -0.7843
 5724TIP3    H138663   1.021   2.599   4.593 -0.1887 -0.6056  0.7451
 5724TIP3    H238664   1.064   2.497   4.490  1.6050  2.4278 -1.6025
 5725TIP3   OH238665   6.780   5.291  13.084 -0.4556 -0.0999 -0.3929
 5725TIP3    H138666   6.734   5.207  13.079 -1.1630  0.1971  0.8948
 5725TIP3    H238667   6.769   5.319  13.175 -0.0950  1.3175 -0.7785
 5726TIP3   OH238668   1.565   4.027  12.013  0.1415  0.1871  0.2251
 5726TIP3    H138669   1.539   4.057  12.100  0.9849  2.7863 -0.3744
 5726TIP3    H238670   1.567   4.107  11.960 -0.9790 -1.4258 -2.3483
 5727TIP3   OH238671   0.580   2.248  14.077 -0.2535 -0.0461 -0.5164
 5727TIP3    H138672   0.499   2.239  14.027 -0.6975 -0.2994  0.2426
 5727TIP3    H238673   0.583   2.340  14.103 -0.4420 -0.0981 -0.3077
 5728TIP3   OH238674   5.612   0.652  12.604 -0.1147  0.0791  0.5211
 5728TIP3    H138675   5.597   0.675  12.512 -0.2111 -0.4684  0.3960
 5728TIP3    H238676   5.704   0.626  12.607 -0.4364 -1.1312  0.3114
 5729TIP3   OH238677   3.658   6.733   2.984 -0.4902  0.0621 -0.0447
 5729TIP3    H138678   3.712   6.782   3.046 -0.0635  0.9814 -1.1209
 5729TIP3    H238679   3.720   6.700   2.919 -1.3309  2.2582 -2.0484
 5730TIP3   OH238680   4.478   1.112   6.282  0.2058  0.1175  0.5386
 5730TIP3    H138681   4.484   1.016   6.280 -0.4221  0.0813  0.1358
 5730TIP3    H238682   4.425   1.131   6.359 -0.9451  0.0614 -0.2245
 5731TIP3   OH238683   0.431   3.397   5.208 -0.4195  0.3463 -0.8895
 5731TIP3    H138684   0.483   3.358   5.137 -0.0277  1.6047 -1.3183
 5731TIP3    H238685   0.345   3.412   5.169 -0.4912  0.1647 -0.8039
 5732TIP3   OH238686   1.186   0.499  13.113  0.2729  0.0411 -0.0419
 5732TIP3    H138687   1.116   0.446  13.152  1.6516 -1.8411 -0.0466
 5732TIP3    H238688   1.193   0.575  13.171  1.0174 -1.7886  2.3599
 5733TIP3   OH238689   2.964   0.918   5.094  0.2200 -0.2009 -0.0789
 5733TIP3    H138690   2.971   0.990   5.032 -1.2677 -0.5835 -0.7300
 5733TIP3    H238691   2.960   0.840   5.038 -0.7631 -0.5752  0.5045
 5734TIP3   OH238692   3.151   0.439   6.465  0.2482  0.4161 -0.8343
 5734TIP3    H138693   3.077   0.404   6.513  0.1201 -0.1937 -1.4636
 5734TIP3    H238694   3.182   0.366   6.411  2.7646 -0.0299  1.1365
 5735TIP3   OH238695   4.762   5.822  11.282  0.1680  0.3706 -0.4690
 5735TIP3    H138696   4.844   5.870  11.271  1.6882 -2.4111 -1.7914
 5735TIP3    H238697   4.708   5.850  11.207  1.4620 -0.7766 -1.8504
 5736TIP3   OH238698   6.012   4.895   4.744 -0.8482 -0.7793  0.0467
 5736TIP3    H138699   5.986   4.952   4.816 -0.0305 -0.2471 -0.0642
 5736TIP3    H238700   5.965   4.929   4.668  0.5023  0.4921 -0.2589
 5737TIP3   OH238701   2.313   0.647   3.441 -0.4698 -0.6876  0.4979
 5737TIP3    H138702   2.220   0.626   3.445 -0.9238  1.1132 -0.2008
 5737TIP3    H238703   2.317   0.728   3.391  1.7282 -2.3495 -2.1924
 5738TIP3   OH238704   0.023   5.382  14.950  0.0667 -0.7634 -0.3328
 5738TIP3    H138705  -0.072   5.392  14.951  0.1746  0.1851  0.1725
 5738TIP3    H238706   0.040   5.325  14.875 -0.7330  0.8490 -1.7605
 5739TIP3   OH238707   0.085   5.826  14.236  0.4017  0.0137 -0.1033
 5739TIP3    H138708   0.147   5.782  14.177  0.3307  0.7917 -0.7803
 5739TIP3    H238709   0.113   5.918  14.234  1.1313 -0.1376  2.0251
 5740TIP3   OH238710   1.263   0.099  16.939  0.0024  0.4216 -0.9163
 5740TIP3    H138711   1.329   0.053  16.888  0.4274 -2.1832  1.8992
 5740TIP3    H238712   1.235   0.037  17.006 -2.5901  2.7622  0.2992
 5741TIP3   OH238713   6.339   1.745   4.007  0.3834  0.4127  0.4624
 5741TIP3    H138714   6.330   1.650   4.016  0.6034  0.2591 -0.8892
 5741TIP3    H238715   6.413   1.768   4.063 -0.9974  0.1017  2.4963
 5742TIP3   OH238716   6.626   5.263  17.113  0.4597  0.2849 -0.0799
 5742TIP3    H138717   6.617   5.229  17.024 -1.8325  0.1071  0.1803
 5742TIP3    H238718   6.567   5.339  17.116 -0.7275 -0.6747  1.7423
 5743TIP3   OH238719   3.677   2.853  13.825 -0.3749  0.0983  0.7103
 5743TIP3    H138720   3.680   2.761  13.851 -2.8886  0.1324  1.2070
 5743TIP3    H238721   3.723   2.856  13.741  0.6733 -1.3963  1.2164
 5744TIP3   OH238722   4.067   6.651  15.352 -0.3125  0.1479  0.0823
 5744TIP3    H138723   4.122   6.597  15.409 -0.1060 -1.2735 -1.4221
 5744TIP3    H238724   4.101   6.635  15.264 -3.0231 -0.7002 -0.8720
 5745TIP3   OH238725   5.109   6.163  14.528  0.3577  1.0828  0.1638
 5745TIP3    H138726   5.049   6.183  14.600 -0.3164  1.3464 -0.4750
 5745TIP3    H238727   5.056   6.171  14.449  1.1358  0.9291 -0.3744
 5746TIP3   OH238728   0.817   5.412   6.092  0.1374  0.0517  0.5525
 5746TIP3    H138729   0.906   5.380   6.103 -0.2057 -0.9683  0.4459
 5746TIP3    H238730   0.793   5.445   6.179 -0.6395 -3.0235  1.6078
 5747TIP3   OH238731   1.397   6.062  12.869  0.2914  0.2637  0.0575
 5747TIP3    H138732   1.484   6.029  12.893  1.6263  2.7796 -1.2325
 5747TIP3    H238733   1.383   6.032  12.780 -0.1682 -0.1251  0.2581
 5748TIP3   OH238734   5.516   6.802  10.895 -0.1259  0.0939 -0.5770
 5748TIP3    H138735   5.466   6.798  10.814 -0.9568  2.0622 -0.1893
 5748TIP3    H238736   5.462   6.854  10.954  0.5975 -1.0789  1.1573
 5749TIP3   OH238737   2.739   0.818  13.284  0.1745  0.8862 -0.3895
 5749TIP3    H138738   2.706   0.773  13.206  1.1007 -0.4052 -0.0433
 5749TIP3    H238739   2.666   0.874  13.312 -0.2425  1.2030 -2.0482
 5750TIP3   OH238740   1.762   4.280   5.580 -0.6261  0.1286  0.0836
 5750TIP3    H138741   1.766   4.348   5.513 -0.2844  0.9570  0.9202
 5750TIP3    H238742   1.809   4.318   5.655 -0.6557 -0.9293  0.6507
 5751TIP3   OH238743   2.849   3.095  11.692  0.5502 -0.1507 -0.4345
 5751TIP3    H138744   2.856   3.077  11.598 -2.7665  0.1996 -0.8159
 5751TIP3    H238745   2.818   3.013  11.729 -2.2235  0.9130 -0.3020
 5752TIP3   OH238746   5.664   2.609   0.201  0.1193  0.1266 -0.4420
 5752TIP3    H138747   5.606   2.679   0.230  1.6766  1.4348 -0.4460
 5752TIP3    H238748   5.685   2.561   0.281 -2.4349 -1.5461 -0.6864
 5753TIP3   OH238749   4.926   2.239  14.145  0.2331  0.1824  0.1093
 5753TIP3    H138750   4.846   2.210  14.188  0.1795 -0.2523 -0.2909
 5753TIP3    H238751   4.931   2.188  14.065  0.3450  0.9879 -0.4065
 5754TIP3   OH238752   6.095   4.683   1.836  0.4416  0.0679  0.0320
 5754TIP3    H138753   6.184   4.652   1.849  0.4755  0.3320  0.4321
 5754TIP3    H238754   6.104   4.769   1.796  0.3226 -1.3153 -3.0626
 5755TIP3   OH238755   1.294   3.798  14.721  0.2631  0.1062  0.3211
 5755TIP3    H138756   1.382   3.781  14.754 -0.3149 -1.3576  1.2077
 5755TIP3    H238757   1.241   3.728  14.761 -1.0117  0.1022 -1.3546
 5756TIP3   OH238758   5.837   6.034   6.193  0.4649  0.6368 -0.0138
 5756TIP3    H138759   5.824   5.945   6.226 -0.7363  1.1739  0.9979
 5756TIP3    H238760   5.753   6.077   6.207  0.2009  1.1564 -2.9634
 5757TIP3   OH238761   6.708   2.506  14.505 -0.3840  0.3923  0.3235
 5757TIP3    H138762   6.721   2.452  14.583  0.9949 -0.9979 -0.8371
 5757TIP3    H238763   6.765   2.467  14.439 -1.3272  1.7155 -1.3138
 5758TIP3   OH238764   0.856   1.711   5.433  0.6839  0.0203  0.4974
 5758TIP3    H138765   0.765   1.730   5.409  1.7944  1.7980 -2.6468
 5758TIP3    H238766   0.873   1.766   5.509  0.1160  2.3551 -0.9980
 5759TIP3   OH238767   0.838   5.154  16.929 -0.3047  0.0429 -0.8778
 5759TIP3    H138768   0.927   5.189  16.935 -1.0799  2.0859 -1.1820
 5759TIP3    H238769   0.821   5.149  16.835 -1.0651  1.1044 -0.8036
 5760TIP3   OH238770   4.814   2.616  15.753 -0.3417  0.2041  0.0024
 5760TIP3    H138771   4.749   2.661  15.700 -1.7290 -0.3877  1.1477
 5760TIP3    H238772   4.830   2.533  15.708 -0.6915  0.1701 -0.0553
 5761TIP3   OH238773   0.206   3.973  12.597  0.0028 -0.2108 -0.3353
 5761TIP3    H138774   0.243   4.051  12.556  2.4516 -0.1236  1.9465
 5761TIP3    H238775   0.280   3.912  12.606 -0.7854 -0.8371  2.4317
 5762TIP3   OH238776   2.750   0.514  11.077 -0.0822  0.2859  0.2822
 5762TIP3    H138777   2.693   0.562  11.017 -0.6463  0.6484  1.0958
 5762TIP3    H238778   2.830   0.497  11.027 -0.8244 -0.0328 -0.7870
 5763TIP3   OH238779   6.588   6.030   1.827  0.1628  0.7199 -0.0813
 5763TIP3    H138780   6.611   5.944   1.791  0.2238  0.5722  0.3092
 5763TIP3    H238781   6.581   6.087   1.750  2.4407  0.9225 -0.1578
 5764TIP3   OH238782   1.083   2.755   1.418 -0.7992 -0.7958  0.1023
 5764TIP3    H138783   1.066   2.686   1.483  1.2794 -0.5107  0.9679
 5764TIP3    H238784   1.096   2.834   1.470  1.4599 -0.6815 -0.6101
 5765TIP3   OH238785   0.678   1.031  15.017 -0.0682 -0.9363 -0.6872
 5765TIP3    H138786   0.716   1.118  15.025 -2.4278  0.1051 -0.3354
 5765TIP3    H238787   0.631   1.017  15.100 -0.2764 -2.2439 -1.0108
 5766TIP3   OH238788   4.586   4.610  15.890  0.3655 -0.1190  0.2864
 5766TIP3    H138789   4.614   4.571  15.808 -0.2934 -0.0864  0.0497
 5766TIP3    H238790   4.666   4.652  15.924  0.4325  0.6182 -0.7527
 5767TIP3   OH238791   6.048   2.865  11.667 -0.3699  0.4272 -0.0360
 5767TIP3    H138792   6.007   2.944  11.633 -0.9266 -0.0678 -0.5268
 5767TIP3    H238793   6.138   2.892  11.688 -0.4245  1.0801 -0.5999
 5768TIP3   OH238794   0.158   3.732  15.680  0.5348  0.8174  0.3265
 5768TIP3    H138795   0.235   3.681  15.654 -0.6951 -0.3580 -1.1066
 5768TIP3    H238796   0.139   3.785  15.603 -1.1642 -0.2245  0.0228
 5769TIP3   OH238797   4.072   3.616   1.381  0.0963 -0.2880  0.1619
 5769TIP3    H138798   4.040   3.558   1.450 -0.3869  0.8140  0.8750
 5769TIP3    H238799   3.994   3.661   1.350  0.7360  1.3377  0.8964
 5770TIP3   OH238800   5.138   0.176  15.515 -0.1167  0.1843  0.0394
 5770TIP3    H138801   5.200   0.110  15.481  0.2937  1.0396 -0.8863
 5770TIP3    H238802   5.166   0.190  15.605  1.2784  0.8241 -0.4798
 5771TIP3   OH238803   1.068   3.352   3.792  0.1250  0.3203  0.8232
 5771TIP3    H138804   1.157   3.373   3.818  0.0776  0.5187  0.8239
 5771TIP3    H238805   1.037   3.430   3.745  1.5824 -1.4643 -3.3366
 5772TIP3   OH238806   2.173   0.627  14.075 -0.3373  0.4200 -0.4465
 5772TIP3    H138807   2.225   0.571  14.133 -2.2470 -0.5081  0.3868
 5772TIP3    H238808   2.192   0.595  13.987  0.4827  0.0865 -0.1517
 5773TIP3   OH238809   5.698   4.428  14.492 -0.4338  0.0290  0.0587
 5773TIP3    H138810   5.772   4.367  14.481 -0.2465 -0.0255  1.4715
 5773TIP3    H238811   5.640   4.409  14.419  0.2735 -0.9302 -0.2691
 5774TIP3   OH238812   0.365   5.855  11.819  0.3969 -0.6023 -0.3960
 5774TIP3    H138813   0.322   5.769  11.814 -0.1540 -0.3069 -0.8324
 5774TIP3    H238814   0.442   5.846  11.762  0.3627 -0.8157 -0.4080
 5775TIP3   OH238815   5.256   1.943   2.244 -0.2859 -0.0412 -0.2812
 5775TIP3    H138816   5.269   1.936   2.149  1.3655 -1.0187  0.0009
 5775TIP3    H238817   5.246   1.853   2.273 -0.8890  0.2680  0.4791
 5776TIP3   OH238818   6.133   4.359   6.600 -0.0424 -0.3936  0.7343
 5776TIP3    H138819   6.228   4.373   6.609  0.2727 -1.6370 -0.4954
 5776TIP3    H238820   6.115   4.282   6.653 -0.1066 -1.0034 -0.1534
 5777TIP3   OH238821   3.957   3.636  15.481 -0.0411  0.3021 -0.5139
 5777TIP3    H138822   3.949   3.548  15.518  0.1361  1.5155  2.5511
 5777TIP3    H238823   3.871   3.653  15.443 -0.4524 -0.7464 -0.1000
 5778TIP3   OH238824   6.775   2.104  16.341 -0.3897 -0.0275  0.2691
 5778TIP3    H138825   6.779   2.037  16.272 -0.7991  0.1147  0.1072
 5778TIP3    H238826   6.774   2.054  16.422 -1.0806 -0.2421  0.1367
 5779TIP3   OH238827   3.625   0.889  12.728 -0.0844  0.1597  0.1113
 5779TIP3    H138828   3.697   0.826  12.736 -0.2652 -0.0193  0.3350
 5779TIP3    H238829   3.668   0.973  12.711  0.2353  0.2542  1.3491
 5780TIP3   OH238830   0.741   5.585   5.739 -0.6756  0.5427 -0.8773
 5780TIP3    H138831   0.746   5.642   5.816  3.3920 -0.6670 -0.1269
 5780TIP3    H238832   0.694   5.508   5.770  1.5366 -0.2353  0.6759
 5781TIP3   OH238833   4.410   2.525   3.792 -0.4080  0.2455  0.1635
 5781TIP3    H138834   4.380   2.481   3.713 -2.4357  1.9144 -0.0520
 5781TIP3    H238835   4.409   2.457   3.860  0.1938 -0.9120 -0.9778
 5782TIP3   OH238836   5.657   0.535  13.250  0.2635  0.0292  0.1132
 5782TIP3    H138837   5.562   0.532  13.257  0.3484 -0.6206  1.1426
 5782TIP3    H238838   5.680   0.456  13.201  0.3881 -0.8189  1.4906
 5783TIP3   OH238839   2.798   1.496   3.795  0.1557  0.5734  0.1915
 5783TIP3    H138840   2.705   1.507   3.816  0.1535 -0.4817  0.7414
 5783TIP3    H238841   2.803   1.412   3.749  0.8251  0.6674  0.0817
 5784TIP3   OH238842   3.182   2.419   5.035  0.3010 -0.4703  0.4028
 5784TIP3    H138843   3.276   2.426   5.025  0.1436 -0.6562 -1.4794
 5784TIP3    H238844   3.151   2.387   4.950 -1.4985  0.0128  0.8403
 5785TIP3   OH238845   3.404   3.335   1.584 -0.0873 -0.3888 -0.5628
 5785TIP3    H138846   3.491   3.298   1.599  0.2576  1.2650  2.0535
 5785TIP3    H238847   3.343   3.263   1.599  0.7864 -1.2240 -1.0529
 5786TIP3   OH238848   2.873   0.816  11.033 -0.3536 -0.7167 -0.0951
 5786TIP3    H138849   2.902   0.767  10.956  0.9859 -1.6735  0.9958
 5786TIP3    H238850   2.837   0.749  11.092 -0.6432 -0.0988  0.4366
 5787TIP3   OH238851   5.715   0.043  12.396  0.2381  0.5338  0.0479
 5787TIP3    H138852   5.729   0.098  12.319  1.1650 -1.3163 -1.1407
 5787TIP3    H238853   5.634  -0.004  12.378  0.1952  0.4525  0.4349
 5788TIP3   OH238854   2.874   4.374  16.319  0.7633 -0.6315 -0.0022
 5788TIP3    H138855   2.906   4.459  16.289  0.1320 -0.2962  0.2707
 5788TIP3    H238856   2.820   4.341  16.246 -0.4371  0.0002  0.5896
 5789TIP3   OH238857   0.209   0.940  10.885 -0.2645 -0.0447  0.2054
 5789TIP3    H138858   0.282   0.879  10.899 -0.1074  0.1895  0.4045
 5789TIP3    H238859   0.136   0.884  10.857  0.3321 -0.1464 -1.1866
 5790TIP3   OH238860   4.961   5.231  15.787  0.2214  0.1270  0.0324
 5790TIP3    H138861   4.966   5.226  15.692  1.1687  0.6473  0.0507
 5790TIP3    H238862   4.920   5.316  15.804  0.1444  0.0787  0.0870
 5791TIP3   OH238863   6.329   3.987   2.866  1.0665 -0.2585  0.2581
 5791TIP3    H138864   6.404   3.928   2.860  0.7567 -0.6416  0.1173
 5791TIP3    H238865   6.268   3.956   2.799 -0.8156 -2.2372  2.7968
 5792TIP3   OH238866   0.991   5.081  14.121 -0.1567  0.0598 -0.1424
 5792TIP3    H138867   0.907   5.123  14.143 -0.5912 -1.0615  0.3755
 5792TIP3    H238868   0.967   5.011  14.060  0.3784 -0.3907  0.1593
 5793TIP3   OH238869   2.697   0.978  11.171 -0.0968 -0.5890 -0.0648
 5793TIP3    H138870   2.701   1.074  11.165 -0.4771 -0.5465  0.3581
 5793TIP3    H238871   2.775   0.948  11.124 -0.4730 -0.0993 -1.0187
 5794TIP3   OH238872   1.402   1.858   0.711  0.5358  0.4070 -0.3265
 5794TIP3    H138873   1.353   1.884   0.633  0.6939  0.6145 -0.3579
 5794TIP3    H238874   1.414   1.764   0.701  0.6997  0.4590 -0.6347
 5795TIP3   OH238875   3.364   2.851  13.449  0.4216 -0.1220  0.9002
 5795TIP3    H138876   3.351   2.936  13.408 -0.3652 -0.3689  0.6184
 5795TIP3    H238877   3.362   2.869  13.543 -0.1702  0.1193  0.8472
 5796TIP3   OH238878   3.936   6.677  16.607 -0.0498 -0.3775 -0.0016
 5796TIP3    H138879   3.996   6.731  16.659 -0.9851  0.7360 -0.0706
 5796TIP3    H238880   3.899   6.615  16.670 -2.5522  2.1355  1.0728
 5797TIP3   OH238881   3.147   6.455   2.760  0.0177  0.5623  0.1344
 5797TIP3    H138882   3.231   6.418   2.736  0.1546 -0.4162  2.0759
 5797TIP3    H238883   3.089   6.380   2.769 -1.1110  1.2330 -1.2846
 5798TIP3   OH238884   6.227   4.199   2.094 -1.1753  0.0983 -0.0660
 5798TIP3    H138885   6.206   4.147   2.016  2.1848 -0.9249 -0.3534
 5798TIP3    H238886   6.282   4.270   2.062  0.3462 -0.4032  1.3712
 5799TIP3   OH238887   4.894   2.637   2.841  0.3029 -0.2390 -0.3056
 5799TIP3    H138888   4.809   2.646   2.884  0.3372 -0.1648 -0.2501
 5799TIP3    H238889   4.874   2.609   2.752  0.1080  1.6203 -0.8779
 5800TIP3   OH238890   3.686   0.360  15.938 -0.3997 -0.4456 -0.5748
 5800TIP3    H138891   3.647   0.349  16.025 -0.8848  0.6920 -0.6441
 5800TIP3    H238892   3.626   0.315  15.879  0.8055 -2.6933 -0.1345
 5801TIP3   OH238893   2.652   3.580   5.579 -0.3284  0.0580  0.2997
 5801TIP3    H138894   2.577   3.640   5.576 -0.3442  0.0514  0.5252
 5801TIP3    H238895   2.723   3.627   5.537 -0.4323  0.1022  0.1711
 5802TIP3   OH238896   4.888   5.432  11.490 -0.3073 -1.0399 -0.5252
 5802TIP3    H138897   4.854   5.466  11.407  1.2516 -0.6273 -1.0157
 5802TIP3    H238898   4.822   5.456  11.555 -0.9605 -0.2838 -1.4557
 5803TIP3   OH238899   2.766   1.418  16.257  0.0284 -0.0327 -0.0877
 5803TIP3    H138900   2.836   1.379  16.309  0.4154 -1.1858 -1.4342
 5803TIP3    H238901   2.809   1.485  16.205 -0.1761  0.4061  0.2993
 5804TIP3   OH238902   0.832   3.028   1.695 -0.6141 -0.3851  0.6156
 5804TIP3    H138903   0.877   2.944   1.706  3.3357  1.6932  0.9771
 5804TIP3    H238904   0.794   3.023   1.607  3.0854 -1.0278 -1.0227
 5805TIP3   OH238905   0.432   2.964   2.004  0.5084  0.0597 -0.0267
 5805TIP3    H138906   0.377   2.999   1.934 -0.3001 -0.5111  0.3158
 5805TIP3    H238907   0.421   2.869   1.999  0.2760  0.0232  1.0015
 5806TIP3   OH238908   3.766   6.342  11.561  0.1431  0.5809  0.1073
 5806TIP3    H138909   3.670   6.335  11.556  0.1724  0.9720 -1.0286
 5806TIP3    H238910   3.788   6.412  11.501  1.3106 -0.8154 -1.1200
 5807TIP3   OH238911   0.059   6.485   3.968 -0.3087 -0.0675 -0.0726
 5807TIP3    H138912  -0.036   6.476   3.975 -0.4791  0.5175 -1.4005
 5807TIP3    H238913   0.072   6.576   3.941  0.4525 -0.9318 -2.7592
 5808TIP3   OH238914   1.049   5.458  11.475  0.4119 -0.2398 -0.5335
 5808TIP3    H138915   1.119   5.513  11.511 -0.2169 -0.1389  0.5408
 5808TIP3    H238916   0.971   5.485  11.523 -0.0340 -1.5840 -0.4993
 5809TIP3   OH238917   5.192   2.731  11.682 -0.1455  0.7600  0.4516
 5809TIP3    H138918   5.191   2.677  11.761  1.1991  0.4697  0.2791
 5809TIP3    H238919   5.273   2.707  11.638 -0.1545  2.0100 -0.2650
 5810TIP3   OH238920   5.394   2.057  17.156  0.8982 -0.4682  0.2975
 5810TIP3    H138921   5.469   2.016  17.113  0.4713 -0.8885 -0.0424
 5810TIP3    H238922   5.374   2.000  17.230  1.0668 -0.2232  0.5361
 5811TIP3   OH238923   3.743   3.818   4.631 -0.3610  0.1666  0.1128
 5811TIP3    H138924   3.816   3.796   4.690 -1.5815 -1.5704  0.9970
 5811TIP3    H238925   3.743   3.748   4.566 -0.3689  0.9257 -0.7051
 5812TIP3   OH238926   5.923   6.447   2.415 -0.2687  0.1071 -0.4339
 5812TIP3    H138927   5.983   6.406   2.478 -0.1018  3.2429  1.5738
 5812TIP3    H238928   5.836   6.429   2.450 -0.3008 -0.5291 -0.8384
 5813TIP3   OH238929   4.028   0.225   1.658  0.3293 -0.1247  0.1676
 5813TIP3    H138930   3.994   0.189   1.576  3.3029  0.9730 -1.6363
 5813TIP3    H238931   3.968   0.296   1.681 -2.2982 -2.4190  0.6857
 5814TIP3   OH238932   1.898   3.715  15.179 -0.2075  0.3180  0.6113
 5814TIP3    H138933   1.823   3.656  15.171  0.7533 -0.9237  0.6752
 5814TIP3    H238934   1.920   3.739  15.089  0.7799 -1.1967  0.4306
 5815TIP3   OH238935   2.467   3.871  13.749  0.1094 -0.5655  0.3318
 5815TIP3    H138936   2.494   3.963  13.739 -0.2967 -0.3552  1.1761
 5815TIP3    H238937   2.383   3.866  13.703  1.2799 -1.1015 -1.8519
 5816TIP3   OH238938   0.145   4.926   2.315 -0.2682 -0.3864  0.1256
 5816TIP3    H138939   0.107   4.839   2.330  0.4524 -0.7753 -0.2521
 5816TIP3    H238940   0.239   4.912   2.321 -0.2287  0.9635  3.1069
 5817TIP3   OH238941   2.796   1.120   0.290 -0.6557  0.0186  0.2003
 5817TIP3    H138942   2.778   1.058   0.219  1.3600 -0.0102 -0.3117
 5817TIP3    H238943   2.765   1.204   0.256 -0.0124 -0.0560 -0.5758
 5818TIP3   OH238944   2.934   4.485  11.373  0.2918 -0.7219 -0.0180
 5818TIP3    H138945   2.898   4.460  11.288 -2.1774 -2.0135  1.3777
 5818TIP3    H238946   2.923   4.580  11.376 -2.4127 -1.0049  0.0961
 5819TIP3   OH238947   1.577   0.083   4.709 -0.3652  0.1522 -0.1210
 5819TIP3    H138948   1.599   0.032   4.787 -0.0168  0.0775 -0.2661
 5819TIP3    H238949   1.554   0.017   4.643  0.1825  0.1712 -0.3387
 5820TIP3   OH238950   1.365   5.924   2.173  0.0064  0.1984 -0.0868
 5820TIP3    H138951   1.382   5.881   2.089  1.4271 -1.5377  1.0611
 5820TIP3    H238952   1.330   6.010   2.149  0.8910 -0.0726 -2.4524
 5821TIP3   OH238953   5.774   0.666  14.785 -0.2770  0.7825  0.1305
 5821TIP3    H138954   5.839   0.611  14.829 -0.3827  1.2658  0.8964
 5821TIP3    H238955   5.770   0.631  14.696 -0.2257 -0.3540  0.5613
 5822TIP3   OH238956   4.236   5.349  11.292  0.0820  0.7682  0.2461
 5822TIP3    H138957   4.280   5.422  11.335 -0.7883  0.1617  2.2330
 5822TIP3    H238958   4.144   5.375  11.290 -0.5383 -1.0666  2.7385
 5823TIP3   OH238959   3.796   2.765  11.003  0.6657 -0.1548  0.7948
 5823TIP3    H138960   3.731   2.698  10.982  0.0540  0.1074  1.8501
 5823TIP3    H238961   3.831   2.739  11.088  1.9795 -0.3146  0.2142
 5824TIP3   OH238962   5.306   4.858   2.878  0.2420  0.6127  0.7318
 5824TIP3    H138963   5.325   4.905   2.796 -0.7830  0.1665  0.2262
 5824TIP3    H238964   5.327   4.767   2.858 -0.1405  0.4834  0.9177
 5825TIP3   OH238965   2.406   5.214   1.367  0.3233 -0.5998 -0.2154
 5825TIP3    H138966   2.443   5.134   1.329  1.6121  0.6705 -1.7247
 5825TIP3    H238967   2.405   5.197   1.461  1.7816 -1.9155 -0.4098
 5826TIP3   OH238968   5.083   5.861   3.843 -0.2033  0.1370 -0.1144
 5826TIP3    H138969   4.995   5.895   3.862  0.4132  1.5528  0.2589
 5826TIP3    H238970   5.067   5.781   3.794 -1.7853 -1.2933  2.6094
 5827TIP3   OH238971   1.674   6.682   1.356  0.4618  0.1614  0.3587
 5827TIP3    H138972   1.765   6.710   1.362 -0.4227  3.3725 -0.4947
 5827TIP3    H238973   1.648   6.702   1.267 -0.6242 -2.3464  0.0683
 5828TIP3   OH238974   5.710   1.172   2.214  0.2464 -0.2069 -0.2959
 5828TIP3    H138975   5.716   1.148   2.307 -1.0465  0.2799 -0.0817
 5828TIP3    H238976   5.699   1.089   2.168  1.1347 -0.4717 -0.0464
 5829TIP3   OH238977   2.202   0.131  13.516 -0.0696  0.1624 -0.2417
 5829TIP3    H138978   2.153   0.175  13.446 -0.2912  0.9530  0.4020
 5829TIP3    H238979   2.135   0.102  13.578  0.2015  0.3544  0.1405
 5830TIP3   OH238980   2.343   5.353   0.467  0.5130 -0.4054 -0.0254
 5830TIP3    H138981   2.331   5.303   0.547  0.9237  0.5775  0.6566
 5830TIP3    H238982   2.275   5.321   0.408  0.2631 -1.1895  0.6840
 5831TIP3   OH238983   2.827   0.678  13.514 -0.2073  0.1808  0.1597
 5831TIP3    H138984   2.824   0.589  13.481  1.7710  0.4487 -0.8191
 5831TIP3    H238985   2.801   0.732  13.439 -0.1512  0.5080  0.3751
 5832TIP3   OH238986   5.439   0.791  13.497  0.6078 -0.5940  0.0361
 5832TIP3    H138987   5.521   0.744  13.478  0.6002  0.0235 -1.5660
 5832TIP3    H238988   5.454   0.879  13.464 -0.4480 -0.2703  0.4234
 5833TIP3   OH238989   3.291   0.093   2.454  0.2303  0.1378  0.2212
 5833TIP3    H138990   3.271   0.018   2.510 -1.3790  0.5034  0.1687
 5833TIP3    H238991   3.356   0.143   2.503 -1.6158  0.7915  2.0961
 5834TIP3   OH238992   3.912   6.781  13.836  0.3203  0.3717 -0.0116
 5834TIP3    H138993   3.971   6.842  13.793 -1.1601  0.5243 -1.9243
 5834TIP3    H238994   3.956   6.757  13.917  1.8243  2.4278 -0.1923
 5835TIP3   OH238995   4.317   3.305  14.904  0.4179  0.3623 -0.4419
 5835TIP3    H138996   4.307   3.394  14.872 -1.5832 -0.4319 -2.2143
 5835TIP3    H238997   4.257   3.253  14.849  0.4541 -1.8290  1.5009
 5836TIP3   OH238998   4.650   6.079   4.634 -0.5541 -0.2476 -0.2188
 5836TIP3    H138999   4.628   5.988   4.653 -1.0286 -0.0200  0.3321
 5836TIP3    H239000   4.746   6.081   4.640 -0.2827 -1.3711 -3.2660
 5837TIP3   OH239001   4.243   3.080  10.470 -0.3401 -0.1448  0.1761
 5837TIP3    H139002   4.224   3.167  10.504 -1.4689 -0.4917  0.4727
 5837TIP3    H239003   4.261   3.027  10.548  1.0614 -0.0088 -0.0532
 5838TIP3   OH239004   5.423   4.071  14.638 -0.3243  0.3078  0.0845
 5838TIP3    H139005   5.510   4.074  14.676 -1.0241  0.1574  1.7402
 5838TIP3    H239006   5.371   4.131  14.691 -1.4324 -0.2469 -0.3492
 5839TIP3   OH239007   1.697   4.423   1.121  0.5075 -0.3725  0.1012
 5839TIP3    H139008   1.693   4.366   1.044  0.4927 -1.1187  0.6492
 5839TIP3    H239009   1.757   4.493   1.095  2.9075 -2.2090  0.4368
 5840TIP3   OH239010   3.658   1.417   6.381 -0.3520 -0.1012 -0.0492
 5840TIP3    H139011   3.694   1.329   6.372 -0.7736 -0.2093 -0.6766
 5840TIP3    H239012   3.735   1.475   6.373 -0.3054 -0.3339 -1.3967
 5841TIP3   OH239013   3.645   3.557   5.724  0.5163 -0.1263  0.5940
 5841TIP3    H139014   3.594   3.503   5.665  1.8290  1.7994 -2.4463
 5841TIP3    H239015   3.696   3.495   5.776  0.7166 -1.8453 -1.5983
 5842TIP3   OH239016   5.096   6.801  13.744  0.3524 -0.6088 -0.6882
 5842TIP3    H139017   5.114   6.723  13.693  0.5247 -0.8664 -0.2428
 5842TIP3    H239018   5.110   6.774  13.835 -1.6981 -0.6466 -0.3554
 5843TIP3   OH239019   2.972   0.896   5.730 -0.4600  0.7927 -0.1082
 5843TIP3    H139020   2.997   0.963   5.794 -1.1590  0.8326  0.1335
 5843TIP3    H239021   2.909   0.841   5.777  1.6709 -1.3110  0.3921
 5844TIP3   OH239022   4.717   3.919  13.158 -0.2789 -0.0250 -0.5835
 5844TIP3    H139023   4.675   3.977  13.095 -1.3435 -0.7672 -0.5790
 5844TIP3    H239024   4.688   3.831  13.132 -1.4270 -0.2687  1.4249
 5845TIP3   OH239025   5.489   6.728  15.612 -0.3378 -0.4095  0.2919
 5845TIP3    H139026   5.431   6.750  15.539  0.6041  1.0038 -0.0481
 5845TIP3    H239027   5.576   6.757  15.583  0.5085 -2.2204  0.9139
 5846TIP3   OH239028   5.226   0.330  16.676 -0.4267  0.5253  0.2250
 5846TIP3    H139029   5.207   0.338  16.769 -0.9822 -2.0219  0.3587
 5846TIP3    H239030   5.141   0.322  16.634 -0.1102  0.0425 -0.3337
 5847TIP3   OH239031   4.395   2.445  10.735  0.3033  0.1575 -0.1641
 5847TIP3    H139032   4.471   2.501  10.752  1.2988 -1.5855  1.3332
 5847TIP3    H239033   4.427   2.357  10.753 -1.7674 -0.7033 -0.6643
 5848TIP3   OH239034   2.602   2.016  14.297  0.1778 -0.8511 -0.0423
 5848TIP3    H139035   2.602   2.063  14.380  1.5615 -0.2138 -0.3917
 5848TIP3    H239036   2.510   2.012  14.271 -0.0310  0.9366  0.4078
 5849TIP3   OH239037   5.286   4.451  15.618  0.1305 -0.1156 -0.2523
 5849TIP3    H139038   5.371   4.472  15.656  0.4882  0.4498 -1.3517
 5849TIP3    H239039   5.306   4.422  15.529 -0.7073 -1.3402 -0.0525
 5850TIP3   OH239040   5.687   0.519  10.350  0.0081  0.3790  0.0296
 5850TIP3    H139041   5.635   0.508  10.271 -0.2839 -1.5810  0.4665
 5850TIP3    H239042   5.685   0.613  10.368 -3.3396  0.3643 -0.0001
 5851TIP3   OH239043   3.111   5.739   5.067  0.5376  0.0325  0.6527
 5851TIP3    H139044   3.162   5.818   5.049  3.4012 -2.0375 -0.5789
 5851TIP3    H239045   3.041   5.739   5.001  1.7638  0.4823 -0.6595
 5852TIP3   OH239046   0.658   2.405  15.108 -0.4955 -0.1984  1.2185
 5852TIP3    H139047   0.723   2.367  15.167  1.0498 -1.0336 -0.9550
 5852TIP3    H239048   0.706   2.473  15.060 -2.1385  1.5729  2.0089
 5853TIP3   OH239049   4.864   4.870  14.389  0.0344 -0.4072  0.2199
 5853TIP3    H139050   4.918   4.935  14.344 -0.7340  0.1431  0.0867
 5853TIP3    H239051   4.923   4.796  14.404  1.1094  0.5852  0.9995
 5854TIP3   OH239052   1.553   1.527  15.001  0.2333 -0.0838  0.4183
 5854TIP3    H139053   1.502   1.530  14.920  0.6943 -0.7205  0.0915
 5854TIP3    H239054   1.641   1.553  14.974  0.0347  1.1932  1.0143
 5855TIP3   OH239055   3.694   5.701   4.077  0.1780  0.0879 -0.1831
 5855TIP3    H139056   3.707   5.687   4.170 -0.2204 -1.5681 -0.3600
 5855TIP3    H239057   3.652   5.787   4.071 -1.8089 -0.7445  1.3130
 5856TIP3   OH239058   4.658   2.284   1.649 -0.5553 -0.1887  0.4007
 5856TIP3    H139059   4.621   2.259   1.564 -0.1432 -0.0950  0.1936
 5856TIP3    H239060   4.682   2.376   1.638  0.1644 -0.3767  0.3885
 5857TIP3   OH239061   5.129   5.565   1.896 -0.3639  0.1527 -0.6919
 5857TIP3    H139062   5.135   5.545   1.989  0.1639  1.0911 -0.5141
 5857TIP3    H239063   5.043   5.605   1.885  0.3764  1.9364 -0.2184
 5858TIP3   OH239064   5.216   5.766  14.018  0.0142 -0.2044 -0.2847
 5858TIP3    H139065   5.157   5.835  13.988 -0.2016 -0.5917 -0.7508
 5858TIP3    H239066   5.204   5.695  13.956  1.8996  0.1901 -1.1248
 5859TIP3   OH239067   3.211   0.808  11.756 -0.5889  0.3162  0.2654
 5859TIP3    H139068   3.169   0.879  11.805  0.2265  0.6662  0.4663
 5859TIP3    H239069   3.194   0.829  11.665 -1.9407 -0.2305  0.3726
 5860TIP3   OH239070   2.288   1.885   0.760 -0.0543  0.3026  0.3785
 5860TIP3    H139071   2.201   1.903   0.724  0.6388  1.9248 -0.5360
 5860TIP3    H239072   2.343   1.867   0.684 -0.1091 -3.1944  1.1071
 5861TIP3   OH239073   2.530   6.264   4.312 -0.3389 -0.5968  0.4686
 5861TIP3    H139074   2.539   6.327   4.383 -0.2576  0.2459 -0.2807
 5861TIP3    H239075   2.605   6.281   4.255 -1.8449  0.5291 -1.2093
 5862TIP3   OH239076   3.697   5.899   5.662  0.2888  0.0638  0.3655
 5862TIP3    H139077   3.720   5.866   5.575 -0.0065  0.3494  0.1807
 5862TIP3    H239078   3.750   5.846   5.722  0.7461  0.0940 -0.0068
 5863TIP3   OH239079   0.853   5.242   1.328  0.0792 -0.1190  0.2327
 5863TIP3    H139080   0.892   5.327   1.349 -1.0261  0.2255  0.9675
 5863TIP3    H239081   0.842   5.243   1.233 -0.8182  0.9634  0.3380
 5864TIP3   OH239082   3.977   5.896   1.951  0.1217 -0.1507  0.5560
 5864TIP3    H139083   3.905   5.872   1.893  0.0331 -0.6295  0.8730
 5864TIP3    H239084   3.935   5.928   2.031  0.2410  0.6867  0.2944
 5865TIP3   OH239085   4.505   6.181  13.610 -0.3490  0.6534 -0.4803
 5865TIP3    H139086   4.444   6.197  13.682 -2.2620 -0.8900 -1.7189
 5865TIP3    H239087   4.518   6.086  13.610 -0.1807  0.6698 -2.0328
 5866TIP3   OH239088   4.749   0.033   3.023  0.3399 -0.1504  0.1933
 5866TIP3    H139089   4.821   0.065   3.079  0.5530  0.0370 -0.1806
 5866TIP3    H239090   4.670   0.053   3.073  0.5475 -0.4335  0.6494
 5867TIP3   OH239091   6.011   6.268   4.330  0.5474 -0.1922  0.6798
 5867TIP3    H139092   6.083   6.325   4.304  0.7785 -0.2579  1.1695
 5867TIP3    H239093   5.945   6.279   4.261  1.7101 -1.4256 -0.6293
 5868TIP3   OH239094   3.184   6.319  13.166 -0.8463  0.2835  0.6182
 5868TIP3    H139095   3.094   6.298  13.190 -0.9094  1.3124  1.3162
 5868TIP3    H239096   3.235   6.308  13.246 -0.4669  0.3535  0.3919
 5869TIP3   OH239097   0.607   2.747  15.981 -0.0743  0.4059 -0.4872
 5869TIP3    H139098   0.634   2.838  15.974  1.8124 -0.0398  0.5381
 5869TIP3    H239099   0.565   2.740  16.067 -2.8536  0.9111 -1.7405
 5870TIP3   OH239100   6.559   1.557   5.610 -0.2040 -0.1254 -0.4157
 5870TIP3    H139101   6.501   1.613   5.559  1.2548  0.7792 -1.1139
 5870TIP3    H239102   6.591   1.492   5.547 -1.2533 -1.2787  0.2088
 5871TIP3   OH239103   1.218   4.864  16.569 -0.8245  0.1535 -0.2417
 5871TIP3    H139104   1.308   4.896  16.561 -1.0582  1.9845  3.2502
 5871TIP3    H239105   1.177   4.887  16.486  1.6651  0.1379 -1.5431
 5872TIP3   OH239106   3.697   2.805   0.672 -0.2541 -0.3954  0.5194
 5872TIP3    H139107   3.661   2.726   0.711 -1.2159 -1.5656 -2.6021
 5872TIP3    H239108   3.744   2.774   0.594 -0.0620  2.0246 -0.3783
 5873TIP3   OH239109   4.380   4.320   2.077  0.3138 -0.4793  0.3750
 5873TIP3    H139110   4.421   4.253   2.132  1.4081 -1.1074 -1.1478
 5873TIP3    H239111   4.392   4.287   1.988  0.6652  1.6420 -0.3841
 5874TIP3   OH239112   4.141   4.005  14.591  0.3771  0.0432 -0.4107
 5874TIP3    H139113   4.094   4.020  14.509  2.4048  0.3635 -1.5537
 5874TIP3    H239114   4.212   3.946  14.567  1.8137  1.2294  0.8164
 5875TIP3   OH239115   4.823   1.210   2.855  0.6200  0.0470  0.2437
 5875TIP3    H139116   4.829   1.231   2.948 -0.5457  1.1868  0.0678
 5875TIP3    H239117   4.905   1.241   2.818  0.5983  0.6289  0.6848
 5876TIP3   OH239118   6.096   4.543  16.079 -0.1139 -0.3281 -0.7705
 5876TIP3    H139119   6.075   4.463  16.128 -0.8173  0.3090 -0.0319
 5876TIP3    H239120   6.191   4.539  16.066  0.0297 -0.6413  0.3845
 5877TIP3   OH239121   0.978   0.028  11.031 -0.1183  0.1917  0.1315
 5877TIP3    H139122   0.957   0.121  11.018 -0.6908 -0.3610 -3.3869
 5877TIP3    H239123   1.064   0.029  11.074 -0.1853  2.3267  0.3009
 5878TIP3   OH239124   1.327   2.028   0.096  0.5154  0.3080 -0.3983
 5878TIP3    H139125   1.398   2.093   0.094  0.8122 -0.0365 -1.6848
 5878TIP3    H239126   1.365   1.952   0.139  0.2755  0.8516  0.7955
 5879TIP3   OH239127   5.417   6.103  14.793  0.9547  0.2594 -0.0690
 5879TIP3    H139128   5.338   6.077  14.841  0.6319  0.0102 -0.7144
 5879TIP3    H239129   5.423   6.038  14.722  1.1596  0.8875 -0.6314
 5880TIP3   OH239130   1.302   4.831   4.148  0.1541  0.2972 -0.1249
 5880TIP3    H139131   1.365   4.797   4.211  1.2794  1.0849 -0.8132
 5880TIP3    H239132   1.350   4.835   4.065 -1.5450 -1.5255 -1.2407
 5881TIP3   OH239133   1.651   0.911  12.847 -0.1029 -0.1893  0.8819
 5881TIP3    H139134   1.579   0.924  12.908 -1.2508  0.1954 -0.5251
 5881TIP3    H239135   1.625   0.960  12.769  3.4154  3.1642  1.6735
 5882TIP3   OH239136   3.308   3.643  13.739  0.6454 -0.1736  0.0842
 5882TIP3    H139137   3.219   3.669  13.760  0.1496 -0.9825 -0.9948
 5882TIP3    H239138   3.323   3.562  13.788  0.7796 -0.0646  0.2265
 5883TIP3   OH239139   1.313   2.254   5.196  0.5183 -0.2557  0.3890
 5883TIP3    H139140   1.228   2.241   5.155  0.5713  2.0266 -0.5472
 5883TIP3    H239141   1.375   2.254   5.122  1.0360  0.4224  0.8195
 5884TIP3   OH239142   0.001   0.448   4.300  0.4969  0.3670 -0.1944
 5884TIP3    H139143  -0.080   0.497   4.318  1.0717  1.2251  0.1101
 5884TIP3    H239144  -0.006   0.425   4.207 -0.8308 -0.9706  0.2250
 5885TIP3   OH239145   4.490   3.323  14.023 -0.1064 -0.0381  0.0992
 5885TIP3    H139146   4.512   3.292  13.936 -0.7326  1.5479 -0.6474
 5885TIP3    H239147   4.403   3.360  14.014 -0.0789  0.3537  1.3386
 5886TIP3   OH239148   4.888   0.164   0.276 -0.9480 -0.4596  0.4547
 5886TIP3    H139149   4.904   0.199   0.364  0.5193 -1.1624  0.4828
 5886TIP3    H239150   4.801   0.196   0.253 -1.4179 -0.3885  2.2348
 5887TIP3   OH239151   0.862   5.674  10.883  0.4603 -0.2780  0.0568
 5887TIP3    H139152   0.795   5.720  10.832  1.7673  0.0039 -1.4489
 5887TIP3    H239153   0.942   5.684  10.832  2.0241  0.7430  2.5910
 5888TIP3   OH239154   3.428   3.403   1.277  0.1597  0.7358  0.3501
 5888TIP3    H139155   3.519   3.428   1.293  0.1272 -0.2626  2.3260
 5888TIP3    H239156   3.401   3.360   1.359 -1.1664 -1.6077 -1.2731
 5889TIP3   OH239157   3.568   2.520  11.144 -0.4817 -0.0328 -0.1581
 5889TIP3    H139158   3.630   2.543  11.214 -0.1028  1.1459 -0.8603
 5889TIP3    H239159   3.608   2.444  11.101 -0.2435 -0.1777  0.3095
 5890TIP3   OH239160   5.717   4.935   1.781 -0.0075 -0.1031  0.7049
 5890TIP3    H139161   5.765   5.011   1.746  0.9972 -1.2301 -0.4319
 5890TIP3    H239162   5.778   4.894   1.842  0.2999 -1.2591 -0.3667
 5891TIP3   OH239163   2.900   4.477   0.782  0.8592  0.6233  0.2398
 5891TIP3    H139164   2.918   4.470   0.688  0.9323 -1.1235  0.3620
 5891TIP3    H239165   2.855   4.561   0.791 -0.0920  0.3427 -1.5103
 5892TIP3   OH239166   3.057   0.806   0.736  0.2495 -0.2759 -0.0953
 5892TIP3    H139167   3.152   0.796   0.737  0.0860 -1.8964  2.4155
 5892TIP3    H239168   3.034   0.831   0.826 -1.7197 -0.0043 -0.6430
 5893TIP3   OH239169   2.536   4.361   2.474 -0.3208  0.4594  0.3548
 5893TIP3    H139170   2.588   4.344   2.395  0.3291  0.5923  0.7520
 5893TIP3    H239171   2.593   4.412   2.530 -0.9020  0.6494  0.7826
 5894TIP3   OH239172   5.115   5.543   0.474 -0.7675  0.7167 -0.4981
 5894TIP3    H139173   5.147   5.592   0.550 -1.8522  0.0375  0.4103
 5894TIP3    H239174   5.064   5.472   0.511 -2.4146  1.1441 -1.9033
 5895TIP3   OH239175   6.233   4.719   4.775  0.0549 -0.1802 -0.1687
 5895TIP3    H139176   6.230   4.697   4.868  1.0082 -2.5754 -0.6551
 5895TIP3    H239177   6.149   4.760   4.757  0.1771  1.0768  1.9208
 5896TIP3   OH239178   1.927   1.891  11.267  0.3001  0.3556  0.2107
 5896TIP3    H139179   1.876   1.946  11.207 -0.5120 -0.7001 -0.0911
 5896TIP3    H239180   1.968   1.826  11.210 -3.0995 -2.7131  1.0334
 5897TIP3   OH239181   2.490   3.398  12.226  0.2105 -0.8242  0.0122
 5897TIP3    H139182   2.568   3.431  12.183  0.5763  0.4468  1.5850
 5897TIP3    H239183   2.443   3.350  12.158  1.5062 -0.1584 -1.3774
 5898TIP3   OH239184   0.698   3.617  15.982  0.2970  0.3885  0.0450
 5898TIP3    H139185   0.737   3.691  16.029  1.8618 -1.1370  1.1712
 5898TIP3    H239186   0.769   3.555  15.970 -1.5454 -2.1046  1.4376
 5899TIP3   OH239187   3.816   0.979   2.162  0.3702 -0.5089  0.4145
 5899TIP3    H139188   3.817   1.032   2.083  0.4889  1.8483  1.9631
 5899TIP3    H239189   3.830   1.041   2.233  0.7222 -2.6494  2.2630
 5900TIP3   OH239190   3.384   1.729  13.925  0.3232  0.0207  0.1758
 5900TIP3    H139191   3.407   1.810  13.880 -0.9514  0.0133 -0.5111
 5900TIP3    H239192   3.353   1.671  13.856  0.4059 -0.7604  0.7830
 5901TIP3   OH239193   3.206   1.783  12.350 -0.2354  0.1408 -0.3032
 5901TIP3    H139194   3.193   1.751  12.439 -0.0235 -0.2284 -0.4029
 5901TIP3    H239195   3.272   1.852  12.358 -0.3228  0.2062 -0.1551
 5902TIP3   OH239196   3.200   3.078  12.621  0.0331  0.5362 -0.0515
 5902TIP3    H139197   3.190   3.086  12.526  2.4562  0.0602 -0.3600
 5902TIP3    H239198   3.287   3.041  12.634  0.6441  2.6543  2.4481
 5903TIP3   OH239199   4.025   5.026  11.716  0.3165 -0.0127  0.1776
 5903TIP3    H139200   3.968   4.949  11.715  0.0737  0.1767 -0.9532
 5903TIP3    H239201   3.965   5.100  11.719  0.4268  0.2425 -2.8218
 5904TIP3   OH239202   0.188   2.891  12.280 -0.6415 -0.4459 -0.3862
 5904TIP3    H139203   0.259   2.853  12.331 -0.9344 -1.7833 -0.9609
 5904TIP3    H239204   0.178   2.979  12.315  1.4043 -0.1805 -0.3807
 5905TIP3   OH239205   0.158   1.824   2.599 -0.0813 -0.2315 -0.1668
 5905TIP3    H139206   0.183   1.823   2.507  1.3881 -0.2268  0.2306
 5905TIP3    H239207   0.124   1.736   2.616 -2.2581  0.3630 -1.2088
 5906TIP3   OH239208   6.158   5.939  13.595  0.1325 -0.4921 -0.8652
 5906TIP3    H139209   6.219   6.006  13.625  1.4635 -1.9969 -0.1100
 5906TIP3    H239210   6.119   5.904  13.676 -0.6526 -0.5327 -1.2562
 5907TIP3   OH239211   3.986   5.399   4.361  0.2229  0.4179  0.0389
 5907TIP3    H139212   4.018   5.488   4.379 -0.9803  0.8371  0.1749
 5907TIP3    H239213   3.891   5.406   4.368  0.1104 -0.8680 -0.0550
 5908TIP3   OH239214   1.992   3.184  12.910 -0.1888  1.0553  0.0822
 5908TIP3    H139215   2.034   3.108  12.869 -1.9071  0.0295  0.1420
 5908TIP3    H239216   2.019   3.180  13.001 -2.1918 -0.9648  0.6570
 5909TIP3   OH239217   0.343   0.381   4.981  0.2461  0.3117  0.2822
 5909TIP3    H139218   0.399   0.428   4.919 -0.0191  0.2050 -0.0397
 5909TIP3    H239219   0.279   0.446   5.010 -0.9657 -0.1845 -1.1937
 5910TIP3   OH239220   2.085   0.304  11.637  0.0609  0.4690  0.3768
 5910TIP3    H139221   2.088   0.209  11.647 -1.9566  0.2168 -1.0817
 5910TIP3    H239222   2.115   0.320  11.547 -1.1344  1.0782  0.0832
 5911TIP3   OH239223   1.227   5.981  15.669 -0.2634  0.0906 -0.0463
 5911TIP3    H139224   1.214   5.898  15.624 -0.8809 -0.9316  1.9650
 5911TIP3    H239225   1.272   5.958  15.750 -1.6057  1.5250  1.1565
 5912TIP3   OH239226   2.554   0.491  13.995 -0.9252 -0.0204  0.1614
 5912TIP3    H139227   2.562   0.526  13.906 -0.1510  0.7133  0.5043
 5912TIP3    H239228   2.586   0.562  14.051 -1.3708 -0.4924  1.0226
 5913TIP3   OH239229   6.767   0.680   5.280  0.0677 -0.2069 -0.3335
 5913TIP3    H139230   6.711   0.627   5.338  0.0399  0.6814  0.4744
 5913TIP3    H239231   6.729   0.668   5.193 -0.4238 -0.8714 -0.0400
 5914TIP3   OH239232   2.110   5.402   5.069 -0.5817 -0.5252 -0.0171
 5914TIP3    H139233   2.067   5.375   5.150 -2.4992  1.9085 -0.1499
 5914TIP3    H239234   2.063   5.356   5.000 -0.6599 -0.6101  0.0935
 5915TIP3   OH239235   2.802   4.628  14.882 -0.5709  0.3105  0.1224
 5915TIP3    H139236   2.865   4.699  14.895  1.6384 -1.5210 -0.2211
 5915TIP3    H239237   2.837   4.579  14.808 -2.0039 -1.1998  0.4240
 5916TIP3   OH239238   1.089   2.972  15.307  0.4138  0.2791  0.5485
 5916TIP3    H139239   1.014   3.031  15.315 -1.2339 -1.7857  0.7681
 5916TIP3    H239240   1.070   2.920  15.229  0.7917 -1.3714  1.5420
 5917TIP3   OH239241   0.809   0.235   4.983  0.5000 -0.2185  0.1068
 5917TIP3    H139242   0.863   0.156   4.981  0.9252  0.0606  0.3357
 5917TIP3    H239243   0.756   0.226   5.061 -0.6394 -1.0470 -0.7457
 5918TIP3   OH239244   3.393   3.546  16.145 -0.5698 -0.9897 -0.3179
 5918TIP3    H139245   3.453   3.535  16.071  0.7347 -0.6130  0.6728
 5918TIP3    H239246   3.391   3.640  16.161 -0.6473 -1.0871  0.2716
 5919TIP3   OH239247   0.101   0.491   2.208  0.8797 -0.0823 -0.1071
 5919TIP3    H139248   0.059   0.568   2.246 -0.1731 -1.0767  0.7733
 5919TIP3    H239249   0.087   0.500   2.114 -1.0898 -0.2380  0.1427
 5920TIP3   OH239250   5.845   0.513  12.260 -0.5460 -0.0885 -0.9976
 5920TIP3    H139251   5.861   0.448  12.329 -0.5569 -1.9553 -2.7010
 5920TIP3    H239252   5.921   0.571  12.263  0.7053 -1.7031 -1.1023
 5921TIP3   OH239253   1.290   3.517  14.349  0.0915 -0.4976  0.1965
 5921TIP3    H139254   1.215   3.568  14.380  0.2823  0.5955 -1.0805
 5921TIP3    H239255   1.317   3.466  14.425 -0.0985  1.3264  1.5227
 5922TIP3   OH239256   5.197   4.516   3.402 -0.2232 -0.2108 -0.0609
 5922TIP3    H139257   5.287   4.528   3.432 -0.0219  0.0955 -0.7762
 5922TIP3    H239258   5.146   4.511   3.483  0.6960 -2.6114  0.4045
 5923TIP3   OH239259   5.569   0.193   2.007  0.0523 -0.0096  0.2783
 5923TIP3    H139260   5.662   0.199   1.987 -0.1205 -1.3912 -1.0412
 5923TIP3    H239261   5.551   0.099   2.009 -1.7190  0.2486 -1.5836
 5924TIP3   OH239262   2.737   3.157   3.175 -0.6376  0.1094 -0.4474
 5924TIP3    H139263   2.725   3.250   3.157  0.3380  1.1653  3.8921
 5924TIP3    H239264   2.831   3.147   3.191 -0.9617 -1.3307  0.6553
 5925TIP3   OH239265   1.500   3.435   2.603  0.5765 -0.3177 -0.1474
 5925TIP3    H139266   1.520   3.517   2.557  0.2984 -0.8730 -1.2947
 5925TIP3    H239267   1.491   3.370   2.533 -0.7760 -1.0069  0.6252
 5926TIP3   OH239268   5.366   1.522  15.965  0.4949  0.3992 -0.2436
 5926TIP3    H139269   5.325   1.563  15.889  0.6377 -0.8353 -1.0055
 5926TIP3    H239270   5.296   1.469  16.004  0.7687  0.0324 -0.2507
 5927TIP3   OH239271   2.078   0.835   4.728 -0.0717 -0.3145  0.1362
 5927TIP3    H139272   1.988   0.837   4.761 -0.4182 -0.5548 -0.7484
 5927TIP3    H239273   2.074   0.885   4.646  0.4031 -1.0774 -0.3623
 5928TIP3   OH239274   4.468   1.191  12.757 -0.5196 -0.1344 -0.2262
 5928TIP3    H139275   4.533   1.239  12.807 -1.6182  2.3226 -1.0790
 5928TIP3    H239276   4.514   1.164  12.677  0.5555 -1.9652  0.9856
 5929TIP3   OH239277   5.892   6.454   1.582 -0.2543 -0.4163  0.6974
 5929TIP3    H139278   5.852   6.368   1.574  0.2900 -0.8643  2.6648
 5929TIP3    H239279   5.975   6.446   1.535  0.4694 -1.4242  2.1085
 5930TIP3   OH239280   6.000   3.487  13.753 -0.3513  0.2568  0.0635
 5930TIP3    H139281   6.034   3.451  13.835 -0.6866 -1.8577 -0.6803
 5930TIP3    H239282   6.078   3.502  13.699 -0.2405  0.0602  0.1660
 5931TIP3   OH239283   6.626   2.322   4.345 -0.1048  0.1716 -0.4649
 5931TIP3    H139284   6.631   2.407   4.389 -0.1607 -0.4297  0.7025
 5931TIP3    H239285   6.718   2.298   4.329 -0.0272 -0.2545  0.5796
 5932TIP3   OH239286   3.757   0.641  14.485 -0.3312  0.3999  0.4567
 5932TIP3    H139287   3.808   0.568  14.449 -1.4454 -0.2962  0.2573
 5932TIP3    H239288   3.719   0.684  14.408  0.9798  1.7135  0.5131
 5933TIP3   OH239289   4.340   1.239  17.207  0.0844  0.2170  0.1305
 5933TIP3    H139290   4.260   1.261  17.159  0.5424 -1.9709 -1.7185
 5933TIP3    H239291   4.358   1.316  17.261 -2.7637  1.0858 -0.0953
 5934TIP3   OH239292   5.185   5.253   1.497 -0.2692 -0.0497 -0.4127
 5934TIP3    H139293   5.112   5.197   1.472 -1.1386  1.3963 -1.1319
 5934TIP3    H239294   5.171   5.271   1.590 -0.3264 -0.4913 -0.3341
 5935TIP3   OH239295   2.477   3.520   1.090  0.0871  0.4801  0.7869
 5935TIP3    H139296   2.426   3.578   1.034  0.1737 -0.1752  0.0222
 5935TIP3    H239297   2.542   3.577   1.131 -0.2380  1.0317  0.5378
 5936TIP3   OH239298   1.224   2.762  13.513 -0.2951 -0.2620 -0.1634
 5936TIP3    H139299   1.288   2.766  13.442 -0.0609 -1.1774 -0.0105
 5936TIP3    H239300   1.160   2.830  13.491 -0.0449 -0.3059 -1.0727
 5937TIP3   OH239301   1.339   4.224  13.850  0.2637  0.1046  0.0393
 5937TIP3    H139302   1.287   4.283  13.906  0.3898  0.2728 -0.0191
 5937TIP3    H239303   1.422   4.270  13.838 -0.0706  0.4661 -0.9785
 5938TIP3   OH239304   6.145   6.639   5.330 -0.0224 -0.0255  0.3648
 5938TIP3    H139305   6.162   6.730   5.306  0.2875 -0.0869  0.3458
 5938TIP3    H239306   6.113   6.599   5.249  0.5731 -0.1170  0.1676
 5939TIP3   OH239307   2.647   0.483  15.100 -0.0402 -0.1718 -0.3458
 5939TIP3    H139308   2.573   0.503  15.158  0.8923 -1.0232  1.1838
 5939TIP3    H239309   2.633   0.392  15.074  0.7506 -0.5174  0.4082
 5940TIP3   OH239310   4.148   6.158  13.617  0.0541 -0.9085  0.3295
 5940TIP3    H139311   4.142   6.235  13.560 -0.1527  0.0086  1.5541
 5940TIP3    H239312   4.129   6.192  13.705  1.7022 -2.0504  1.1472
 5941TIP3   OH239313   3.502   4.476   3.330  0.0156 -0.5534  0.3023
 5941TIP3    H139314   3.424   4.509   3.374 -0.9388 -0.0773 -1.6704
 5941TIP3    H239315   3.471   4.404   3.276  1.4073 -2.0664  1.4697
 5942TIP3   OH239316   5.242   5.242  12.398 -0.2652 -0.2378 -0.2218
 5942TIP3    H139317   5.180   5.174  12.371 -1.0193  0.3649 -0.0393
 5942TIP3    H239318   5.234   5.310  12.330  0.6904 -0.4581 -0.5580
 5943TIP3   OH239319   1.179   5.786  16.813  0.0174  0.6755 -1.2164
 5943TIP3    H139320   1.269   5.792  16.845  0.0777  1.3709 -1.5243
 5943TIP3    H239321   1.147   5.703  16.849  1.4020 -0.5321 -2.6490
 5944TIP3   OH239322   1.824   4.995   0.821 -0.0713 -0.1304  0.0492
 5944TIP3    H139323   1.745   4.997   0.874  0.2850  1.7401  0.5316
 5944TIP3    H239324   1.893   4.969   0.882  0.1130  0.7312  0.2134
 5945TIP3   OH239325   4.977   0.530   0.560  0.0551 -0.1691  0.1459
 5945TIP3    H139326   5.013   0.494   0.479  2.9688 -0.9184  1.6907
 5945TIP3    H239327   4.991   0.461   0.625 -2.8259  0.1589  1.2050
 5946TIP3   OH239328   5.192   2.521   5.380 -0.1833 -0.1743 -0.0316
 5946TIP3    H139329   5.198   2.425   5.378  0.6153 -0.1492  0.7728
 5946TIP3    H239330   5.215   2.548   5.291  0.2256 -0.7068 -0.0904
 5947TIP3   OH239331   6.419   6.787  17.099 -0.8056 -0.2550 -0.2952
 5947TIP3    H139332   6.503   6.774  17.056 -1.7951 -0.2608 -2.3267
 5947TIP3    H239333   6.438   6.844  17.174  0.9471  0.0076 -0.9159
 5948TIP3   OH239334   0.022   0.417  14.171  0.1519  0.1360 -0.7638
 5948TIP3    H139335   0.112   0.449  14.169 -0.0883  0.8366 -0.3107
 5948TIP3    H239336  -0.016   0.446  14.087  0.1334  0.4679 -0.6417
 5949TIP3   OH239337   5.987   4.420  12.664 -0.7176 -0.3865  0.5095
 5949TIP3    H139338   5.929   4.346  12.643  1.1309 -1.4223 -1.0625
 5949TIP3    H239339   6.069   4.400  12.619  0.6738  1.3760  2.1783
 5950TIP3   OH239340   0.568   1.524  11.737 -0.1632  0.7067  0.3144
 5950TIP3    H139341   0.546   1.605  11.783 -0.2111  0.3005  1.0151
 5950TIP3    H239342   0.484   1.481  11.722 -0.1475  0.8274 -0.1531
 5951TIP3   OH239343   6.659   1.408  15.746  0.5325  0.0581 -0.0425
 5951TIP3    H139344   6.737   1.419  15.799  1.3035 -2.0859 -0.6945
 5951TIP3    H239345   6.671   1.325  15.701 -1.7900  0.0384 -0.7321
 5952TIP3   OH239346   4.031   1.481  12.278 -0.4324  0.2657 -0.1853
 5952TIP3    H139347   4.009   1.487  12.372 -0.8299  1.8237 -0.3621
 5952TIP3    H239348   4.084   1.402  12.271 -2.4198 -1.2295  0.9699
 5953TIP3   OH239349   6.527   2.714   0.504  0.1588 -0.5842  0.2486
 5953TIP3    H139350   6.564   2.632   0.536  0.8985 -0.8251 -1.2096
 5953TIP3    H239351   6.601   2.774   0.499 -0.3106  0.0822  0.9316
 5954TIP3   OH239352   1.400   1.314   0.572 -0.0191  0.4962  0.1037
 5954TIP3    H139353   1.419   1.244   0.634  0.2275  0.4426 -0.0337
 5954TIP3    H239354   1.418   1.276   0.486 -0.5279  0.5159 -0.0150
 5955TIP3   OH239355   0.953   4.277  16.428 -0.0065 -0.1546 -0.0190
 5955TIP3    H139356   0.985   4.249  16.514 -0.5596  0.4506  0.3866
 5955TIP3    H239357   0.873   4.227  16.414 -0.0527 -0.0688 -0.0715
 5956TIP3   OH239358   3.159   0.065   5.130 -0.3654 -0.2149  0.5057
 5956TIP3    H139359   3.171   0.032   5.041 -0.9138 -0.9746  0.7050
 5956TIP3    H239360   3.198   0.152   5.129 -0.7270 -0.0595 -0.5887
 5957TIP3   OH239361   2.611   2.359  11.954  0.3280  0.9231  0.2806
 5957TIP3    H139362   2.517   2.374  11.946 -0.4754 -2.6592  2.1310
 5957TIP3    H239363   2.628   2.282  11.899  1.9301  0.7213  1.0225
 5958TIP3   OH239364   2.088   0.439   5.202 -0.2521 -0.1487 -0.1508
 5958TIP3    H139365   2.181   0.435   5.223 -0.0899 -1.9811 -1.1001
 5958TIP3    H239366   2.086   0.448   5.107 -1.0558 -0.0523 -0.1246
 5959TIP3   OH239367   5.164   1.091   3.696  0.4424 -0.7906  0.1740
 5959TIP3    H139368   5.143   1.076   3.788 -0.2794 -0.9421 -0.0124
 5959TIP3    H239369   5.242   1.037   3.681  0.2554 -1.1785  0.5626
 5960TIP3   OH239370   4.925   3.771  13.397  0.6613  0.1485  0.0279
 5960TIP3    H139371   4.954   3.699  13.453  2.3180  1.6969  1.2163
 5960TIP3    H239372   4.830   3.759  13.389  0.1804  0.4860  4.0693
 5961TIP3   OH239373   4.173   4.286   2.713 -0.0856  0.1886 -0.0267
 5961TIP3    H139374   4.111   4.257   2.646 -0.5583 -0.4087  0.6619
 5961TIP3    H239375   4.121   4.342   2.770 -0.3128 -1.2698  1.2422
 5962TIP3   OH239376   5.334   2.979   3.712 -0.2347 -0.1623  0.0656
 5962TIP3    H139377   5.293   2.899   3.746  0.1708 -0.4101 -0.0273
 5962TIP3    H239378   5.298   2.988   3.623  0.2067 -0.5900 -0.1558
 5963TIP3   OH239379   6.417   5.790  16.920  0.1888  0.6949  0.3579
 5963TIP3    H139380   6.477   5.732  16.968 -0.6691  0.3103  0.9763
 5963TIP3    H239381   6.337   5.791  16.973 -0.1263  1.7314 -0.1159
 5964TIP3   OH239382   1.517   2.590   5.877 -0.5457  0.1820 -0.4180
 5964TIP3    H139383   1.505   2.617   5.786 -1.5485 -0.2086 -0.4076
 5964TIP3    H239384   1.460   2.514   5.888  1.0243 -0.9554  0.0133
 5965TIP3   OH239385   6.521   5.480   3.634 -0.1919 -0.0638  0.1783
 5965TIP3    H139386   6.477   5.488   3.549 -1.3115  2.1848  0.9265
 5965TIP3    H239387   6.588   5.548   3.633 -0.5143  0.2938  1.2378
 5966TIP3   OH239388   0.640   0.643  17.289 -0.2753  0.4329  0.4408
 5966TIP3    H139389   0.613   0.731  17.261 -0.4730  0.2365  0.0161
 5966TIP3    H239390   0.704   0.659  17.359 -1.1356  0.9109  1.1391
 5967TIP3   OH239391   1.629   5.517   2.699 -0.4381  1.0164  0.0983
 5967TIP3    H139392   1.608   5.426   2.718 -0.2583  0.8435 -0.5059
 5967TIP3    H239393   1.543   5.560   2.689 -0.5157  0.7945 -0.1729
 5968TIP3   OH239394   2.839   3.996   4.585 -0.0099 -0.2053  0.6441
 5968TIP3    H139395   2.751   3.959   4.593  0.1774 -0.7268  0.3057
 5968TIP3    H239396   2.825   4.091   4.584 -0.6248 -0.3027 -0.1210
 5969TIP3   OH239397   6.068   0.740  13.978  0.2620 -0.0978 -0.6555
 5969TIP3    H139398   6.047   0.685  14.053  1.2004 -0.2610 -0.4996
 5969TIP3    H239399   6.108   0.818  14.016 -0.7885  0.5663 -0.8928
 5970TIP3   OH239400   6.027   4.107  14.285 -0.6001  0.0008  0.0256
 5970TIP3    H139401   6.084   4.110  14.208  0.5757  1.0778  0.9153
 5970TIP3    H239402   6.084   4.077  14.356 -1.4720 -0.2132  0.6534
 5971TIP3   OH239403   4.297   5.537  13.093  0.5455 -0.2121 -0.8884
 5971TIP3    H139404   4.245   5.594  13.037 -1.8417 -0.2865  1.1757
 5971TIP3    H239405   4.308   5.457  13.041 -1.2313 -0.1219 -1.4344
 5972TIP3   OH239406   0.285   5.266   5.993  0.1170  0.7387  0.7003
 5972TIP3    H139407   0.281   5.333   6.061  3.2204  0.3071  1.3736
 5972TIP3    H239408   0.353   5.205   6.023 -1.6092 -1.9168 -0.6133
 5973TIP3   OH239409   4.809   1.147   0.628  0.3322  0.2058  0.0296
 5973TIP3    H139410   4.797   1.063   0.672 -1.1294 -0.1080 -0.9248
 5973TIP3    H239411   4.898   1.143   0.592  0.5680 -0.6014  0.6936
 5974TIP3   OH239412   4.917   3.580   4.911  0.4331 -0.2947 -0.8118
 5974TIP3    H139413   4.825   3.608   4.915  0.4046 -0.6184  1.0159
 5974TIP3    H239414   4.965   3.649   4.956  0.7460 -1.5012  0.7420
 5975TIP3   OH239415   1.026   6.777  15.680 -0.1950 -0.1192  0.2981
 5975TIP3    H139416   1.077   6.711  15.727 -1.0277 -0.2907  0.9777
 5975TIP3    H239417   0.989   6.832  15.748 -0.2866  0.4747 -0.2287
 5976TIP3   OH239418   4.872   2.306  10.880 -0.2964 -0.1352  0.1392
 5976TIP3    H139419   4.899   2.244  10.812 -0.4824 -1.1663  1.0023
 5976TIP3    H239420   4.777   2.300  10.881 -0.4448  1.6334 -1.1431
 5977TIP3   OH239421   5.519   4.545   1.074  0.3840  0.0896 -0.0090
 5977TIP3    H139422   5.491   4.614   1.013  0.3460 -0.2745 -0.4053
 5977TIP3    H239423   5.610   4.567   1.095 -0.2906  1.4975  1.5823
 5978TIP3   OH239424   3.399   3.823   6.786 -0.2924  0.2083 -0.1444
 5978TIP3    H139425   3.364   3.819   6.697  1.2262  0.5580 -0.7750
 5978TIP3    H239426   3.384   3.913   6.813 -0.2439  0.2484 -0.2505
 5979TIP3   OH239427   3.591   5.738  17.259 -0.1187 -0.5087 -0.2457
 5979TIP3    H139428   3.590   5.831  17.237 -1.6039 -0.9249 -2.0894
 5979TIP3    H239429   3.500   5.716  17.277 -0.0785 -2.0051 -1.7031
 5980TIP3   OH239430   4.849   0.819  12.538 -0.4639 -0.2507 -0.1351
 5980TIP3    H139431   4.916   0.752  12.526 -0.6952 -0.6554  0.7894
 5980TIP3    H239432   4.803   0.822  12.454 -0.8186 -1.6471  0.0017
 5981TIP3   OH239433   4.140   1.620   2.381  0.0641 -0.6672 -0.1717
 5981TIP3    H139434   4.148   1.646   2.290  1.8550 -2.6843 -0.6361
 5981TIP3    H239435   4.081   1.685   2.420 -1.3242 -0.2140 -2.9135
 5982TIP3   OH239436   3.162   1.284   1.846 -0.1015  0.6023  0.1871
 5982TIP3    H139437   3.198   1.208   1.800  0.6019  0.7364  0.4988
 5982TIP3    H239438   3.160   1.353   1.779 -0.3469  0.4219  0.0096
 5983TIP3   OH239439   1.730   6.728   0.860  0.0324  0.1204  0.5521
 5983TIP3    H139440   1.669   6.739   0.787 -1.7547 -0.8305  1.8655
 5983TIP3    H239441   1.761   6.817   0.879 -0.6818  0.5696 -0.3481
 5984TIP3   OH239442   1.178   2.740   2.828  0.3501  0.0352 -0.0044
 5984TIP3    H139443   1.122   2.735   2.750  1.9165  0.2725 -1.1504
 5984TIP3    H239444   1.227   2.821   2.818  1.2771 -0.4232  0.7360
 5985TIP3   OH239445   1.124   5.222  16.895  0.4394 -0.3126 -0.0639
 5985TIP3    H139446   1.148   5.132  16.870 -0.9375 -0.2401 -1.7837
 5985TIP3    H239447   1.207   5.264  16.916  0.9835 -2.4038  2.2817
 5986TIP3   OH239448   1.396   6.715   3.940 -0.0921  0.1853 -0.0118
 5986TIP3    H139449   1.417   6.795   3.989 -0.7074  1.1303 -1.2657
 5986TIP3    H239450   1.435   6.645   3.992  1.7336  1.4185  0.3628
 5987TIP3   OH239451   6.481   1.838   1.523  0.2197 -0.1307  0.2108
 5987TIP3    H139452   6.499   1.918   1.474  1.6976 -1.0898 -0.8566
 5987TIP3    H239453   6.512   1.857   1.612  1.3750  0.1871 -0.2501
 5988TIP3   OH239454   3.530   4.895   2.233  0.0314  0.1901  0.1522
 5988TIP3    H139455   3.569   4.970   2.278  0.7320  0.1361 -0.3575
 5988TIP3    H239456   3.436   4.915   2.229  0.0812  0.5828  0.8838
 5989TIP3   OH239457   4.274   4.299  14.568 -0.0750  0.6244 -0.1610
 5989TIP3    H139458   4.301   4.211  14.543 -0.6242  0.1500  0.8916
 5989TIP3    H239459   4.320   4.356  14.507  0.0405 -0.4049 -1.0502
 5990TIP3   OH239460   6.275   0.313  17.158 -0.0990  0.6132  0.1109
 5990TIP3    H139461   6.249   0.299  17.067  1.0328 -1.9230  0.1345
 5990TIP3    H239462   6.201   0.279  17.210  0.9661 -1.8478  0.1219
 5991TIP3   OH239463   1.824   3.967   1.487 -0.1281  0.5960 -0.1872
 5991TIP3    H139464   1.845   3.881   1.450  0.0684  0.5846 -0.0468
 5991TIP3    H239465   1.805   4.022   1.411 -1.2888  0.1541 -0.2380
 5992TIP3   OH239466   3.227   5.997  10.555  0.1871  0.0312  0.2806
 5992TIP3    H139467   3.268   5.912  10.573 -1.1222 -0.3975  1.3562
 5992TIP3    H239468   3.136   5.976  10.536  0.2245  1.0590 -1.1111
 5993TIP3   OH239469   1.444   6.432   3.786 -0.1699  0.3107 -0.2918
 5993TIP3    H139470   1.389   6.508   3.770  0.1233  0.9053  1.3835
 5993TIP3    H239471   1.467   6.438   3.879  2.1828 -0.2554 -0.7835
 5994TIP3   OH239472   2.785   1.722  14.509  0.4254  0.8008  0.5669
 5994TIP3    H139473   2.863   1.683  14.548 -0.4981  1.0836  2.8126
 5994TIP3    H239474   2.775   1.806  14.555 -0.0253  1.7326 -1.1781
 5995TIP3   OH239475   5.936   3.229  17.051  0.7438  0.6098 -0.0136
 5995TIP3    H139476   6.023   3.226  17.090  1.9247  2.9144 -2.3513
 5995TIP3    H239477   5.903   3.317  17.071 -1.0470 -0.1999  0.7639
 5996TIP3   OH239478   0.256   1.645  16.264  0.5989  0.0645 -0.2060
 5996TIP3    H139479   0.166   1.645  16.297  1.0110 -0.2655  0.9626
 5996TIP3    H239480   0.273   1.553  16.243  0.9915 -0.0417  0.5429
 5997TIP3   OH239481   1.050   2.224  15.398  0.1441  0.1725 -0.0171
 5997TIP3    H139482   1.126   2.272  15.365  0.3920  0.2830  0.6850
 5997TIP3    H239483   1.064   2.220  15.493 -1.0308  0.7180  0.1907
 5998TIP3   OH239484   4.254   3.372   5.904 -0.1859 -0.6439 -0.0545
 5998TIP3    H139485   4.327   3.311   5.916  0.6152  0.1365 -0.8959
 5998TIP3    H239486   4.206   3.368   5.986  2.0490  0.4700  1.3537
 5999TIP3   OH239487   2.016   2.933  11.917 -0.1183 -0.0367  0.1653
 5999TIP3    H139488   1.974   3.019  11.924  0.3289  0.0724  1.6487
 5999TIP3    H239489   1.997   2.890  12.000 -0.5454 -1.4791 -0.6639
 6000TIP3   OH239490   6.431   0.783  13.120  0.4353 -0.4310  0.0539
 6000TIP3    H139491   6.370   0.837  13.071  0.4148 -1.0660 -0.6217
 6000TIP3    H239492   6.378   0.744  13.189  0.3141 -0.1105  0.1456
 6001TIP3   OH239493   4.666   0.511   1.355 -0.0880 -0.0832 -0.0375
 6001TIP3    H139494   4.758   0.488   1.341  0.0435  0.5279 -0.2049
 6001TIP3    H239495   4.636   0.452   1.423  0.4543 -0.2274  0.0775
 6002TIP3   OH239496   5.627   0.943  13.144  0.0057 -0.4508 -0.8740
 6002TIP3    H139497   5.543   0.905  13.167  1.0760 -2.9480 -0.9300
 6002TIP3    H239498   5.655   0.989  13.223 -1.3346  0.2892 -0.8187
 6003TIP3   OH239499   3.926   3.331   0.707  0.4677 -0.2078 -0.2939
 6003TIP3    H139500   3.993   3.263   0.713 -0.0503 -0.6529  0.4948
 6003TIP3    H239501   3.913   3.360   0.797  0.5940  0.8615 -0.6021
 6004TIP3   OH239502   3.173   2.071  14.092 -0.4039 -0.6634  0.3900
 6004TIP3    H139503   3.134   1.992  14.131  0.4918 -1.8415 -1.0569
 6004TIP3    H239504   3.267   2.055  14.096 -0.2280  0.2808 -0.0533
 6005TIP3   OH239505   5.253   2.022  14.776 -0.3121  0.2067 -0.4952
 6005TIP3    H139506   5.184   2.033  14.711 -0.6176  0.9637 -0.0538
 6005TIP3    H239507   5.271   1.928  14.777  0.1135  0.2552 -2.0966
 6006TIP3   OH239508   2.490   4.206  11.961  0.3371 -0.0584 -0.4081
 6006TIP3    H139509   2.469   4.134  11.902 -0.0262  1.5716 -2.3412
 6006TIP3    H239510   2.505   4.164  12.046  0.8729 -2.4551 -1.6349
 6007TIP3   OH239511   3.079   6.118  16.250  0.3734 -0.5402 -0.4305
 6007TIP3    H139512   3.079   6.163  16.166  2.8333  0.3332 -0.0082
 6007TIP3    H239513   3.025   6.172  16.307 -0.1441 -0.3846 -1.0701
 6008TIP3   OH239514   1.579   5.731  11.485  0.2468  0.0732  0.0777
 6008TIP3    H139515   1.630   5.799  11.442 -1.3735  1.2768  0.0133
 6008TIP3    H239516   1.522   5.696  11.417 -1.8378  1.5121  1.0144
 6009TIP3   OH239517   4.739   6.242   3.979 -0.4889  0.2368 -0.6697
 6009TIP3    H139518   4.685   6.321   3.972 -0.8109  0.2061  1.2469
 6009TIP3    H239519   4.796   6.258   4.053 -1.3116 -1.7753  0.4416
 6010TIP3   OH239520   2.997   0.970   1.596  0.4322 -0.5421 -0.5095
 6010TIP3    H139521   2.999   1.032   1.523 -0.2145 -0.9871 -0.9188
 6010TIP3    H239522   2.947   1.014   1.664  2.3333  0.4896  0.2540
 6011TIP3   OH239523   3.577   3.698  15.041  0.3414  0.0072  0.4114
 6011TIP3    H139524   3.622   3.770  14.996 -2.5832  0.2993 -2.1857
 6011TIP3    H239525   3.611   3.619  14.999 -1.1328  0.2054 -1.2019
 6012TIP3   OH239526   2.852   0.443   5.799  0.3599 -0.1571 -0.3124
 6012TIP3    H139527   2.824   0.391   5.724  0.1038  0.9605 -1.0085
 6012TIP3    H239528   2.822   0.532   5.779  0.9972  0.3038  0.7365
 6013TIP3   OH239529   6.297   1.376  13.823  0.3711  0.7230  0.4144
 6013TIP3    H139530   6.314   1.469  13.840  0.5766  1.2668 -2.5633
 6013TIP3    H239531   6.218   1.376  13.769  0.5983 -0.8173  0.0786
 6014TIP3   OH239532   5.039   0.627  17.118  0.5418  0.0397  0.4039
 6014TIP3    H139533   4.996   0.559  17.169  1.1945 -1.1709 -0.6273
 6014TIP3    H239534   5.069   0.691  17.182  0.9212 -1.2079  1.4790
 6015TIP3   OH239535   3.657   0.008  15.959 -0.1265 -0.1877 -0.3898
 6015TIP3    H139536   3.630   0.054  16.038 -0.9246  1.0648 -1.3713
 6015TIP3    H239537   3.750   0.028  15.950 -0.0025 -0.4444  0.2965
 6016TIP3   OH239538   0.675   3.145  12.989  0.3705  0.4232 -0.3977
 6016TIP3    H139539   0.740   3.101  13.045 -0.0285 -0.3554 -0.5301
 6016TIP3    H239540   0.629   3.073  12.946 -0.6449  0.9671 -0.2298
 6017TIP3   OH239541   1.382   2.895  15.728  0.8596 -0.3607  0.0975
 6017TIP3    H139542   1.367   2.986  15.753 -2.1161 -1.3069  1.9834
 6017TIP3    H239543   1.467   2.873  15.766  0.3890  0.8753  1.9345
 6018TIP3   OH239544   5.896   0.629   5.287  0.1746  0.2409  0.3821
 6018TIP3    H139545   5.838   0.626   5.210  0.3906  0.8473  0.1910
 6018TIP3    H239546   5.871   0.710   5.332 -0.8584 -0.7936  1.6788
 6019TIP3   OH239547   4.008   0.912  14.353  0.1703  0.4198  0.6694
 6019TIP3    H139548   3.994   0.833  14.300  0.5797 -0.5711  2.0168
 6019TIP3    H239549   4.102   0.912  14.371  0.1046  1.0049  1.0145
 6020TIP3   OH239550   1.873   0.021  15.028 -0.5207 -0.2612 -1.0338
 6020TIP3    H139551   1.854   0.069  15.108 -0.5829 -0.8754 -0.6795
 6020TIP3    H239552   1.841   0.078  14.958 -1.0378 -0.0079 -0.5940
 6021TIP3   OH239553   2.539   2.243   5.756  0.3645 -0.1445  0.1265
 6021TIP3    H139554   2.552   2.302   5.830  0.9410  0.1070 -0.1733
 6021TIP3    H239555   2.522   2.302   5.682  1.8127 -0.3239 -0.3527
 6022TIP3   OH239556   6.188   3.877   3.895 -0.3193 -0.1151  0.2447
 6022TIP3    H139557   6.161   3.895   3.805 -0.1962 -0.8996  0.0448
 6022TIP3    H239558   6.224   3.960   3.927 -1.6965  0.5599  0.0593
 6023TIP3   OH239559   4.556   6.762  16.486  0.2522 -0.0968 -0.0370
 6023TIP3    H139560   4.565   6.843  16.437 -3.3216 -0.1704 -0.9636
 6023TIP3    H239561   4.553   6.693  16.419 -1.5494 -0.4962  0.4328
 6024TIP3   OH239562   2.530   0.109  12.488  0.1620  0.2917  0.0440
 6024TIP3    H139563   2.595   0.169  12.452  0.2911  0.0321 -0.1566
 6024TIP3    H239564   2.476   0.164  12.546  2.4216 -0.0877  2.6175
 6025TIP3   OH239565   0.396   0.557   1.435 -0.4838 -0.3732 -0.1659
 6025TIP3    H139566   0.373   0.496   1.364 -0.0501 -0.2398 -0.4240
 6025TIP3    H239567   0.391   0.504   1.514 -0.7886 -0.5717 -0.3163
 6026TIP3   OH239568   4.016   1.854   0.288  0.0533  0.4744  0.2130
 6026TIP3    H139569   4.001   1.781   0.228  0.4618  1.6845 -1.4001
 6026TIP3    H239570   4.094   1.829   0.337 -1.0025 -1.0844  1.1267
 6027TIP3   OH239571   2.894   2.002  11.504 -0.1697  0.1461 -0.1242
 6027TIP3    H139572   2.903   1.953  11.421 -0.6527  0.4073 -0.3282
 6027TIP3    H239573   2.883   1.934  11.570  0.7574 -0.0903 -0.2006
 6028TIP3   OH239574   2.745   1.023   3.719 -0.7827  0.1070  0.4669
 6028TIP3    H139575   2.710   1.067   3.642  0.4692  1.4394  0.6219
 6028TIP3    H239576   2.798   1.090   3.763 -0.3826 -1.0168  1.7539
 6029TIP3   OH239577   6.067   6.800   4.777  0.1495 -0.3796  0.0543
 6029TIP3    H139578   6.145   6.763   4.819  0.7137 -0.9461 -1.4508
 6029TIP3    H239579   6.059   6.750   4.695 -1.0667  0.5316 -0.3832
 6030TIP3   OH239580   4.529   0.123  15.530  0.5269  0.4238  0.4362
 6030TIP3    H139581   4.557   0.204  15.487 -0.7666  0.7673  0.2165
 6030TIP3    H239582   4.434   0.132  15.540 -0.0224 -2.1111 -1.8142
 6031TIP3   OH239583   4.244   5.966  16.521  0.0768  0.7059  0.6214
 6031TIP3    H139584   4.326   6.007  16.495 -0.5272  1.6098  0.1338
 6031TIP3    H239585   4.196   6.035  16.567 -0.2767  0.0864  1.2016
 6032TIP3   OH239586   0.821   5.576  11.572  0.1230 -0.4084  0.3975
 6032TIP3    H139587   0.851   5.648  11.627 -0.1409 -0.9975  1.3374
 6032TIP3    H239588   0.736   5.603  11.540  0.6210  0.2723 -0.3625
 6033TIP3   OH239589   5.649   1.372  11.614 -0.0222  0.0580  0.0123
 6033TIP3    H139590   5.705   1.295  11.604 -0.6920 -0.3830 -0.4320
 6033TIP3    H239591   5.599   1.376  11.533  1.3956  2.1053 -0.7921
 6034TIP3   OH239592   1.170   2.738   4.599 -0.4150  0.1308  0.7202
 6034TIP3    H139593   1.221   2.717   4.677 -2.1019 -1.1517  1.5144
 6034TIP3    H239594   1.187   2.831   4.584  1.4756 -0.0708  1.4347
 6035TIP3   OH239595   3.905   6.723   1.722 -0.0037 -0.6770  0.4654
 6035TIP3    H139596   3.868   6.640   1.690  1.5430 -1.0203 -0.4486
 6035TIP3    H239597   3.995   6.701   1.747  1.7070  1.5373 -3.4136
 6036TIP3   OH239598   1.588   0.262   1.220 -0.1651 -0.0214 -0.2052
 6036TIP3    H139599   1.681   0.255   1.241  0.0795  1.2544 -0.8025
 6036TIP3    H239600   1.551   0.314   1.292 -0.5945 -1.2563  0.4869
 6037TIP3   OH239601   6.348   3.524   1.028  0.1606 -0.1188 -0.2406
 6037TIP3    H139602   6.354   3.618   1.008  1.2723  0.1740  1.3736
 6037TIP3    H239603   6.317   3.522   1.118 -0.1479 -1.3246 -0.3730
 6038TIP3   OH239604   4.911   3.739  10.748 -0.5222  0.2010  0.1578
 6038TIP3    H139605   4.975   3.749  10.818 -0.9831  1.2870  0.4378
 6038TIP3    H239606   4.942   3.664  10.697  0.7641  0.4983  0.5025
 6039TIP3   OH239607   5.665   0.792   2.379 -0.1524  0.3004  0.4282
 6039TIP3    H139608   5.738   0.853   2.371 -0.9568  1.0888 -1.0242
 6039TIP3    H239609   5.616   0.803   2.298 -0.3807 -2.1813  0.1961
 6040TIP3   OH239610   5.582   2.807  16.930  1.0601  0.8137 -0.4594
 6040TIP3    H139611   5.666   2.825  16.888  0.3438  2.3990 -1.2357
 6040TIP3    H239612   5.605   2.779  17.019  2.4195  1.0095 -0.7472
 6041TIP3   OH239613   4.290   2.981   4.991 -0.0693  0.5016  0.3454
 6041TIP3    H139614   4.201   2.948   4.990  0.4435 -0.8828 -1.0809
 6041TIP3    H239615   4.327   2.954   4.907  1.1098  2.6693  0.1339
 6042TIP3   OH239616   2.162   2.511  13.785  0.1254 -0.3311  0.5007
 6042TIP3    H139617   2.131   2.547  13.702 -0.0007 -1.4496  0.0542
 6042TIP3    H239618   2.101   2.545  13.850  0.2842  0.6336  0.1425
 6043TIP3   OH239619   2.122   2.895  13.398 -0.1736  0.1906 -0.3102
 6043TIP3    H139620   2.166   2.947  13.465 -0.5765  0.6550 -0.4054
 6043TIP3    H239621   2.189   2.880  13.331 -0.2191  1.1006 -0.5704
 6044TIP3   OH239622   5.777   4.476  13.209  0.5176 -0.1712  0.1042
 6044TIP3    H139623   5.864   4.478  13.168  0.5679 -0.4401  0.1983
 6044TIP3    H239624   5.792   4.433  13.294  0.4265  0.4418  0.4322
 6045TIP3   OH239625   2.745   5.965   4.810 -0.2039 -0.1942  0.1249
 6045TIP3    H139626   2.685   5.891   4.811 -0.6623  0.1834  1.7816
 6045TIP3    H239627   2.697   6.035   4.766 -0.4066 -0.3557  0.0903
 6046TIP3   OH239628   4.073   5.897   5.229 -0.5545 -0.4328  0.1909
 6046TIP3    H139629   4.027   5.980   5.214 -0.6852 -0.8715 -1.8641
 6046TIP3    H239630   4.065   5.849   5.147 -1.7910 -3.1467  1.8411
 6047TIP3   OH239631   0.134   4.961   6.465 -0.3117  0.5764  1.0350
 6047TIP3    H139632   0.127   4.950   6.560  2.2667 -1.6797  1.0262
 6047TIP3    H239633   0.137   4.872   6.430  0.8606  1.3555 -0.9563
 6048TIP3   OH239634   3.511   0.907  15.216 -0.4038  0.3881  0.5319
 6048TIP3    H139635   3.465   0.972  15.163 -0.2734  1.2138  1.4241
 6048TIP3    H239636   3.464   0.825  15.199  0.8265  0.2088 -2.3892
 6049TIP3   OH239637   1.090   4.899  12.167  0.6534 -0.1634 -1.0528
 6049TIP3    H139638   1.179   4.865  12.182 -0.0797 -1.6146  0.1710
 6049TIP3    H239639   1.044   4.827  12.123 -0.9642 -0.9173  1.7147
 6050TIP3   OH239640   2.790   2.883   4.732 -0.5698  0.2799 -0.2835
 6050TIP3    H139641   2.734   2.937   4.787 -0.1955  0.2279  0.1466
 6050TIP3    H239642   2.742   2.801   4.721  0.2955 -0.5092  1.7024
 6051TIP3   OH239643   0.812   5.035  16.677 -0.5728  0.0174 -0.3423
 6051TIP3    H139644   0.900   5.071  16.662 -0.9663 -0.2217 -3.8022
 6051TIP3    H239645   0.827   4.944  16.700  0.1149  0.1949 -0.0824
 6052TIP3   OH239646   2.718   1.520  16.653  0.3991  0.2567  0.1432
 6052TIP3    H139647   2.721   1.434  16.611  0.3029  0.2811  0.0837
 6052TIP3    H239648   2.798   1.525  16.705  0.6836  0.3622 -0.3026
 6053TIP3   OH239649   4.060   2.245   2.912 -0.2143 -0.2219 -0.2037
 6053TIP3    H139650   3.988   2.278   2.857  0.1561 -0.7734 -1.0209
 6053TIP3    H239651   4.020   2.173   2.962 -0.1165 -0.8026 -0.9659
 6054TIP3   OH239652   3.583   6.178   0.382  0.0059 -0.1203  0.6523
 6054TIP3    H139653   3.667   6.133   0.387  0.6228  0.8915 -0.3624
 6054TIP3    H239654   3.605   6.268   0.356 -1.4015  0.0745  0.0842
 6055TIP3   OH239655   2.874   0.972  13.116  0.2783  0.1576  0.0369
 6055TIP3    H139656   2.852   0.950  13.207 -0.7872 -0.4954 -0.3648
 6055TIP3    H239657   2.930   1.049  13.123 -0.3527  0.5298  1.2231
 6056TIP3   OH239658   6.743   6.731   4.143  0.1315  0.1327 -0.1954
 6056TIP3    H139659   6.761   6.738   4.049  0.8457  1.6395  0.0420
 6056TIP3    H239660   6.807   6.668   4.175 -1.5884 -2.1449 -1.0968
 6057TIP3   OH239661   3.942   1.351   5.511 -0.3422 -0.1942 -0.3462
 6057TIP3    H139662   3.980   1.388   5.591  0.5682 -0.7925 -0.4933
 6057TIP3    H239663   3.986   1.398   5.441 -0.1795 -0.5944 -0.5129
 6058TIP3   OH239664   0.086   1.188  14.550 -0.0707 -0.4642 -0.4075
 6058TIP3    H139665   0.181   1.175  14.550 -0.0421 -0.5243  2.4870
 6058TIP3    H239666   0.075   1.283  14.541  0.1764 -0.6472 -2.9419
 6059TIP3   OH239667   3.592   0.238  16.477 -0.1182  0.5947  0.6112
 6059TIP3    H139668   3.518   0.182  16.502  0.8429 -0.3904  1.2854
 6059TIP3    H239669   3.611   0.289  16.556  0.2084  0.5410  0.5632
 6060TIP3   OH239670   6.665   5.305   1.675 -0.0424 -0.0998  0.4396
 6060TIP3    H139671   6.625   5.302   1.588 -0.5429  0.4897  0.6412
 6060TIP3    H239672   6.640   5.222   1.716 -1.7443  0.5901  0.8480
 6061TIP3   OH239673   1.955   1.159  16.821 -0.6536  0.5669  0.1145
 6061TIP3    H139674   1.978   1.156  16.728  0.1478  1.8027  0.2635
 6061TIP3    H239675   1.896   1.084  16.833 -0.8089  0.4237 -1.3884
 6062TIP3   OH239676   5.217   4.321   1.284 -0.2714  0.2796 -0.0861
 6062TIP3    H139677   5.238   4.334   1.191 -0.0726 -1.4997 -0.3167
 6062TIP3    H239678   5.134   4.274   1.284  0.4705 -1.0851  0.5695
 6063TIP3   OH239679   1.095   1.794  11.769  0.1342 -0.0356  0.4391
 6063TIP3    H139680   1.098   1.787  11.673  1.3468 -1.6793  0.5527
 6063TIP3    H239681   1.006   1.823  11.789 -0.9634 -2.1482 -1.0908
 6064TIP3   OH239682   0.745   3.887  10.865 -0.1889  0.0409  0.1232
 6064TIP3    H139683   0.759   3.848  10.951  0.9240  1.2199  0.4946
 6064TIP3    H239684   0.651   3.904  10.861 -0.5088 -1.5575  0.4228
 6065TIP3   OH239685   2.459   3.452  13.600 -0.5748 -0.8184  0.2947
 6065TIP3    H139686   2.551   3.425  13.606 -0.0634  0.4776 -1.2628
 6065TIP3    H239687   2.463   3.545  13.575 -2.3052 -1.0198 -0.8198
 6066TIP3   OH239688   1.110   3.972   2.344 -0.2113 -0.8677 -0.0009
 6066TIP3    H139689   1.053   4.002   2.414 -0.3979 -0.3647 -0.3717
 6066TIP3    H239690   1.088   3.879   2.333 -0.6280 -0.7872  0.1676
 6067TIP3   OH239691   3.179   2.053   5.979 -0.6101 -0.4392  0.2829
 6067TIP3    H139692   3.232   2.003   6.041 -0.6228 -0.1135  0.5557
 6067TIP3    H239693   3.122   2.107   6.034  0.2491  0.7865 -0.0114
 6068TIP3   OH239694   2.986   6.620   1.508  0.3517  0.5565 -0.3469
 6068TIP3    H139695   3.018   6.710   1.508  1.8653  0.0445  1.5509
 6068TIP3    H239696   3.066   6.567   1.500 -0.2563 -0.6771  1.7319
 6069TIP3   OH239697   0.067   4.954   1.895  0.3537  0.2882 -0.7975
 6069TIP3    H139698   0.158   4.978   1.879  0.1277  0.6885 -1.5232
 6069TIP3    H239699   0.066   4.859   1.888  0.9380  0.1827  0.4058
 6070TIP3   OH239700   4.911   2.795  15.194  0.5407 -0.8517  0.0873
 6070TIP3    H139701   4.950   2.708  15.184 -0.3755 -0.9467 -3.3168
 6070TIP3    H239702   4.817   2.777  15.207  0.5234 -0.3961  0.5893
 6071TIP3   OH239703   6.178   0.086  15.786  0.0616 -0.1393 -0.6789
 6071TIP3    H139704   6.120   0.087  15.710 -0.6190 -1.8464 -0.2120
 6071TIP3    H239705   6.121   0.059  15.859  1.3519 -1.5703 -0.1594
 6072TIP3   OH239706   5.514   6.467   3.941  0.5363 -0.3334 -0.0563
 6072TIP3    H139707   5.423   6.493   3.956  0.3518  1.0100 -3.0167
 6072TIP3    H239708   5.549   6.536   3.885  2.9173 -1.6601 -0.2540
 6073TIP3   OH239709   5.905   5.708   4.524  0.8493  0.4422 -0.2445
 6073TIP3    H139710   5.977   5.644   4.517 -0.8112 -1.6710  1.2013
 6073TIP3    H239711   5.887   5.733   4.434  1.5452 -1.1513 -0.8539
 6074TIP3   OH239712   3.296   1.801   4.820 -0.2790  0.3559  0.1781
 6074TIP3    H139713   3.274   1.861   4.748  0.3798 -0.5043 -0.7487
 6074TIP3    H239714   3.326   1.858   4.890 -0.1886  1.1629 -0.5031
 6075TIP3   OH239715   1.671   0.487   3.348  0.0836  0.2488 -0.5480
 6075TIP3    H139716   1.759   0.456   3.326  0.1808  0.9585 -1.1677
 6075TIP3    H239717   1.645   0.540   3.273 -0.8780  0.0389 -0.3685
 6076TIP3   OH239718   5.773   3.801   5.175  0.3987  0.1587 -0.0119
 6076TIP3    H139719   5.679   3.786   5.164  0.1662  1.4369  0.1756
 6076TIP3    H239720   5.792   3.769   5.264  0.0304  0.3930  0.1529
 6077TIP3   OH239721   5.131   0.784  15.469 -0.6177  0.0960 -0.1345
 6077TIP3    H139722   5.080   0.865  15.477  0.0787  0.6977 -1.5792
 6077TIP3    H239723   5.222   0.813  15.472 -0.3490 -0.8290  1.0505
 6078TIP3   OH239724   5.764   6.158   2.465 -0.9645 -0.7618 -0.3191
 6078TIP3    H139725   5.802   6.101   2.398 -0.2481 -0.3707 -0.2501
 6078TIP3    H239726   5.779   6.111   2.547  1.8696  0.6422  0.0268
 6079TIP3   OH239727   3.347   3.081  15.363 -0.4101  0.0760  0.5665
 6079TIP3    H139728   3.422   3.039  15.406 -1.5309 -1.5552  0.9741
 6079TIP3    H239729   3.270   3.042  15.405 -1.5007  0.4667 -1.0246
 6080TIP3   OH239730   3.522   0.757   0.949  0.7588  0.1764  0.0062
 6080TIP3    H139731   3.573   0.811   1.010  0.2710 -0.0076  0.5681
 6080TIP3    H239732   3.588   0.701   0.907  1.0763  0.2040  0.4585
 6081TIP3   OH239733   5.908   3.512   3.193  0.1168  0.0369 -0.9542
 6081TIP3    H139734   5.882   3.604   3.185 -2.1125 -0.4395  0.2432
 6081TIP3    H239735   5.909   3.496   3.288  1.7061 -0.8429 -1.1071
 6082TIP3   OH239736   5.037   4.749  12.387  0.2149 -0.3472  0.1264
 6082TIP3    H139737   5.018   4.704  12.305 -0.3574  0.0281  0.0573
 6082TIP3    H239738   5.089   4.826  12.362 -2.4653  1.4097 -0.1978
 6083TIP3   OH239739   3.879   5.527   0.145 -0.5504 -0.2427 -0.0733
 6083TIP3    H139740   3.971   5.501   0.139 -0.1810  1.1355 -0.7489
 6083TIP3    H239741   3.830   5.445   0.139  0.6404 -1.0009  0.4170
 6084TIP3   OH239742   1.179   4.212   3.568 -0.7263 -0.4556 -0.4293
 6084TIP3    H139743   1.150   4.132   3.524  0.1139 -0.7985 -0.3735
 6084TIP3    H239744   1.146   4.283   3.513 -0.5227 -0.8603 -1.0746
 6085TIP3   OH239745   2.807   4.945  13.631 -0.9260 -0.2536 -0.0875
 6085TIP3    H139746   2.807   5.039  13.649  0.8674 -0.5390  1.6030
 6085TIP3    H239747   2.890   4.930  13.586 -1.8884 -0.8080 -1.6990
 6086TIP3   OH239748   0.513   2.357   2.313 -0.8852  0.5651 -0.6260
 6086TIP3    H139749   0.606   2.354   2.337 -0.9751  0.2085 -0.3203
 6086TIP3    H239750   0.510   2.414   2.237 -0.5428  1.3513 -0.0538
 6087TIP3   OH239751   4.760   1.043  11.114 -0.1615 -0.0509  0.2708
 6087TIP3    H139752   4.798   1.128  11.090 -0.7747 -0.1287 -0.9966
 6087TIP3    H239753   4.760   1.044  11.210 -0.5718  1.5737  0.2775
 6088TIP3   OH239754   1.619   3.094  13.063 -0.3218  0.2955  0.0024
 6088TIP3    H139755   1.695   3.141  13.099 -0.1332  0.4866 -0.6459
 6088TIP3    H239756   1.605   3.133  12.977  0.1648 -1.2226 -0.7672
 6089TIP3   OH239757   6.660   2.768  14.561  0.9692  0.6375 -0.3688
 6089TIP3    H139758   6.727   2.781  14.628  0.1655  1.2355  0.3393
 6089TIP3    H239759   6.681   2.683  14.522  1.9473  0.6757  0.0565
 6090TIP3   OH239760   4.625   0.740   1.193  0.1849 -0.3116 -0.4410
 6090TIP3    H139761   4.643   0.649   1.219  0.7716 -0.3276 -0.8975
 6090TIP3    H239762   4.611   0.735   1.098  0.7184  0.1574 -0.5408
 6091TIP3   OH239763   1.228   6.646  10.812  0.0501 -0.8527  0.4932
 6091TIP3    H139764   1.223   6.740  10.833  0.1620 -0.6363 -0.4383
 6091TIP3    H239765   1.321   6.625  10.823  0.2204 -0.5907 -0.3990
 6092TIP3   OH239766   6.292   2.882   3.717 -0.2434 -0.7672  0.2563
 6092TIP3    H139767   6.332   2.968   3.729  0.6110 -1.2952  1.2943
 6092TIP3    H239768   6.284   2.872   3.622 -1.1542  0.8177  0.1563
 6093TIP3   OH239769   5.194   3.406   5.785  0.3202  0.6415  0.3732
 6093TIP3    H139770   5.183   3.386   5.692  1.8281 -1.2517  0.5495
 6093TIP3    H239771   5.287   3.429   5.794  0.4364 -0.2291  1.5603
 6094TIP3   OH239772   4.474   5.554   6.455 -0.6679  0.1230  0.7578
 6094TIP3    H139773   4.466   5.473   6.405 -1.2116 -1.1092  2.8041
 6094TIP3    H239774   4.407   5.611   6.417 -0.6147 -0.5457 -0.3736
 6095TIP3   OH239775   5.234   2.725  15.415 -0.2832 -0.8898  0.4638
 6095TIP3    H139776   5.198   2.803  15.373  0.6481 -0.3069  0.7218
 6095TIP3    H239777   5.196   2.725  15.503 -2.5548 -2.3335 -0.4699
 6096TIP3   OH239778   4.236   6.270  11.746 -0.2083  0.2121 -0.0752
 6096TIP3    H139779   4.188   6.344  11.710 -1.4009 -0.1490  0.7514
 6096TIP3    H239780   4.173   6.199  11.748  0.4602 -0.3718  0.6749
 6097TIP3   OH239781   0.667   4.917   0.557 -0.0876 -0.1910  0.3385
 6097TIP3    H139782   0.616   4.961   0.626 -0.9979 -0.0510 -0.4108
 6097TIP3    H239783   0.735   4.869   0.605 -0.6284  0.0073  1.3326
 6098TIP3   OH239784   0.623   0.358  13.127 -0.2705  0.2966 -0.2987
 6098TIP3    H139785   0.685   0.329  13.060  0.3930 -1.2026  0.9129
 6098TIP3    H239786   0.645   0.305  13.204 -3.3285 -0.6135  0.0411
 6099TIP3   OH239787   2.898   2.835   1.540 -0.9105 -0.1976 -0.4414
 6099TIP3    H139788   2.840   2.778   1.489  1.3044 -1.5829 -1.5051
 6099TIP3    H239789   2.985   2.815   1.507  0.2505  1.3296  1.6165
 6100TIP3   OH239790   2.229   3.966  15.267 -0.0625 -0.0737  0.6112
 6100TIP3    H139791   2.257   4.055  15.291  0.9525 -0.1807 -0.1743
 6100TIP3    H239792   2.191   3.975  15.180 -1.7727 -0.0804  1.3202
 6101TIP3   OH239793   0.666   2.861  10.853 -0.3149 -0.0121 -0.3104
 6101TIP3    H139794   0.685   2.767  10.845  0.5097  0.1445 -0.1613
 6101TIP3    H239795   0.613   2.867  10.933  0.0271 -0.2902 -0.0610
 6102TIP3   OH239796   3.738   3.226  15.218  0.5629  0.6532  0.7327
 6102TIP3    H139797   3.693   3.303  15.252 -0.7991  0.5162 -0.7209
 6102TIP3    H239798   3.789   3.258  15.144 -2.0948 -0.2301 -1.5796
 6103TIP3   OH239799   3.425   5.082  12.722  0.6913 -0.3953 -0.2973
 6103TIP3    H139800   3.430   5.111  12.631  0.5871  0.7185  0.0517
 6103TIP3    H239801   3.365   5.144  12.764  0.4949 -1.0869  0.4625
 6104TIP3   OH239802   2.871   0.529  11.826 -0.0401  0.4531  0.0751
 6104TIP3    H139803   2.867   0.624  11.810 -0.8118  0.1694 -1.5171
 6104TIP3    H239804   2.864   0.520  11.921  1.8645  2.0849  0.4109
 6105TIP3   OH239805   6.615   0.317  16.331 -0.1247 -0.3294  0.2032
 6105TIP3    H139806   6.667   0.238  16.345  1.1392  0.6869  1.4391
 6105TIP3    H239807   6.561   0.325  16.410 -0.8368 -0.3879 -0.2734
 6106TIP3   OH239808   2.943   4.765  11.334  0.3778  0.1085  0.2527
 6106TIP3    H139809   2.870   4.822  11.310  1.1964  0.3080 -1.8252
 6106TIP3    H239810   3.009   4.825  11.371  0.5342  0.2708 -0.2907
 6107TIP3   OH239811   3.363   3.886  13.907  0.1615 -0.1678  0.4420
 6107TIP3    H139812   3.378   3.829  13.832  2.6933  1.4010 -0.2826
 6107TIP3    H239813   3.268   3.900  13.907  0.3260  1.5157 -3.7511
 6108TIP3   OH239814   6.783   6.067   6.066 -0.0446 -0.0927  0.4328
 6108TIP3    H139815   6.772   5.989   6.122  1.8453 -0.2522  0.6359
 6108TIP3    H239816   6.851   6.042   6.004 -1.2041  0.5541 -1.1349
 6109TIP3   OH239817   5.592   6.452  11.149 -0.5234  0.4937  0.1483
 6109TIP3    H139818   5.508   6.447  11.103 -2.2007 -0.9962  3.2141
 6109TIP3    H239819   5.597   6.542  11.180 -0.0991  1.0867 -1.5932
 6110TIP3   OH239820   4.880   2.348   4.331 -0.4496 -0.0896 -0.5530
 6110TIP3    H139821   4.815   2.277   4.334  1.0794 -1.4647  1.4385
 6110TIP3    H239822   4.938   2.324   4.258  0.0254 -0.8705  0.0728
 6111TIP3   OH239823   4.722   3.237   4.093 -0.1091  0.0084  0.4136
 6111TIP3    H139824   4.669   3.282   4.027 -0.0012  0.5294  0.6790
 6111TIP3    H239825   4.697   3.145   4.085 -1.7696  0.3783  1.1995
 6112TIP3   OH239826   1.196   4.852  14.172 -0.1986 -0.0646  0.1317
 6112TIP3    H139827   1.226   4.889  14.255  0.5557 -0.1300 -0.1038
 6112TIP3    H239828   1.107   4.821  14.189 -0.6520  1.3814  0.4754
 6113TIP3   OH239829   1.069   6.492   2.494 -0.0842 -0.1076 -0.0137
 6113TIP3    H139830   1.076   6.559   2.562  3.7362  1.9248 -2.2782
 6113TIP3    H239831   1.109   6.415   2.532  0.5050  0.5185  0.6540
 6114TIP3   OH239832   4.315   0.828   3.741  0.6333 -0.0630 -0.4818
 6114TIP3    H139833   4.289   0.920   3.748  1.0584  0.0979 -0.9183
 6114TIP3    H239834   4.409   0.832   3.721  0.6754 -0.5950 -0.3845
 6115TIP3   OH239835   1.797   3.253   3.677  0.1538 -0.3505 -0.4390
 6115TIP3    H139836   1.880   3.248   3.630  0.4517  3.0759 -0.3913
 6115TIP3    H239837   1.822   3.261   3.769 -0.2341  0.2056 -0.3797
 6116TIP3   OH239838   5.761   5.686   4.290  0.2371 -0.4812 -0.0602
 6116TIP3    H139839   5.769   5.591   4.282 -0.7051 -0.6167  0.4644
 6116TIP3    H239840   5.709   5.713   4.214 -2.0950 -0.7886  1.3740
 6117TIP3   OH239841   1.960   5.402   4.045 -0.1940  0.3258 -0.1376
 6117TIP3    H139842   1.905   5.376   3.971 -1.9345  0.1622  1.1839
 6117TIP3    H239843   1.966   5.323   4.099 -0.8037  1.0561  1.0204
 6118TIP3   OH239844   3.269   3.790   1.487  0.1816  0.1652 -0.1862
 6118TIP3    H139845   3.286   3.726   1.556  0.0655  0.0722 -0.2429
 6118TIP3    H239846   3.338   3.775   1.423  1.3906  1.4952  0.7809
 6119TIP3   OH239847   4.061   1.422   2.192 -0.3382 -0.4661 -0.3200
 6119TIP3    H139848   4.149   1.384   2.195 -0.3807 -0.5276  0.2595
 6119TIP3    H239849   4.060   1.484   2.265 -0.6037 -0.0943 -0.6453
 6120TIP3   OH239850   3.714   1.028  11.960 -0.1465 -0.2555  0.1436
 6120TIP3    H139851   3.645   0.962  11.962 -1.8684  1.4975 -0.4418
 6120TIP3    H239852   3.668   1.112  11.961  2.0283  0.9687  1.8515
 6121TIP3   OH239853   3.296   4.992   3.813  0.0142  0.5887 -0.3940
 6121TIP3    H139854   3.344   5.073   3.798 -1.3429  0.9310 -3.0999
 6121TIP3    H239855   3.355   4.923   3.783  1.8344  0.3399  3.4037
 6122TIP3   OH239856   2.330   0.124   6.606 -0.5471  0.0391 -0.6415
 6122TIP3    H139857   2.378   0.120   6.523 -1.7633  0.4260 -1.3688
 6122TIP3    H239858   2.264   0.056   6.599  1.0449 -1.7910  1.1354
 6123TIP3   OH239859   6.045   0.310  10.523  0.3026 -0.3640  0.0812
 6123TIP3    H139860   6.069   0.382  10.464  1.0563  0.0849  0.9249
 6123TIP3    H239861   5.954   0.290  10.500 -0.3064  1.6603  0.6213
 6124TIP3   OH239862   2.645   3.567   0.826  0.1964  0.7951  0.1597
 6124TIP3    H139863   2.590   3.639   0.859 -0.1938 -0.0060  1.2683
 6124TIP3    H239864   2.595   3.529   0.754 -0.6550  0.1400  1.0961
 6125TIP3   OH239865   5.414   2.592  16.200  0.3253  0.6664 -0.4954
 6125TIP3    H139866   5.330   2.632  16.224  0.4396  1.3585 -1.2420
 6125TIP3    H239867   5.391   2.507  16.164  0.0416  0.2613  0.6098
 6126TIP3   OH239868   4.407   5.418  15.064  0.2471 -0.4157 -0.0912
 6126TIP3    H139869   4.326   5.399  15.112 -0.5240  1.8465 -0.4428
 6126TIP3    H239870   4.475   5.371  15.112 -1.3736 -2.9257 -0.2032
 6127TIP3   OH239871   0.965   1.592  16.789  0.1288  0.2308  0.3888
 6127TIP3    H139872   0.994   1.668  16.840  1.8664  1.4820 -2.3269
 6127TIP3    H239873   0.887   1.623  16.744  2.3393  1.4054 -2.8233
 6128TIP3   OH239874   6.003   4.998  16.038  0.9149  0.2997  0.2727
 6128TIP3    H139875   5.999   4.905  16.059  2.8025 -0.2579 -1.6094
 6128TIP3    H239876   5.976   5.043  16.118  1.4801 -1.8299  1.6803
 6129TIP3   OH239877   4.877   1.388  11.327 -0.1774  0.4297 -0.6821
 6129TIP3    H139878   4.812   1.453  11.300  0.9564  1.7211 -0.3614
 6129TIP3    H239879   4.825   1.315  11.359 -1.4839  1.5856 -0.0814
 6130TIP3   OH239880   4.524   2.867  13.872  0.0310  0.0236 -0.3235
 6130TIP3    H139881   4.501   2.791  13.925  0.6480 -0.5621 -0.9006
 6130TIP3    H239882   4.440   2.900  13.840 -0.2989  0.0321  0.5192
 6131TIP3   OH239883   6.208   0.445   4.022  0.1164 -0.1696  0.0736
 6131TIP3    H139884   6.241   0.362   4.055 -1.3557  0.2340  2.6636
 6131TIP3    H239885   6.257   0.512   4.071 -0.1760  0.4700 -0.4936
 6132TIP3   OH239886   4.728   6.247  15.933 -0.4520 -0.3072 -0.0234
 6132TIP3    H139887   4.685   6.333  15.938 -0.1877 -0.1376 -0.6553
 6132TIP3    H239888   4.758   6.240  15.843  0.1651 -0.7605  0.2153
 6133TIP3   OH239889   2.385   4.342  13.298 -0.1727 -0.3456 -0.1043
 6133TIP3    H139890   2.429   4.414  13.252 -0.5491 -0.2601 -0.3315
 6133TIP3    H239891   2.429   4.263  13.268 -0.2522 -0.2689 -0.4247
 6134TIP3   OH239892   0.349   1.175  14.591  0.0964 -0.2135 -0.0308
 6134TIP3    H139893   0.402   1.126  14.528 -1.2226 -2.8685  0.8374
 6134TIP3    H239894   0.412   1.231  14.637  1.6841 -1.1834 -0.9921
 6135TIP3   OH239895   3.923   1.270   4.890 -0.4578  0.0383  0.6787
 6135TIP3    H139896   3.968   1.236   4.813  0.1625  0.0049  1.0579
 6135TIP3    H239897   3.906   1.192   4.944 -1.3876 -0.0171  0.3289
 6136TIP3   OH239898   2.156   4.757  14.669  0.4188  0.3728  0.3942
 6136TIP3    H139899   2.068   4.723  14.688  0.2066  1.6880  1.8228
 6136TIP3    H239900   2.175   4.724  14.581 -0.4871 -1.9882  1.0291
 6137TIP3   OH239901   6.413   2.959  12.922 -0.3013 -0.3240 -0.1122
 6137TIP3    H139902   6.333   2.911  12.942 -1.0337  0.9214 -0.0151
 6137TIP3    H239903   6.384   3.031  12.865  0.5187  1.0172  1.1423
 6138TIP3   OH239904   5.676   4.857  16.305  0.6105  0.0938  0.8237
 6138TIP3    H139905   5.612   4.790  16.282 -0.6359  1.4289  0.3100
 6138TIP3    H239906   5.758   4.810  16.316 -0.3393 -1.5683  0.9092
 6139TIP3   OH239907   2.951   2.863  16.505  0.5202  0.1498 -0.2070
 6139TIP3    H139908   3.029   2.884  16.453  0.3635 -2.1698 -1.4335
 6139TIP3    H239909   2.887   2.930  16.480  1.5202  0.9918 -0.5512
 6140TIP3   OH239910   4.160   2.768  13.548  0.3452 -0.0310  0.4871
 6140TIP3    H139911   4.175   2.803  13.460 -0.4650  0.8415  0.6874
 6140TIP3    H239912   4.201   2.681  13.546  2.7656  1.0570  0.1100
 6141TIP3   OH239913   5.843   5.823  16.800 -0.0659  0.0564  0.3045
 6141TIP3    H139914   5.916   5.885  16.803 -1.1223  1.3190  0.3895
 6141TIP3    H239915   5.883   5.737  16.814  1.5887  0.5871 -1.0575
 6142TIP3   OH239916   0.644   1.487   6.058 -0.2256  0.4261 -0.1326
 6142TIP3    H139917   0.601   1.559   6.104 -0.1329 -0.4024  1.3075
 6142TIP3    H239918   0.615   1.408   6.104  0.6235 -0.3614 -0.9112
 6143TIP3   OH239919   5.248   0.958   6.658 -0.3700 -0.3968  0.0323
 6143TIP3    H139920   5.259   0.889   6.592  0.1474  0.7125 -1.0711
 6143TIP3    H239921   5.154   0.963   6.672 -0.5456 -0.1919 -1.1418
 6144TIP3   OH239922   1.486   3.227  11.262  0.1228 -0.0747  0.1941
 6144TIP3    H139923   1.397   3.221  11.229  0.2199 -1.5131  0.1684
 6144TIP3    H239924   1.493   3.316  11.298 -0.1040  1.3718 -3.2143
 6145TIP3   OH239925   2.510   1.014  12.744 -0.0821 -0.1832  0.4565
 6145TIP3    H139926   2.594   1.058  12.756  2.0076 -3.4981 -1.3671
 6145TIP3    H239927   2.504   0.953  12.817 -0.6874 -0.3108  0.3036
 6146TIP3   OH239928   6.584   6.622   5.011 -0.0712 -0.0812 -0.5494
 6146TIP3    H139929   6.604   6.633   4.918  0.1700  0.1765 -0.4663
 6146TIP3    H239930   6.627   6.540   5.035  0.1591  0.0299 -0.5796
 6147TIP3   OH239931   0.257   6.333  12.027  0.0261  0.0138  0.3515
 6147TIP3    H139932   0.311   6.264  11.987  0.4170 -0.6439  1.9581
 6147TIP3    H239933   0.168   6.311  12.001  0.4007  0.4285 -1.3460
 6148TIP3   OH239934   3.272   0.359   1.471  0.4410  0.1936  0.1064
 6148TIP3    H139935   3.256   0.294   1.538  1.5003 -1.3822 -1.1223
 6148TIP3    H239936   3.191   0.362   1.420  0.6291 -0.6659 -0.2454
 6149TIP3   OH239937   3.447   2.862  14.098  0.1185 -0.0077  0.6461
 6149TIP3    H139938   3.421   2.770  14.103 -0.0920  0.0111 -0.0630
 6149TIP3    H239939   3.365   2.909  14.086 -0.0105  0.4672  3.0787
 6150TIP3   OH239940   4.677   6.531   1.966 -0.4674 -0.5603 -0.1104
 6150TIP3    H139941   4.713   6.561   2.050  1.2660 -1.5886 -0.4683
 6150TIP3    H239942   4.753   6.515   1.911 -1.5188 -1.7445 -1.2589
 6151TIP3   OH239943   2.122   5.024  13.392 -0.2664 -0.0903 -0.0158
 6151TIP3    H139944   2.052   4.960  13.376 -0.3190  0.4311 -2.0262
 6151TIP3    H239945   2.189   4.974  13.438 -1.2020 -1.0555  0.3310
 6152TIP3   OH239946   4.899   1.913   3.437  0.3511 -0.6207  0.1860
 6152TIP3    H139947   4.894   1.996   3.390  1.7231  0.0740  1.2287
 6152TIP3    H239948   4.929   1.849   3.372  0.1776 -0.1240 -0.3858
 6153TIP3   OH239949   2.570   2.350   0.815  0.5333  0.1065  0.2622
 6153TIP3    H139950   2.517   2.275   0.788 -0.3657  0.8776 -0.1750
 6153TIP3    H239951   2.535   2.423   0.763  1.1829  0.8852  0.9096
 6154TIP3   OH239952   1.860   0.182   0.860  0.1323  0.8371  0.3491
 6154TIP3    H139953   1.887   0.161   0.949  0.3599 -1.3830 -0.2122
 6154TIP3    H239954   1.775   0.225   0.871 -0.5025 -0.6361  1.5995
 6155TIP3   OH239955   0.885   4.838  11.483 -0.3567 -0.3050 -0.8833
 6155TIP3    H139956   0.852   4.921  11.517  0.6558  0.2381 -1.1905
 6155TIP3    H239957   0.980   4.843  11.496 -0.2151 -1.1147 -1.5420
 6156TIP3   OH239958   2.628   4.603   6.883  0.4081 -0.0419  1.1267
 6156TIP3    H139959   2.697   4.663   6.855 -0.7216  1.4458  1.4359
 6156TIP3    H239960   2.557   4.660   6.912 -1.6710 -1.4842 -0.9138
 6157TIP3   OH239961   0.688   0.856   2.666  0.1469  0.2878 -0.1959
 6157TIP3    H139962   0.652   0.927   2.719 -1.9513  0.4949 -1.8521
 6157TIP3    H239963   0.612   0.803   2.641  1.5099 -1.7228 -0.2043
 6158TIP3   OH239964   3.824   4.614  13.002  0.0839 -0.1307 -0.3014
 6158TIP3    H139965   3.896   4.627  13.064  0.8786 -1.2082 -0.9692
 6158TIP3    H239966   3.751   4.663  13.040  0.9555  0.3946  0.7575
 6159TIP3   OH239967   4.123   1.871   5.515  0.0317  0.2056  0.6809
 6159TIP3    H139968   4.073   1.952   5.517  0.0215  0.2510 -0.8128
 6159TIP3    H239969   4.206   1.893   5.558 -0.1289  0.8971  0.6362
 6160TIP3   OH239970   2.132   1.388  13.740  0.0789  0.4657  0.0108
 6160TIP3    H139971   2.091   1.387  13.653  1.4198  1.6842 -0.6607
 6160TIP3    H239972   2.073   1.440  13.794 -0.8931 -0.5133 -0.0976
 6161TIP3   OH239973   2.761   3.080  10.759  0.0726  0.2924 -0.0640
 6161TIP3    H139974   2.752   3.174  10.748  1.0307  0.4020  0.0252
 6161TIP3    H239975   2.829   3.055  10.696 -1.2790 -0.5860 -1.2025
 6162TIP3   OH239976   2.515   6.553   2.666 -0.7946 -0.1426 -0.0718
 6162TIP3    H139977   2.424   6.534   2.692 -0.4465 -2.1413 -0.2201
 6162TIP3    H239978   2.506   6.617   2.596 -1.9953  1.1888  1.2561
 6163TIP3   OH239979   4.985   5.822   0.988  0.0271 -1.0030  0.2040
 6163TIP3    H139980   5.005   5.850   1.077 -1.4171 -2.0484  0.8789
 6163TIP3    H239981   4.999   5.727   0.989  0.6504 -0.9349 -0.8769
 6164TIP3   OH239982   2.004   1.353  14.090  0.1112  0.0092  0.2501
 6164TIP3    H139983   2.097   1.354  14.068  0.3038  1.1354  1.0685
 6164TIP3    H239984   2.000   1.316  14.178 -0.2280 -0.0667  0.2051
 6165TIP3   OH239985   0.584   0.275   0.318  0.1373 -0.7433 -0.0710
 6165TIP3    H139986   0.502   0.229   0.300 -0.2825  0.3227 -0.9317
 6165TIP3    H239987   0.647   0.237   0.256 -0.1605 -0.2990 -0.6501
 6166TIP3   OH239988   4.415   1.165  15.945 -0.6232  0.1077  0.0064
 6166TIP3    H139989   4.426   1.074  15.919 -1.0231  0.0138  0.1628
 6166TIP3    H239990   4.324   1.172  15.973 -1.2164  1.0754 -2.0806
 6167TIP3   OH239991   3.896   2.129   1.603  0.1905 -0.4202 -0.1791
 6167TIP3    H139992   3.875   2.140   1.510 -0.9397 -1.2798 -0.0350
 6167TIP3    H239993   3.972   2.185   1.617 -0.8530  1.2987 -1.1796
 6168TIP3   OH239994   6.707   2.523  16.470 -0.0519 -0.0635 -0.3286
 6168TIP3    H139995   6.695   2.566  16.554  2.3986 -0.6240  0.3332
 6168TIP3    H239996   6.721   2.595  16.408  0.2656  0.2631  0.1170
 6169TIP3   OH239997   4.745   5.086  12.898  0.0619 -0.2538  0.1729
 6169TIP3    H139998   4.836   5.095  12.868 -0.0283  1.7756  0.4040
 6169TIP3    H239999   4.739   5.144  12.974 -1.5041 -0.1108 -0.0359
 6170TIP3   OH240000   2.955   4.184   4.249 -0.8542  0.2857 -0.9500
 6170TIP3    H140001   2.997   4.137   4.321 -2.4133  0.9624  0.4277
 6170TIP3    H240002   2.936   4.115   4.185  0.7903 -0.2811 -0.8621
 6171TIP3   OH240003   6.681   1.658  11.619 -0.2469 -0.0840  0.2667
 6171TIP3    H140004   6.671   1.663  11.714  0.5432 -0.7136  0.3847
 6171TIP3    H240005   6.696   1.748  11.592 -1.2787  0.2119  0.6441
 6172TIP3   OH240006   2.575   6.736   0.056  0.1411  0.0583  0.0900
 6172TIP3    H140007   2.486   6.757   0.028  0.7418  0.6270 -1.4442
 6172TIP3    H240008   2.565   6.707   0.147 -1.4419  1.3265  0.3463
 6173TIP3   OH240009   3.820   5.484   3.981  0.1647 -0.5249 -0.1745
 6173TIP3    H140010   3.754   5.546   4.012 -1.0873 -1.7388 -0.2982
 6173TIP3    H240011   3.897   5.501   4.034 -0.4054  0.6348  0.2855
 6174TIP3   OH240012   6.598   4.777   5.011 -0.3405 -0.6130  0.3640
 6174TIP3    H140013   6.639   4.772   5.097 -1.6840  0.7324  1.1077
 6174TIP3    H240014   6.672   4.787   4.950  0.5124  0.8595  1.5924
 6175TIP3   OH240015   1.736   2.144   2.137 -0.1310  0.6118 -0.5612
 6175TIP3    H140016   1.696   2.221   2.097  0.9448  1.2630 -0.4198
 6175TIP3    H240017   1.690   2.134   2.220 -1.9301 -0.3663 -1.6627
 6176TIP3   OH240018   5.513   0.845   3.240 -0.1713  0.1314 -0.2099
 6176TIP3    H140019   5.575   0.796   3.295  1.0063  2.1096  0.2955
 6176TIP3    H240020   5.461   0.896   3.302 -1.4729 -0.5341 -0.7229
 6177TIP3   OH240021   6.356   6.437   4.538  0.1500  0.3753  0.4450
 6177TIP3    H140022   6.277   6.429   4.592  0.1794 -1.6459  0.2453
 6177TIP3    H240023   6.329   6.402   4.453  1.0876  0.2396  0.2024
 6178TIP3   OH240024   4.840   1.287   3.121 -0.3156  0.1783  0.0221
 6178TIP3    H140025   4.784   1.363   3.105 -1.2480 -0.5502 -0.2268
 6178TIP3    H240026   4.811   1.254   3.206 -0.8356 -0.6849 -0.4855
 6179TIP3   OH240027   2.314   1.293   5.419  0.1226  0.3944  0.3194
 6179TIP3    H140028   2.235   1.288   5.474 -0.0867  0.4727  0.0232
 6179TIP3    H240029   2.298   1.231   5.349 -0.7900  2.2740 -1.1835
 6180TIP3   OH240030   1.344   1.496   6.432 -0.0205  0.0646  0.1526
 6180TIP3    H140031   1.426   1.450   6.415 -0.2657 -0.6777  0.9043
 6180TIP3    H240032   1.308   1.452   6.510 -1.3642  0.0480 -0.4602
 6181TIP3   OH240033   6.505   0.114  14.683 -0.2109 -0.8539  0.1834
 6181TIP3    H140034   6.571   0.173  14.647  0.2205 -0.7763  1.0994
 6181TIP3    H240035   6.458   0.081  14.606  0.1903 -0.0825 -0.4002
 6182TIP3   OH240036   3.890   5.576   2.223 -0.1431  0.3793 -0.4563
 6182TIP3    H140037   3.949   5.641   2.261  0.0302 -0.5526  0.9094
 6182TIP3    H240038   3.805   5.620   2.219 -0.4595  0.1102  2.2126
 6183TIP3   OH240039   6.590   5.756   3.096  0.4039 -0.3829  0.0089
 6183TIP3    H140040   6.664   5.696   3.088 -0.9458 -1.8390 -1.9879
 6183TIP3    H240041   6.622   5.838   3.058  1.7066 -0.2686  1.2585
 6184TIP3   OH240042   3.463   5.828   2.504 -0.2921  0.7262  0.0198
 6184TIP3    H140043   3.378   5.787   2.491  0.1190  0.3687 -1.6166
 6184TIP3    H240044   3.478   5.823   2.599 -1.0811 -1.2513  0.0604
 6185TIP3   OH240045   2.258   2.836   3.811  0.0382  0.7280 -0.2462
 6185TIP3    H140046   2.200   2.901   3.850  0.1445  0.0769  1.0367
 6185TIP3    H240047   2.213   2.808   3.731 -1.0669  0.7480  0.3617
 6186TIP3   OH240048   0.012   3.515   0.889 -0.0602 -0.5209 -0.0064
 6186TIP3    H140049  -0.049   3.506   0.962  0.8320  1.5145  1.0382
 6186TIP3    H240050   0.051   3.602   0.901  0.2776 -0.2523 -2.7798
 6187TIP3   OH240051   0.607   0.658   3.384  0.8184 -0.2511 -0.0092
 6187TIP3    H140052   0.701   0.650   3.366  0.7933 -1.4829  0.3217
 6187TIP3    H240053   0.567   0.668   3.298  1.1694 -0.7867 -0.2391
 6188TIP3   OH240054   5.799   5.546  16.551  0.2116 -0.0739 -0.4281
 6188TIP3    H140055   5.866   5.478  16.550  0.4765  0.1842 -0.5217
 6188TIP3    H240056   5.831   5.613  16.491 -0.0229  0.1535 -0.3058
 6189TIP3   OH240057   4.273   3.833   3.898 -0.2819  0.0721  0.0001
 6189TIP3    H140058   4.277   3.881   3.981 -1.1123  1.9127 -0.9996
 6189TIP3    H240059   4.346   3.867   3.847  1.0850 -2.0457  0.4279
 6190TIP3   OH240060   0.734   5.319   3.210 -0.2428  0.1149 -0.0792
 6190TIP3    H140061   0.681   5.326   3.130 -1.5021 -0.0700  0.7311
 6190TIP3    H240062   0.785   5.400   3.211  0.8107 -0.4997 -1.7869
 6191TIP3   OH240063   2.087   6.422   4.427  0.1864  0.2377  0.0711
 6191TIP3    H140064   2.123   6.344   4.386  0.3523  0.5364 -0.3553
 6191TIP3    H240065   1.994   6.419   4.406 -0.1891 -0.9303  1.8090
 6192TIP3   OH240066   5.099   2.190   1.781  0.2504 -0.4331 -0.2018
 6192TIP3    H140067   5.094   2.160   1.691  1.1935 -0.2228 -0.3383
 6192TIP3    H240068   5.023   2.151   1.824  0.1024 -0.9901 -0.9534
 6193TIP3   OH240069   3.229   2.032  12.918 -0.4373  0.4178  0.3645
 6193TIP3    H140070   3.254   2.041  12.826 -3.8417  1.4887 -0.5530
 6193TIP3    H240071   3.289   2.090  12.965  1.5445 -0.3747 -1.1277
 6194TIP3   OH240072   3.788   4.628  14.669 -0.0335  0.8936 -0.2887
 6194TIP3    H140073   3.708   4.578  14.655 -0.8558  2.1221 -0.0603
 6194TIP3    H240074   3.771   4.712  14.628  1.8554  0.5368 -1.8781
 6195TIP3   OH240075   4.982   2.058   2.158  0.6098 -0.2090  0.5158
 6195TIP3    H140076   5.042   1.983   2.148 -0.4925 -1.0964  0.4081
 6195TIP3    H240077   4.987   2.081   2.250  1.2242 -0.1994  0.4792
 6196TIP3   OH240078   2.372   0.061  11.732 -0.1474  0.0348 -0.1410
 6196TIP3    H140079   2.391   0.006  11.656 -0.2471 -2.0386  1.2878
 6196TIP3    H240080   2.277   0.067  11.735 -0.2068 -1.1416  0.6632
 6197TIP3   OH240081   5.503   5.355   0.282  0.3969  0.4915 -0.3886
 6197TIP3    H140082   5.422   5.406   0.277 -0.2904 -0.5615 -0.2569
 6197TIP3    H240083   5.556   5.401   0.347 -0.5369  0.6023  0.3116
 6198TIP3   OH240084   1.386   3.978   4.423  0.2589  0.3059  0.5706
 6198TIP3    H140085   1.376   3.895   4.470  1.0632 -0.1104  0.0221
 6198TIP3    H240086   1.395   3.952   4.331  1.3389  0.9465  0.4934
 6199TIP3   OH240087   2.336   3.890  16.366  0.1310  0.3324 -0.0573
 6199TIP3    H140088   2.254   3.923  16.404  0.7872  0.7716  0.9916
 6199TIP3    H240089   2.353   3.947  16.292  0.1527  1.0387  0.4905
 6200TIP3   OH240090   0.222   5.493   3.087 -0.0149 -0.8587  0.8976
 6200TIP3    H140091   0.305   5.519   3.127  0.1375  1.3235 -0.7638
 6200TIP3    H240092   0.178   5.440   3.155  2.0986 -0.8575  2.2995
 6201TIP3   OH240093   4.025   0.087   1.385  0.1260 -0.0766 -0.2129
 6201TIP3    H140094   4.097   0.075   1.323  0.4535 -0.1808  0.1796
 6201TIP3    H240095   3.964   0.016   1.366 -0.3317  0.5620 -1.1765
 6202TIP3   OH240096   4.138   3.738   3.693  0.3360 -0.1693  0.1920
 6202TIP3    H140097   4.191   3.743   3.773 -0.4268  0.2110  0.6808
 6202TIP3    H240098   4.106   3.827   3.681 -0.6052 -0.5092  0.1781
 6203TIP3   OH240099   4.288   5.625   0.770 -0.2003 -0.4970 -0.6298
 6203TIP3    H140100   4.259   5.602   0.683 -1.3945  1.0297 -0.6544
 6203TIP3    H240101   4.367   5.678   0.756 -0.3627 -0.2967 -0.7762
 6204TIP3   OH240102   1.614   5.785  15.038 -0.7325  0.1322  0.0501
 6204TIP3    H140103   1.693   5.827  15.071 -0.4777  1.1132 -1.7438
 6204TIP3    H240104   1.638   5.693  15.027 -1.3124 -0.5801  4.0811
 6205TIP3   OH240105   4.105   2.762  14.302  0.1840  0.1395  0.6646
 6205TIP3    H140106   4.167   2.769  14.374  2.1108 -2.8327 -0.6417
 6205TIP3    H240107   4.151   2.800  14.227 -0.3962 -0.1877  0.1368
 6206TIP3   OH240108   5.594   5.344  13.312  0.0490 -0.2867 -0.0581
 6206TIP3    H140109   5.639   5.265  13.285  0.0437  0.1445 -1.3773
 6206TIP3    H240110   5.531   5.315  13.378 -0.0982 -1.4056 -0.6823
 6207TIP3   OH240111   5.549   2.165  15.603 -0.5257  0.0181 -0.0889
 6207TIP3    H140112   5.504   2.229  15.547 -0.3654 -0.5478 -0.8694
 6207TIP3    H240113   5.502   2.083  15.588  0.4892 -0.4790 -0.5787
 6208TIP3   OH240114   4.647   4.980  15.162 -0.0550  0.6757 -0.2085
 6208TIP3    H140115   4.620   4.918  15.093  0.6558 -2.1384  1.9535
 6208TIP3    H240116   4.733   5.010  15.134  0.2029 -0.4034 -0.6198
 6209TIP3   OH240117   5.389   2.981   4.978 -0.5699 -0.8529  0.0148
 6209TIP3    H140118   5.443   3.050   4.939  0.4370 -1.9059 -0.4841
 6209TIP3    H240119   5.422   2.971   5.067 -0.3644 -1.0559 -0.0838
 6210TIP3   OH240120   0.235   4.514   2.939 -0.2295  0.6860  0.6062
 6210TIP3    H140121   0.324   4.480   2.943 -0.6983 -0.4265  2.1937
 6210TIP3    H240122   0.242   4.604   2.971  0.3744  0.7054  0.4198
 6211TIP3   OH240123   0.433   1.057  15.843 -0.5809 -0.3282 -0.1537
 6211TIP3    H140124   0.341   1.070  15.822 -0.1118  3.0787 -0.3480
 6211TIP3    H240125   0.470   1.017  15.764 -1.2655  1.3460 -1.3611
 6212TIP3   OH240126   3.350   2.690  17.236 -0.9526  0.2248 -1.1096
 6212TIP3    H140127   3.269   2.640  17.250 -1.9378  1.5514 -2.0382
 6212TIP3    H240128   3.353   2.752  17.308 -1.0799  0.5851 -1.4130
 6213TIP3   OH240129   5.396   5.876  15.336 -0.0720  0.2780  0.5957
 6213TIP3    H140130   5.373   5.792  15.373 -1.0203  0.2065 -0.1550
 6213TIP3    H240131   5.491   5.883  15.350  0.1000 -1.1349  0.2000
 6214TIP3   OH240132   5.600   3.931   2.611  0.1770 -0.0812 -0.1243
 6214TIP3    H140133   5.680   3.976   2.584 -0.1403  0.9908  0.6936
 6214TIP3    H240134   5.551   3.997   2.660 -1.2056 -0.7372 -0.6098
 6215TIP3   OH240135   4.635   5.640  13.713 -0.1000  0.1511 -0.5294
 6215TIP3    H140136   4.655   5.732  13.733  0.3553  0.4228 -2.1738
 6215TIP3    H240137   4.645   5.634  13.618  1.4135 -1.9728 -0.2672
 6216TIP3   OH240138   4.384   2.960  12.459  0.2107  0.4627  0.5841
 6216TIP3    H140139   4.362   2.876  12.500 -0.1092  0.6869  0.8853
 6216TIP3    H240140   4.476   2.975  12.480  1.3089 -1.5340 -2.5246
 6217TIP3   OH240141   2.941   5.353   1.464 -0.1951  0.2045 -0.2002
 6217TIP3    H140142   3.029   5.377   1.436 -0.1586  0.2249 -0.0698
 6217TIP3    H240143   2.918   5.419   1.531  0.4595 -0.9494  1.1836
 6218TIP3   OH240144   1.253   5.928  12.637  0.2802  0.6941 -0.0842
 6218TIP3    H140145   1.348   5.931  12.648  0.2905  0.2763 -0.0394
 6218TIP3    H240146   1.236   5.983  12.561  0.3460  2.4294  1.1393
 6219TIP3   OH240147   2.520   5.051   3.836 -0.1467  0.4700  0.2870
 6219TIP3    H140148   2.440   5.002   3.814  0.3702 -0.8004  1.2198
 6219TIP3    H240149   2.589   4.985   3.837  0.9986  1.6331 -0.9054
 6220TIP3   OH240150   0.927   1.790  12.900 -0.4325  0.2062  0.3791
 6220TIP3    H140151   0.908   1.712  12.953  1.6565 -0.3953  0.2563
 6220TIP3    H240152   0.934   1.861  12.964  0.4482 -0.2188  0.7551
 6221TIP3   OH240153   3.158   5.843  14.901  0.2644 -0.6138  0.0019
 6221TIP3    H140154   3.155   5.785  14.825 -1.7805 -0.2681 -0.2286
 6221TIP3    H240155   3.174   5.930  14.864  0.0577 -0.5637  0.0270
 6222TIP3   OH240156   4.320   6.770  16.855 -0.3181 -0.6241 -0.0607
 6222TIP3    H140157   4.242   6.797  16.807 -1.0094 -2.0175  0.2609
 6222TIP3    H240158   4.325   6.675  16.842  2.2110 -0.3673 -1.4255
 6223TIP3   OH240159   6.744   5.567  14.497 -0.3229 -0.0867 -0.7757
 6223TIP3    H140160   6.714   5.606  14.415 -1.4980  0.6089 -0.0357
 6223TIP3    H240161   6.663   5.535  14.538  0.0716  0.9535  0.8182
 6224TIP3   OH240162   5.977   4.079  14.975 -0.2074 -0.3090  0.1063
 6224TIP3    H140163   6.012   4.085  15.064 -1.6332  0.0189  0.6559
 6224TIP3    H240164   6.032   4.138  14.923 -0.5364  0.9281  1.1414
 6225TIP3   OH240165   6.509   6.010  10.330  0.6560 -0.4861 -0.2692
 6225TIP3    H140166   6.519   5.940  10.395  1.8670 -1.0867 -1.0893
 6225TIP3    H240167   6.589   6.006  10.277  0.6163  1.3283 -0.5223
 6226TIP3   OH240168   5.629   3.691  17.253 -0.2215 -0.5803 -0.5843
 6226TIP3    H140169   5.581   3.720  17.176  1.2613  1.5869 -0.7500
 6226TIP3    H240170   5.658   3.602  17.232  1.7056  0.6121 -3.3345
 6227TIP3   OH240171   2.645   1.462  13.074  0.0078  0.8219 -0.4020
 6227TIP3    H140172   2.603   1.548  13.071 -1.2242  0.2315 -0.4834
 6227TIP3    H240173   2.735   1.480  13.100 -0.0393  2.2047 -1.1295
 6228TIP3   OH240174   0.003   4.783   4.831  0.2829  0.1373  0.5538
 6228TIP3    H140175   0.059   4.860   4.839  0.2038  0.0072  2.5234
 6228TIP3    H240176  -0.040   4.794   4.746  0.3252  2.2251  0.7776
 6229TIP3   OH240177   3.837   4.462  14.175  0.1122  0.6171  0.4238
 6229TIP3    H140178   3.817   4.375  14.208 -0.2866  1.5841  2.8119
 6229TIP3    H240179   3.772   4.478  14.106  0.0164 -0.8295  0.1686
 6230TIP3   OH240180   1.431   4.417   4.171  0.0683 -0.2353 -0.3439
 6230TIP3    H140181   1.498   4.354   4.145  0.0727  1.1795 -4.0680
 6230TIP3    H240182   1.469   4.502   4.152 -1.1439  0.8076  1.7015
 6231TIP3   OH240183   0.605   2.581  11.280 -0.4392  0.0434  0.0830
 6231TIP3    H140184   0.553   2.657  11.306 -1.1079 -0.3607 -0.0612
 6231TIP3    H240185   0.694   2.616  11.268 -0.3666  0.4627  1.7277
 6232TIP3   OH240186   4.529   1.974  12.753  0.5726  0.2258 -0.1261
 6232TIP3    H140187   4.609   1.966  12.700 -0.2941 -0.2648 -1.3728
 6232TIP3    H240188   4.497   1.885  12.762 -0.6752  0.5861 -0.9341
 6233TIP3   OH240189   2.129   0.926   2.611 -0.6160  0.1747 -0.4520
 6233TIP3    H140190   2.052   0.927   2.669 -1.2463 -0.2754 -1.2641
 6233TIP3    H240191   2.094   0.950   2.525  0.1456 -0.0969 -0.8378
 6234TIP3   OH240192   3.040   5.636  11.805  0.0108 -1.3008  0.1102
 6234TIP3    H140193   3.048   5.723  11.766  1.2911 -1.0905  0.8278
 6234TIP3    H240194   3.117   5.588  11.775  0.2355 -1.6172  1.1803
 6235TIP3   OH240195   2.632   4.878  11.955 -0.1262  0.6095  0.5282
 6235TIP3    H140196   2.694   4.817  11.996  1.0935  0.1505 -1.8858
 6235TIP3    H240197   2.688   4.939  11.907 -1.5247  0.3515 -1.4835
 6236TIP3   OH240198   1.247   5.227  13.111 -0.3000 -0.5395 -0.9651
 6236TIP3    H140199   1.170   5.172  13.122  0.4152 -1.2642  0.5932
 6236TIP3    H240200   1.321   5.169  13.131  0.4856  0.9046  0.5006
 6237TIP3   OH240201   5.568   4.299   0.094 -0.6755  0.0929 -0.2832
 6237TIP3    H140202   5.572   4.205   0.108 -2.9339  0.3658  2.7454
 6237TIP3    H240203   5.511   4.332   0.165  2.5242  4.0920  0.6522
 6238TIP3   OH240204   2.119   0.722  16.900 -0.2778 -0.2735  0.6099
 6238TIP3    H140205   2.144   0.693  16.813 -2.2073 -1.0258  0.2863
 6238TIP3    H240206   2.173   0.800  16.916  2.1239 -1.7361 -0.0849
 6239TIP3   OH240207   1.894   3.879   4.068 -0.2081  0.2456 -0.2398
 6239TIP3    H140208   1.910   3.958   4.016  0.4503  0.7316  0.6844
 6239TIP3    H240209   1.967   3.821   4.045 -0.2478  0.2243 -0.3120
 6240TIP3   OH240210   1.714   3.667   2.173  0.2877 -0.1953  0.0428
 6240TIP3    H140211   1.675   3.636   2.092 -0.4086 -0.2955  0.4128
 6240TIP3    H240212   1.777   3.600   2.198  0.0459 -0.4657 -0.0809
 6241TIP3   OH240213   2.093   1.145  16.309  0.0525  0.1569  0.0276
 6241TIP3    H140214   2.144   1.089  16.367 -2.1386 -1.5424  0.4219
 6241TIP3    H240215   2.130   1.232  16.319  2.4266 -0.9164  0.7347
 6242TIP3   OH240216   2.857   3.854  13.067  0.3960  0.1881  0.5456
 6242TIP3    H140217   2.807   3.936  13.072  1.4860  0.9399 -0.5088
 6242TIP3    H240218   2.792   3.787  13.045 -0.4716  0.8140  1.1835
 6243TIP3   OH240219   2.762   4.863   0.914  0.0709 -0.6038 -0.0107
 6243TIP3    H140220   2.681   4.911   0.898 -0.5867 -2.1412 -1.4694
 6243TIP3    H240221   2.735   4.790   0.970  0.5196 -0.8917 -0.1707
 6244TIP3   OH240222   5.947   3.494  11.520 -0.4253 -0.1512  0.2614
 6244TIP3    H140223   6.034   3.457  11.539  0.3318  1.4359 -0.0655
 6244TIP3    H240224   5.924   3.542  11.599 -0.1823  0.9899 -0.3626
 6245TIP3   OH240225   1.579   2.689  14.071 -0.3910  0.2734  0.2667
 6245TIP3    H140226   1.557   2.720  14.159 -0.7198  0.0813  0.2541
 6245TIP3    H240227   1.497   2.653  14.037 -0.1152 -0.2154  0.1166
 6246TIP3   OH240228   1.932   3.389   0.602  0.0934  0.1767 -0.2846
 6246TIP3    H140229   1.840   3.411   0.593  0.2406  0.1155 -2.1396
 6246TIP3    H240230   1.979   3.471   0.585  0.4092  0.0163 -0.2059
 6247TIP3   OH240231   4.983   1.039   3.493  0.3511  0.3398 -0.3819
 6247TIP3    H140232   5.032   0.963   3.462  0.1633 -0.1107  0.4142
 6247TIP3    H240233   5.027   1.064   3.574  0.4154  1.0852 -0.6484
 6248TIP3   OH240234   1.167   3.491  11.280  0.0755 -0.1154  0.8793
 6248TIP3    H140235   1.154   3.579  11.315 -0.0506 -0.0212  0.5992
 6248TIP3    H240236   1.079   3.456  11.268  0.0181  0.6549 -1.3320
 6249TIP3   OH240237   6.121   3.623   3.048  0.2208 -0.4387 -0.3692
 6249TIP3    H140238   6.194   3.590   3.100  0.1964 -0.1163 -0.1338
 6249TIP3    H240239   6.044   3.582   3.087  0.0902  0.6745  0.5541
 6250TIP3   OH240240   2.234   4.002  14.991  0.8169 -0.0992 -0.2327
 6250TIP3    H140241   2.227   4.067  14.921  3.0902  0.5447  0.0834
 6250TIP3    H240242   2.240   3.918  14.946 -1.6851 -0.0806 -0.6614
 6251TIP3   OH240243   4.566   2.455   0.150  0.0360  0.2689  0.0142
 6251TIP3    H140244   4.572   2.360   0.141 -1.4543  0.3402 -2.1975
 6251TIP3    H240245   4.603   2.473   0.236  0.8883 -2.2466  0.2307
 6252TIP3   OH240246   2.969   3.203  16.849 -1.0321 -0.0041  0.1861
 6252TIP3    H140247   2.921   3.127  16.814 -0.0961 -0.9774  1.0198
 6252TIP3    H240248   3.034   3.222  16.782  0.8671 -1.9721  1.4264
 6253TIP3   OH240249   1.608   2.001  14.096  0.9785 -0.4089  0.3830
 6253TIP3    H140250   1.664   2.054  14.039  1.4407 -0.5253  0.7300
 6253TIP3    H240251   1.538   2.061  14.122  0.1804 -0.6573 -1.1598
 6254TIP3   OH240252   2.177   4.442  11.670  0.7344  0.8591  0.1028
 6254TIP3    H140253   2.245   4.508  11.657 -0.7795  2.4189 -0.0313
 6254TIP3    H240254   2.153   4.450  11.763  0.9671  0.0793  0.2334
 6255TIP3   OH240255   0.864   3.810  14.294 -0.2907 -0.1718  0.7061
 6255TIP3    H140256   0.913   3.813  14.213  0.2607 -0.9706  0.9977
 6255TIP3    H240257   0.841   3.901  14.312  0.6724  0.1553  0.3225
 6256TIP3   OH240258   2.503   0.396  14.368 -0.3156 -0.3603  0.3278
 6256TIP3    H140259   2.586   0.373  14.327 -0.7658  0.3592 -1.0283
 6256TIP3    H240260   2.448   0.319  14.355  0.1703 -0.8974  1.3623
 6257TIP3   OH240261   5.496   6.666   0.156  0.1768  0.2277  0.1409
 6257TIP3    H140262   5.545   6.745   0.130  0.1516  0.2464  0.1494
 6257TIP3    H240263   5.480   6.677   0.250 -1.3117  1.0308 -0.1887
 6258TIP3   OH240264   0.051   4.256   5.883 -0.6196 -0.5175 -0.2565
 6258TIP3    H140265   0.132   4.206   5.895 -0.8262 -0.8969 -0.4470
 6258TIP3    H240266   0.061   4.297   5.797 -1.1201 -1.4811 -0.7812
 6259TIP3   OH240267   1.857   1.225   0.574  0.0275 -0.2505 -0.4465
 6259TIP3    H140268   1.942   1.182   0.573 -0.4552 -1.2303 -0.3523
 6259TIP3    H240269   1.821   1.204   0.660  0.3906  1.5679  0.1646
 6260TIP3   OH240270   1.315   6.336  12.834 -0.0179 -0.0141 -0.3503
 6260TIP3    H140271   1.363   6.256  12.855  0.8983  0.2337 -1.4651
 6260TIP3    H240272   1.321   6.343  12.739  1.1513  2.1240 -0.1579
 6261TIP3   OH240273   1.742   0.312  12.531  0.1004  0.0437 -0.0953
 6261TIP3    H140274   1.802   0.380  12.498  1.7024 -1.5369 -0.5023
 6261TIP3    H240275   1.699   0.278  12.453  0.1524 -0.2034 -0.0169
 6262TIP3   OH240276   5.405   4.797   4.940  0.1874 -0.1232 -0.2795
 6262TIP3    H140277   5.345   4.756   5.002 -0.8038 -0.8582 -1.7152
 6262TIP3    H240278   5.476   4.734   4.930 -0.7070 -0.9285 -1.5181
 6263TIP3   OH240279   1.601   6.430   0.098  0.3418 -0.0192 -0.4117
 6263TIP3    H140280   1.575   6.476   0.018  2.2424 -1.5428 -1.9671
 6263TIP3    H240281   1.684   6.388   0.076  0.3732 -1.3567  2.0399
 6264TIP3   OH240282   2.982   6.491   3.502 -0.8499  0.0735 -0.1906
 6264TIP3    H140283   2.898   6.476   3.545 -1.2388  0.6747 -0.7250
 6264TIP3    H240284   2.975   6.444   3.418 -0.2746 -0.6998  0.1820
 6265TIP3   OH240285   4.704   6.759   2.676 -0.1173  0.0635  0.6434
 6265TIP3    H140286   4.744   6.846   2.670 -0.6430  0.4400  2.3299
 6265TIP3    H240287   4.610   6.776   2.686 -0.1580 -0.6800  1.5687
 6266TIP3   OH240288   3.174   4.516   3.016  0.3427  0.5617 -0.5613
 6266TIP3    H140289   3.221   4.589   3.056 -1.2012  1.7468 -0.8457
 6266TIP3    H240290   3.219   4.438   3.048  0.6259  1.5505  1.5556
 6267TIP3   OH240291   1.921   5.649  14.409 -0.2188  0.0843  0.7027
 6267TIP3    H140292   1.972   5.575  14.442 -0.5147  0.6185  2.4282
 6267TIP3    H240293   1.970   5.726  14.437  0.4255  0.5623 -1.6376
 6268TIP3   OH240294   3.972   5.127   1.314 -0.2267  0.3358  0.0653
 6268TIP3    H140295   4.025   5.185   1.367 -2.0808  1.0003  1.2475
 6268TIP3    H240296   3.885   5.168   1.312 -0.4133 -0.0410 -2.8772
 6269TIP3   OH240297   0.684   4.304  12.994  0.0171  0.0835  0.8971
 6269TIP3    H140298   0.637   4.222  12.977  2.5012 -1.1766 -0.1796
 6269TIP3    H240299   0.635   4.371  12.946 -1.5311 -0.9154  1.0617
 6270TIP3   OH240300   2.595   6.481   4.529  0.1270  0.1095 -0.0209
 6270TIP3    H140301   2.679   6.525   4.519  0.5391 -0.9018 -1.1642
 6270TIP3    H240302   2.556   6.521   4.606  1.6546  0.6062  0.5185
 6271TIP3   OH240303   4.613   2.636  11.267 -0.3981  0.6103 -0.7083
 6271TIP3    H140304   4.611   2.576  11.193  0.6646 -0.9226  0.4510
 6271TIP3    H240305   4.703   2.630  11.300 -0.8791  1.1686  0.7489
 6272TIP3   OH240306   0.724   4.094   1.016 -0.1805 -0.4582 -0.6498
 6272TIP3    H140307   0.661   4.166   1.024  0.8743  0.6710 -2.1266
 6272TIP3    H240308   0.682   4.033   0.955 -0.7410 -0.7476  0.0081
 6273TIP3   OH240309   1.662   5.168   3.895 -0.2945 -0.3199 -0.1649
 6273TIP3    H140310   1.610   5.240   3.930 -1.3961 -0.3411 -1.6750
 6273TIP3    H240311   1.746   5.207   3.873 -0.5791  0.3150 -0.1312
 6274TIP3   OH240312   0.324   0.392   1.639  0.4423 -0.1310  0.6269
 6274TIP3    H140313   0.363   0.359   1.720 -1.5868  0.6698  1.9746
 6274TIP3    H240314   0.239   0.426   1.666  0.8739  2.7045 -1.3807
 6275TIP3   OH240315   4.407   2.011   1.211  0.3511  0.3946  0.5452
 6275TIP3    H140316   4.488   1.972   1.178 -0.0493 -0.5344  0.6471
 6275TIP3    H240317   4.353   2.025   1.134  0.3269  0.3421  0.5522
 6276TIP3   OH240318   6.170   0.498  12.435 -0.6585  0.1033 -0.1989
 6276TIP3    H140319   6.132   0.585  12.434 -1.3278 -0.1691  0.6104
 6276TIP3    H240320   6.247   0.506  12.491 -1.1759  0.0008  0.5412
 6277TIP3   OH240321   6.104   1.133   2.125 -0.1387  0.5298 -0.0934
 6277TIP3    H140322   6.123   1.139   2.219  0.5518  1.0130 -0.2645
 6277TIP3    H240323   6.046   1.057   2.117  0.0762  0.2849  0.6806
 6278TIP3   OH240324   2.841   2.634   0.861 -0.0307  0.2645 -0.3648
 6278TIP3    H140325   2.835   2.586   0.944  1.3243  1.2623  0.3312
 6278TIP3    H240326   2.796   2.717   0.878  0.6242  0.6513 -0.4751
 6279TIP3   OH240327   6.025   6.204   6.345 -0.2459 -0.0648  0.8202
 6279TIP3    H140328   5.970   6.169   6.275 -0.0752  0.0591  0.6238
 6279TIP3    H240329   6.026   6.135   6.411  0.2373 -0.4999  0.3539
 6280TIP3   OH240330   0.741   3.410   6.263  0.4050 -0.5334  0.3531
 6280TIP3    H140331   0.810   3.367   6.315 -0.8666 -1.5318  1.2338
 6280TIP3    H240332   0.694   3.338   6.222 -0.6362  0.1161  0.4037
 6281TIP3   OH240333   0.361   4.640  15.067 -0.1387  0.0989  0.2035
 6281TIP3    H140334   0.370   4.656  14.973  1.3638  2.3489  0.7039
 6281TIP3    H240335   0.412   4.561  15.083  2.0868  1.3944 -0.3918
 6282TIP3   OH240336   5.888   1.569  16.341 -0.6176  0.3979  0.4017
 6282TIP3    H140337   5.912   1.478  16.356 -0.1503  0.6065  0.9317
 6282TIP3    H240338   5.792   1.570  16.346 -0.6941 -0.2740 -0.7883
 6283TIP3   OH240339   2.255   4.944   4.455  0.1533  0.0859 -0.3474
 6283TIP3    H140340   2.220   4.965   4.369  0.2800  0.4229 -0.3199
 6283TIP3    H240341   2.255   4.848   4.459 -0.3993  0.0814 -0.4924
 6284TIP3   OH240342   6.772   0.059   3.111 -0.3245 -0.0565 -0.1770
 6284TIP3    H140343   6.741   0.049   3.021 -1.6102  2.0094  0.0287
 6284TIP3    H240344   6.715   0.002   3.162 -0.0795 -0.6463 -0.5470
 6285TIP3   OH240345   6.298   0.216   4.457 -0.3385 -0.0918  0.1846
 6285TIP3    H140346   6.372   0.209   4.397 -1.2471  1.1438 -1.1362
 6285TIP3    H240347   6.303   0.138   4.511  2.0112  0.0683  0.2202
 6286TIP3   OH240348   1.648   5.411   0.275 -0.3526  0.4552 -0.2504
 6286TIP3    H140349   1.701   5.372   0.345 -0.2321  0.8176 -0.1402
 6286TIP3    H240350   1.696   5.390   0.195 -1.4184 -1.5393 -0.4077
 6287TIP3   OH240351   1.140   0.556   3.882 -0.0024  0.0965  0.6384
 6287TIP3    H140352   1.222   0.518   3.852 -0.1840  1.0116 -1.0573
 6287TIP3    H240353   1.165   0.639   3.923 -0.1054  0.4774 -0.0718
 6288TIP3   OH240354   2.377   4.168   1.281  0.0600  0.2683  0.3971
 6288TIP3    H140355   2.342   4.079   1.293 -0.2511  0.5195  1.3675
 6288TIP3    H240356   2.385   4.203   1.370  1.3274  0.7779  0.0885
 6289TIP3   OH240357   3.123   3.903   5.386  0.0715  0.1644 -0.3087
 6289TIP3    H140358   3.136   3.838   5.317 -1.1262  0.3802 -0.7528
 6289TIP3    H240359   3.205   3.903   5.435  0.4299 -0.9915 -0.8892
 6290TIP3   OH240360   4.001   4.585  16.962 -0.2504 -0.1980  0.3814
 6290TIP3    H140361   3.963   4.532  16.892 -0.4923 -0.3726  0.6463
 6290TIP3    H240362   3.934   4.651  16.982 -0.3843 -0.4541  0.7903
 6291TIP3   OH240363   2.014   4.140   4.703 -0.0994 -0.7100 -0.0238
 6291TIP3    H140364   2.021   4.220   4.650 -0.1482 -0.5731  0.1763
 6291TIP3    H240365   1.920   4.124   4.710 -0.1010 -0.5804  0.2453
 6292TIP3   OH240366   2.970   6.479   2.071 -0.1092 -0.0607  0.9213
 6292TIP3    H140367   2.921   6.398   2.057 -1.3543  0.8973 -0.2934
 6292TIP3    H240368   2.917   6.547   2.031  1.9189  1.0947  0.1203
 6293TIP3   OH240369   6.140   1.294   0.535 -0.1952 -0.0158 -0.4975
 6293TIP3    H140370   6.184   1.323   0.455 -1.1655 -0.8417 -1.3575
 6293TIP3    H240371   6.159   1.200   0.540 -0.5051 -0.0523 -0.0062
 6294TIP3   OH240372   6.274   0.570  16.776 -0.3371 -0.2661  0.2168
 6294TIP3    H140373   6.246   0.490  16.821  0.2189 -0.2330  0.6231
 6294TIP3    H240374   6.245   0.558  16.685  0.6330 -1.3736  0.0435
 6295TIP3   OH240375   0.214   2.960   0.211 -0.2594 -0.3617 -0.3475
 6295TIP3    H140376   0.194   3.045   0.173 -3.4673 -0.4063  1.1109
 6295TIP3    H240377   0.149   2.901   0.174  0.4393 -1.6737  0.4847
 6296TIP3   OH240378   1.407   0.496  15.896  0.4306  0.2517 -0.4386
 6296TIP3    H140379   1.411   0.578  15.946 -1.7420 -0.0305  0.2645
 6296TIP3    H240380   1.333   0.448  15.935  1.7043 -2.0737 -0.8099
 6297TIP3   OH240381   2.839   1.319   1.716 -0.4011  0.2561 -0.1086
 6297TIP3    H140382   2.889   1.382   1.664 -0.5838 -0.4341 -1.1373
 6297TIP3    H240383   2.822   1.364   1.799  1.9798  0.4879  0.3053
 6298TIP3   OH240384   5.685   4.598  10.913 -0.2070  0.2738  0.1494
 6298TIP3    H140385   5.741   4.550  10.853  0.3225  0.2451  0.6608
 6298TIP3    H240386   5.628   4.650  10.857 -0.1826 -0.2712 -0.3878
 6299TIP3   OH240387   4.239   1.255   1.082 -0.0800 -0.3117 -0.0682
 6299TIP3    H140388   4.322   1.221   1.116 -0.5262 -1.4923 -0.1338
 6299TIP3    H240389   4.183   1.178   1.075 -1.5882  0.6497  1.1463
 6300TIP3   OH240390   0.685   3.340   0.257  0.3558 -0.3051 -0.1119
 6300TIP3    H140391   0.747   3.270   0.235 -0.7997 -1.4701  0.2888
 6300TIP3    H240392   0.610   3.325   0.199 -0.2617  0.0754  0.5818
 6301TIP3   OH240393   5.279   0.233  13.741  0.1215  0.0424 -0.0047
 6301TIP3    H140394   5.248   0.203  13.827  3.2794 -1.4098  0.6950
 6301TIP3    H240395   5.312   0.154  13.699 -0.6251  0.8912 -2.2366
 6302TIP3   OH240396   4.736   0.867   4.137  0.2976  0.3052  0.5608
 6302TIP3    H140397   4.741   0.799   4.069 -1.0790  0.5089  0.2388
 6302TIP3    H240398   4.788   0.939   4.102  0.9111 -0.1906  0.4382
 6303TIP3   OH240399   0.680   1.551   5.760  0.6132  0.2060 -0.3281
 6303TIP3    H140400   0.721   1.512   5.683  0.4511 -2.4901  0.8735
 6303TIP3    H240401   0.751   1.562   5.823  0.4631  0.7743 -0.2584
 6304TIP3   OH240402   2.354   6.744  13.377 -0.1469  0.2450  0.2096
 6304TIP3    H140403   2.297   6.815  13.406 -0.5631 -0.6778  1.6986
 6304TIP3    H240404   2.357   6.684  13.451 -0.5479 -1.7568 -1.3725
 6305TIP3   OH240405   6.614   5.082   4.960 -0.3574  0.7017  0.0310
 6305TIP3    H140406   6.552   5.036   4.903 -0.5279 -0.7622  1.3824
 6305TIP3    H240407   6.573   5.082   5.046  1.5945 -0.5506  1.0137
 6306TIP3   OH240408   5.653   5.747   2.296  0.1179 -0.0332 -0.3501
 6306TIP3    H140409   5.613   5.684   2.356  2.0733  0.0262  1.0739
 6306TIP3    H240410   5.710   5.694   2.240  2.3278  0.4947  1.3265
 6307TIP3   OH240411   0.093   2.578  13.969 -0.4078 -0.2039 -0.2348
 6307TIP3    H140412   0.170   2.580  14.026 -1.8362 -0.7502  1.7499
 6307TIP3    H240413   0.057   2.666  13.975 -0.4100 -0.1858 -0.5154
 6308TIP3   OH240414   4.048   5.666  15.004 -0.4008  0.5615  0.3553
 6308TIP3    H140415   4.033   5.609  14.928  2.2367  0.2554 -0.0076
 6308TIP3    H240416   3.978   5.644  15.065 -3.1130  1.4455 -2.3285
 6309TIP3   OH240417   6.610   3.369   1.715 -0.7411 -0.8515 -0.5056
 6309TIP3    H140418   6.614   3.288   1.664 -0.5118 -1.0728 -0.1432
 6309TIP3    H240419   6.519   3.375   1.743 -0.8519 -0.7647 -0.8818
 6310TIP3   OH240420   4.771   6.542  12.515 -0.3616  0.3439  0.1111
 6310TIP3    H140421   4.746   6.452  12.535 -2.0590  0.9941  0.9516
 6310TIP3    H240422   4.764   6.548  12.419  0.6085 -0.6507 -0.0378
 6311TIP3   OH240423   2.656   1.859   0.153  0.1396 -0.1534  0.0517
 6311TIP3    H140424   2.615   1.927   0.100  0.4920  1.5200  1.9027
 6311TIP3    H240425   2.583   1.813   0.194  0.0037  1.5287  1.7450
 6312TIP3   OH240426   1.708   2.593   0.359  0.1099  0.1476  0.0660
 6312TIP3    H140427   1.767   2.523   0.334  1.0541  0.6697  0.8122
 6312TIP3    H240428   1.761   2.673   0.356 -0.1206  0.4215  2.2590
 6313TIP3   OH240429   5.017   4.776  12.938  0.6753  0.0394 -0.4411
 6313TIP3    H140430   4.958   4.758  13.012  1.8212 -2.0180  0.0119
 6313TIP3    H240431   4.976   4.733  12.863  0.2998  0.8270 -0.6997
 6314TIP3   OH240432   2.540   2.753   0.443 -0.3455  0.2178  0.0928
 6314TIP3    H140433   2.509   2.819   0.381  0.4016 -0.5107 -1.0768
 6314TIP3    H240434   2.599   2.800   0.501  0.7864  0.4450 -1.1996
 6315TIP3   OH240435   1.538   6.540  17.137  0.5126 -0.0330 -0.4354
 6315TIP3    H140436   1.465   6.490  17.100 -0.0288  0.2130  0.2819
 6315TIP3    H240437   1.608   6.531  17.073 -0.0954 -0.4131 -1.0604
 6316TIP3   OH240438   3.553   3.861   2.400 -0.0205  0.0878 -0.4889
 6316TIP3    H140439   3.543   3.877   2.306  0.2388  0.5508 -0.4387
 6316TIP3    H240440   3.640   3.895   2.421  0.8072 -1.9297 -0.5039
 6317TIP3   OH240441   2.837   4.128   1.132  0.3936 -0.0292  0.0398
 6317TIP3    H140442   2.870   4.212   1.098  0.2429  0.7080  1.6722
 6317TIP3    H240443   2.851   4.134   1.226 -1.1292 -1.1820  0.3523
 6318TIP3   OH240444   6.793   6.166   5.217  0.1470 -0.2749 -0.6874
 6318TIP3    H140445   6.710   6.126   5.241 -0.2250 -0.7114 -2.5867
 6318TIP3    H240446   6.787   6.256   5.247 -0.1532 -0.8750  1.0844
 6319TIP3   OH240447   5.243   0.193   1.528 -0.6126 -0.0116 -0.7160
 6319TIP3    H140448   5.225   0.233   1.443  0.4786 -0.8272 -1.3518
 6319TIP3    H240449   5.325   0.234   1.557  0.8528 -2.1443 -1.6564
 6320TIP3   OH240450   2.995   2.035  16.527  0.1875 -0.2206 -0.1782
 6320TIP3    H140451   2.971   2.009  16.438  0.5619 -0.3652 -0.2369
 6320TIP3    H240452   2.955   1.968  16.583 -0.4422  0.1296 -0.2053
 6321TIP3   OH240453   6.732   0.161   3.903 -0.1372 -0.4965  0.1189
 6321TIP3    H140454   6.689   0.191   3.983  0.8332  1.1951  0.0392
 6321TIP3    H240455   6.673   0.186   3.833 -0.3595 -0.7728  0.2061
 6322TIP3   OH240456   5.608   3.139   4.855  0.2959  0.3437 -0.1113
 6322TIP3    H140457   5.663   3.082   4.910  0.1177 -0.2488 -0.5371
 6322TIP3    H240458   5.630   3.113   4.765 -0.8456 -0.0582 -0.2769
 6323TIP3   OH240459   2.222   0.178  17.039 -0.1882  0.1439  0.0491
 6323TIP3    H140460   2.272   0.256  17.061 -0.2372  0.4754 -0.9913
 6323TIP3    H240461   2.150   0.177  17.101  1.0116 -0.2521  1.4634
 6324TIP3   OH240462   5.305   2.098  12.125  0.1969 -0.7316  0.1520
 6324TIP3    H140463   5.359   2.112  12.202  2.8905 -1.6801 -1.4988
 6324TIP3    H240464   5.269   2.010  12.138 -0.8292 -0.1916  1.1361
 6325TIP3   OH240465   2.998   6.455   1.192 -0.2753 -0.8262 -0.2622
 6325TIP3    H140466   3.007   6.379   1.250  0.4400 -1.3328 -1.0201
 6325TIP3    H240467   3.085   6.467   1.154 -0.4929  0.1021 -0.4811
 6326TIP3   OH240468   5.935   4.851   1.029  0.2306 -0.0773  0.2150
 6326TIP3    H140469   5.850   4.834   1.070  0.1811 -1.1216 -0.3130
 6326TIP3    H240470   5.945   4.781   0.965  1.4184  0.1435  0.1555
 6327TIP3   OH240471   2.148   0.090   1.025  0.3729  0.6930 -0.1474
 6327TIP3    H140472   2.211   0.089   0.953 -0.4567 -0.4728 -0.8663
 6327TIP3    H240473   2.183   0.027   1.089 -0.0621  0.0566 -0.5399
 6328TIP3   OH240474   1.539   0.195   2.148  0.1008  0.2900  0.0160
 6328TIP3    H140475   1.465   0.248   2.180  0.4017  0.3995  0.5231
 6328TIP3    H240476   1.550   0.127   2.214 -0.1931 -0.3276 -0.5664
 6329TIP3   OH240477   5.259   5.547   5.356 -0.4259 -0.3678  0.3549
 6329TIP3    H140478   5.280   5.510   5.270 -1.2466  0.0609 -0.0365
 6329TIP3    H240479   5.219   5.475   5.404 -1.5712 -0.1349 -0.2352
 6330TIP3   OH240480   1.088   2.184  15.676 -0.1103 -0.5392  0.0253
 6330TIP3    H140481   1.091   2.237  15.756 -1.4505 -2.3827  1.3237
 6330TIP3    H240482   1.174   2.142  15.672  0.0232 -0.3024  0.3930
 6331TIP3   OH240483   3.703   0.434   1.404  0.2058  0.0147 -0.0567
 6331TIP3    H140484   3.655   0.354   1.382  1.9287 -1.3248  0.9343
 6331TIP3    H240485   3.651   0.504   1.366 -2.4611 -1.3999  0.8647
 6332TIP3   OH240486   6.001   5.356   0.745  0.2415 -0.0718 -0.6884
 6332TIP3    H140487   6.042   5.376   0.661 -1.7052  0.2025 -1.6093
 6332TIP3    H240488   5.938   5.427   0.758  0.9948  0.2642  1.3549
 6333TIP3   OH240489   4.806   3.817   3.375  0.0321 -0.4068 -0.3040
 6333TIP3    H140490   4.722   3.851   3.405 -0.2309 -0.3088 -1.1580
 6333TIP3    H240491   4.814   3.732   3.419 -1.8287 -1.7258 -2.3910
 6334TIP3   OH240492   1.050   1.084   1.548 -0.1352 -0.3149  0.1582
 6334TIP3    H140493   1.052   1.137   1.468 -1.5514  0.6522  0.7445
 6334TIP3    H240494   1.017   0.999   1.521  0.5951 -0.3934 -0.5017
 6335TIP3   OH240495   3.395   1.410  15.932 -0.3161 -0.5437  0.0246
 6335TIP3    H140496   3.415   1.444  16.019  0.1300  1.7315 -0.9359
 6335TIP3    H240497   3.350   1.327  15.948  1.3303 -1.0181  2.3789
 6336TIP3   OH240498   6.371   0.027  13.011 -0.0096  0.4306  0.1871
 6336TIP3    H140499   6.434   0.082  13.056 -1.0560  0.5542  1.5379
 6336TIP3    H240500   6.322   0.088  12.955 -0.2550  0.6574  0.6459
 6337TIP3   OH240501   2.420   0.499   5.586  0.1257  0.0926 -0.4818
 6337TIP3    H140502   2.363   0.547   5.526 -0.5616  1.4224  1.2087
 6337TIP3    H240503   2.449   0.564   5.650  1.2172 -1.1944  0.3695
 6338TIP3   OH240504   1.030   4.275   0.600  0.3723 -0.7492  0.1171
 6338TIP3    H140505   0.935   4.289   0.593  0.3810 -0.4786  0.5420
 6338TIP3    H240506   1.039   4.204   0.663  0.5224  0.2924  1.2686
 6339TIP3   OH240507   1.133   3.626  15.529 -0.7661 -0.0817 -0.0398
 6339TIP3    H140508   1.165   3.716  15.525  0.7510 -0.6403 -0.8921
 6339TIP3    H240509   1.116   3.610  15.622  1.7948  0.1356  0.5008
 6340TIP3   OH240510   3.871   3.936  13.028 -0.5630  0.1506  0.0288
 6340TIP3    H140511   3.821   3.963  13.105 -0.5045 -0.7013  0.3737
 6340TIP3    H240512   3.808   3.890  12.973 -0.5620  0.5992 -0.3454
 6341TIP3   OH240513   3.719   5.736   1.444 -0.6155 -0.5010  0.4863
 6341TIP3    H140514   3.735   5.706   1.534  1.4062 -2.6421 -0.5471
 6341TIP3    H240515   3.804   5.769   1.414 -1.0198 -0.8140 -1.0285
 6342TIP3   OH240516   3.217   6.392  16.137 -0.0087 -0.3060  0.2403
 6342TIP3    H140517   3.164   6.361  16.210  0.5805 -4.6871 -1.0541
 6342TIP3    H240518   3.264   6.468  16.172 -2.6156  0.0508  3.1749
 6343TIP3   OH240519   5.038   0.248  16.176 -0.3583 -0.1430  0.5561
 6343TIP3    H140520   5.058   0.305  16.101  0.3056  0.1044  0.9133
 6343TIP3    H240521   5.073   0.163  16.151 -2.3878 -0.7112 -0.4709
 6344TIP3   OH240522   5.233   1.219   3.152 -0.0521 -0.1095 -0.2174
 6344TIP3    H140523   5.266   1.158   3.086  0.6055  3.3128 -3.1417
 6344TIP3    H240524   5.296   1.213   3.224  0.8854 -1.6022 -1.1345
 6345TIP3   OH240525   4.161   0.160  13.823  0.4707  0.2392 -0.2042
 6345TIP3    H140526   4.223   0.180  13.752  1.2728 -1.3817  0.0157
 6345TIP3    H240527   4.216   0.128  13.894 -0.6666 -1.9570 -0.2654
 6346TIP3   OH240528   0.468   5.046  13.201  0.1914  0.3764  0.2773
 6346TIP3    H140529   0.384   5.089  13.221 -1.3691 -2.1424 -0.5839
 6346TIP3    H240530   0.443   4.960  13.166  3.1857 -0.7747  0.8248
 6347TIP3   OH240531   1.225   3.951   2.095  0.1005 -0.0936  0.2645
 6347TIP3    H140532   1.221   4.042   2.069  3.5767  1.0140  3.2324
 6347TIP3    H240533   1.199   3.951   2.187 -0.4787 -2.2116  0.1356
 6348TIP3   OH240534   4.562   5.455  17.108  0.1546 -0.1045 -0.3707
 6348TIP3    H140535   4.506   5.384  17.079  1.3332 -1.1567 -0.1089
 6348TIP3    H240536   4.513   5.498  17.178 -0.0856 -1.3282  0.2121
 6349TIP3   OH240537   0.639   2.101  17.257  0.0488  0.3284  0.4405
 6349TIP3    H140538   0.733   2.122  17.265 -0.5416  3.0234  0.9558
 6349TIP3    H240539   0.619   2.054  17.338  1.3581 -1.9866 -0.5461
 6350TIP3   OH240540   0.172   6.154  11.501 -0.3912  0.1939  0.3776
 6350TIP3    H140541   0.125   6.078  11.534  1.0962 -0.8577  0.1524
 6350TIP3    H240542   0.142   6.165  11.411 -0.0901 -0.5570  0.1859
 6351TIP3   OH240543   2.010   2.963   2.096 -0.1600  0.0819 -0.3791
 6351TIP3    H140544   1.917   2.972   2.118 -0.2932 -1.9002 -0.0802
 6351TIP3    H240545   2.045   2.903   2.161  0.6881 -1.4942 -2.2373
 6352TIP3   OH240546   2.660   2.521   2.533  0.0962  0.1368 -0.2378
 6352TIP3    H140547   2.711   2.554   2.607  0.6936 -3.0265  0.8281
 6352TIP3    H240548   2.721   2.465   2.485 -0.5764  1.3801 -2.6376
 6353TIP3   OH240549   5.175   3.549  12.055  0.6794 -0.1647 -0.4719
 6353TIP3    H140550   5.103   3.487  12.054 -0.4108  1.0744 -0.3471
 6353TIP3    H240551   5.213   3.543  11.967  0.1147 -0.4597 -0.6973
 6354TIP3   OH240552   5.948   3.864   2.586 -0.8926 -0.2859 -0.1455
 6354TIP3    H140553   5.993   3.835   2.665 -1.1174  0.0989  0.1231
 6354TIP3    H240554   5.911   3.949   2.609  1.9215  1.4276 -1.7319
 6355TIP3   OH240555   3.192   3.790  16.329  0.0395 -0.2326 -0.5470
 6355TIP3    H140556   3.117   3.849  16.340  0.2225 -0.2152  0.6772
 6355TIP3    H240557   3.228   3.813  16.243 -0.1195  1.2107 -0.2534
 6356TIP3   OH240558   6.562   4.614  11.910 -0.0739 -0.2172 -0.0943
 6356TIP3    H140559   6.585   4.522  11.924  1.1188 -0.2216 -1.8827
 6356TIP3    H240560   6.490   4.611  11.848 -3.3173 -0.0861  3.4890
 6357TIP3   OH240561   2.852   2.844  11.809 -0.6939  0.0132 -0.0817
 6357TIP3    H140562   2.853   2.768  11.750  1.0117  0.8846 -1.2183
 6357TIP3    H240563   2.846   2.806  11.897  1.8614 -1.5281 -0.5186
 6358TIP3   OH240564   2.393   3.897  16.992  0.5148 -0.6136  0.1814
 6358TIP3    H140565   2.413   3.846  17.070 -0.1115  0.2531  0.9261
 6358TIP3    H240566   2.412   3.988  17.018  0.8998 -0.3862 -0.8747
 6359TIP3   OH240567   5.371   2.612  17.156 -0.1332 -0.0674 -0.7698
 6359TIP3    H140568   5.328   2.648  17.234 -0.5888 -2.1449 -0.0285
 6359TIP3    H240569   5.464   2.628  17.171 -0.2383 -0.1740  0.0572
 6360TIP3   OH240570   5.838   6.289   3.834  0.1260 -0.2140  0.1619
 6360TIP3    H140571   5.767   6.229   3.813  0.1092  0.5610 -2.2180
 6360TIP3    H240572   5.802   6.348   3.900 -0.4773 -1.6005  1.0853
 6361TIP3   OH240573   5.242   2.384   0.729 -0.4453  0.2327  0.6132
 6361TIP3    H140574   5.209   2.331   0.656  0.0496  1.1905 -0.3337
 6361TIP3    H240575   5.253   2.323   0.801  3.2928 -1.6278 -1.4034
 6362TIP3   OH240576   4.141   5.336  14.133  0.6155  0.9572  0.2759
 6362TIP3    H140577   4.201   5.280  14.082  0.0393  1.2266 -0.7098
 6362TIP3    H240578   4.190   5.357  14.213  3.0937  3.7497 -1.8704
 6363TIP3   OH240579   4.653   4.735   4.810 -0.0411  0.9366  0.2260
 6363TIP3    H140580   4.571   4.752   4.854 -0.5847 -0.3756 -0.2437
 6363TIP3    H240581   4.628   4.699   4.724  1.0042  0.8718 -0.0663
 6364TIP3   OH240582   0.706   2.146   2.978  0.5180 -0.3296 -0.4460
 6364TIP3    H140583   0.762   2.092   2.922 -1.0460 -0.4588 -1.9597
 6364TIP3    H240584   0.626   2.159   2.925 -0.3916  0.8011  1.1764
 6365TIP3   OH240585   3.365   1.847   1.129  0.4741 -0.0975  0.0797
 6365TIP3    H140586   3.303   1.899   1.079  0.2967  0.0039  0.4057
 6365TIP3    H240587   3.330   1.846   1.218  0.1752 -1.2260 -0.0348
 6366TIP3   OH240588   5.335   3.012   2.301 -0.2227  0.2876 -0.7790
 6366TIP3    H140589   5.350   2.998   2.208 -1.1762  0.2173 -0.9255
 6366TIP3    H240590   5.324   2.924   2.337 -2.7355  0.4259 -1.1078
 6367TIP3   OH240591   4.892   6.609  13.616  0.2476 -0.0562 -0.2944
 6367TIP3    H140592   4.865   6.575  13.701 -0.2115 -0.4405 -0.5948
 6367TIP3    H240593   4.971   6.560  13.594  0.8135  0.5895  0.2689
 6368TIP3   OH240594   0.347   2.291   0.178  0.7147  0.2365  0.2117
 6368TIP3    H140595   0.368   2.232   0.105  0.8183  0.1193  0.3375
 6368TIP3    H240596   0.376   2.377   0.147 -0.8011  0.4780 -0.5730
 6369TIP3   OH240597   3.995   1.167   2.045 -0.6489  0.3334  0.2918
 6369TIP3    H140598   3.977   1.146   1.953 -0.2575  1.1209  0.0328
 6369TIP3    H240599   4.050   1.245   2.041 -1.7536  1.1827  1.2149
 6370TIP3   OH240600   5.840   2.277  10.972  0.1811  0.2287  0.1907
 6370TIP3    H140601   5.897   2.309  11.042 -1.1165  1.9572  0.4916
 6370TIP3    H240602   5.814   2.189  11.001  2.7977 -0.6655 -0.0415
 6371TIP3   OH240603   2.401   5.491  14.170  0.6441 -0.0822 -0.3893
 6371TIP3    H140604   2.406   5.404  14.131 -0.4223 -0.3229  0.0119
 6371TIP3    H240605   2.424   5.478  14.262  0.6947  0.0927 -0.3755
 6372TIP3   OH240606   4.031   4.128  12.905  0.0487  0.4798  0.4914
 6372TIP3    H140607   3.943   4.094  12.916 -0.4273  1.8392  1.0124
 6372TIP3    H240608   4.055   4.163  12.991  1.5848 -0.9803  0.6807
 6373TIP3   OH240609   2.719   6.293  11.010  0.8206 -0.7171  0.2913
 6373TIP3    H140610   2.649   6.348  11.046  1.4265  0.4270 -0.2436
 6373TIP3    H240611   2.672   6.224  10.963  0.0304 -0.0591  0.0800
 6374TIP3   OH240612   2.395   5.829  13.719 -0.2694 -0.5206 -0.1108
 6374TIP3    H140613   2.347   5.792  13.794  0.8370  0.8160  1.2996
 6374TIP3    H240614   2.344   5.803  13.643 -1.5663 -1.7191  1.1286
 6375TIP3   OH240615   1.616   4.028  13.832 -0.5084  0.3493  0.0571
 6375TIP3    H140616   1.611   4.119  13.804 -0.2162  0.0447 -1.0119
 6375TIP3    H240617   1.708   4.005  13.824 -0.5925 -0.0592  0.2424
 6376TIP3   OH240618   6.288   6.532   6.361 -0.4153 -0.1942  0.6529
 6376TIP3    H140619   6.291   6.504   6.270 -1.4533 -1.4562  0.9911
 6376TIP3    H240620   6.233   6.610   6.361 -1.7832 -1.1440  0.4181
 6377TIP3   OH240621   1.307   4.818   1.088  0.0136 -0.0405 -0.2550
 6377TIP3    H140622   1.232   4.815   1.028 -0.1964 -0.6831  0.0352
 6377TIP3    H240623   1.373   4.764   1.046 -0.1415 -0.5096  0.1030
 6378TIP3   OH240624   4.593   0.454  14.579 -0.3228 -0.0444  0.2677
 6378TIP3    H140625   4.522   0.494  14.528  0.5862  0.0756 -0.9096
 6378TIP3    H240626   4.614   0.520  14.645 -0.5962  0.3556 -0.0354
 6379TIP3   OH240627   3.659   6.265   0.967  0.5911 -0.8737 -0.3799
 6379TIP3    H140628   3.665   6.247   1.060 -2.1231 -1.4949 -0.2727
 6379TIP3    H240629   3.682   6.358   0.959  0.2672 -0.6646  0.9832
 6380TIP3   OH240630   5.105   0.196   6.092 -0.1098 -0.0370 -0.0740
 6380TIP3    H140631   5.170   0.188   6.022  0.9620  0.2639  0.8659
 6380TIP3    H240632   5.088   0.291   6.098  1.0174  0.0945  1.1552
 6381TIP3   OH240633   1.099   3.195  11.921 -0.0817  0.2467 -0.5118
 6381TIP3    H140634   1.095   3.201  12.016 -1.9582  0.1669 -0.5794
 6381TIP3    H240635   1.126   3.104  11.904  0.0064  0.1869 -0.0662
 6382TIP3   OH240636   5.839   2.492  16.403 -0.2392 -0.2074  0.2299
 6382TIP3    H140637   5.749   2.464  16.415  0.4499 -1.9294  1.5192
 6382TIP3    H240638   5.840   2.535  16.317 -2.5724  1.1212  0.8220
 6383TIP3   OH240639   5.363   1.174  15.097  0.0734 -0.2021 -0.0283
 6383TIP3    H140640   5.319   1.139  15.019 -0.6616  2.4072 -0.8229
 6383TIP3    H240641   5.452   1.194  15.067 -0.4631  1.5981 -0.4320
 6384TIP3   OH240642   1.323   2.510  11.263  0.1059  0.6055 -0.6327
 6384TIP3    H140643   1.230   2.532  11.258  0.4920  2.3786 -0.4903
 6384TIP3    H240644   1.325   2.424  11.306 -1.5530 -0.5076 -2.6812
 6385TIP3   OH240645   4.891   0.038  15.952  0.5363 -0.1070 -0.6109
 6385TIP3    H140646   4.845  -0.046  15.955  0.1277  0.1508  4.3580
 6385TIP3    H240647   4.822   0.103  15.959  0.8647  0.7598 -4.3938
 6386TIP3   OH240648   3.207   4.569   4.836  0.2870  0.1895 -0.6925
 6386TIP3    H140649   3.169   4.610   4.758 -0.9067  0.8612  0.2328
 6386TIP3    H240650   3.283   4.521   4.802  0.6196  1.6200 -2.0753
 6387TIP3   OH240651   3.199   2.244   6.527  0.0155 -0.8327 -0.3827
 6387TIP3    H140652   3.172   2.168   6.476  0.0613 -0.7180 -0.5794
 6387TIP3    H240653   3.120   2.297   6.535 -0.4444 -1.7373  1.2386
 6388TIP3   OH240654   6.813   3.153  16.251 -0.4293 -0.1049  0.2313
 6388TIP3    H140655   6.741   3.183  16.195 -0.4478  0.4090  0.5298
 6388TIP3    H240656   6.830   3.226  16.310  0.3885 -0.2009  0.1213
 6389TIP3   OH240657   5.095   6.463   2.895 -0.5871  0.1594 -0.4915
 6389TIP3    H140658   5.103   6.558   2.892  0.6654  0.0605 -0.8943
 6389TIP3    H240659   5.094   6.442   2.988  1.2721  0.4328 -0.3854
 6390TIP3   OH240660   1.027   1.625  17.214  0.1026  0.3917  0.4934
 6390TIP3    H140661   1.057   1.566  17.145  1.8450 -0.5814  2.0523
 6390TIP3    H240662   1.098   1.689  17.223  0.1481  0.1783  1.7495
 6391TIP3   OH240663   5.315   6.781  12.192  0.0238 -0.3382 -0.4205
 6391TIP3    H140664   5.294   6.833  12.269  2.2087 -0.3946  0.2518
 6391TIP3    H240665   5.246   6.715  12.188  0.4113 -0.9568  2.0861
 6392TIP3   OH240666   3.575   3.164  14.255 -0.1251 -0.7650  0.5716
 6392TIP3    H140667   3.594   3.162  14.161 -1.2543 -0.0646  0.3240
 6392TIP3    H240668   3.481   3.149  14.261  0.2175 -2.7208  1.7109
 6393TIP3   OH240669   1.194   0.653  16.035  0.0409 -0.8225  0.4055
 6393TIP3    H140670   1.210   0.719  16.102 -0.4905  2.4914 -2.5395
 6393TIP3    H240671   1.103   0.626  16.050 -0.7471  1.4055 -0.1688
 6394TIP3   OH240672   0.548   0.096   4.321 -0.5389  0.3361  0.1571
 6394TIP3    H140673   0.570   0.183   4.354 -0.6886  0.0595  0.9882
 6394TIP3    H240674   0.503   0.112   4.238  0.4235  1.0046 -0.2458
 6395TIP3   OH240675   5.009   5.179   0.153 -0.5432 -0.1157  0.3014
 6395TIP3    H140676   5.029   5.143   0.239 -2.1525 -0.4874  0.5450
 6395TIP3    H240677   4.918   5.208   0.160 -1.0342 -1.0850 -1.5784
 6396TIP3   OH240678   1.529   3.111  15.517  0.1451 -0.6064  0.0290
 6396TIP3    H140679   1.594   3.050  15.483  0.8009 -0.3971  0.8925
 6396TIP3    H240680   1.447   3.084  15.476  0.6446 -1.3347 -0.4951
 6397TIP3   OH240681   5.109   1.110   1.303  0.8437 -0.4201 -0.0537
 6397TIP3    H140682   5.088   1.022   1.270  0.5633  0.2884 -1.8623
 6397TIP3    H240683   5.048   1.124   1.375 -1.3639 -0.4435 -1.8602
 6398TIP3   OH240684   2.984   2.355  15.380 -0.0956  0.1745 -0.0252
 6398TIP3    H140685   2.893   2.360  15.411 -0.5085  0.1157 -1.1914
 6398TIP3    H240686   2.986   2.274  15.328  0.4108  0.6026 -0.6694
 6399TIP3   OH240687   2.528   4.348   6.161  0.6300 -0.3070  0.6725
 6399TIP3    H140688   2.594   4.313   6.102  0.1083  0.3904 -0.3358
 6399TIP3    H240689   2.575   4.412   6.215  0.9184 -0.2729  0.3823
 6400TIP3   OH240690   1.916   5.061  12.758 -0.7277 -0.1256 -0.0343
 6400TIP3    H140691   1.946   5.148  12.733 -0.2678  0.0755  1.1625
 6400TIP3    H240692   1.824   5.058  12.730 -0.6284  0.6002 -0.4328
 6401TIP3   OH240693   1.463   1.135  13.203 -0.2475  0.0661  0.7940
 6401TIP3    H140694   1.550   1.138  13.244 -1.0869  1.2528  2.5803
 6401TIP3    H240695   1.470   1.193  13.128  0.6221 -0.1841  0.6675
 6402TIP3   OH240696   5.296   6.600   5.290  0.2900 -0.1402 -0.6592
 6402TIP3    H140697   5.319   6.581   5.382 -2.5389  0.1176  0.1353
 6402TIP3    H240698   5.303   6.695   5.283 -0.6278 -0.0485 -0.3793
 6403TIP3   OH240699   1.992   1.278  12.782  0.7679  0.6449  0.5055
 6403TIP3    H140700   1.962   1.316  12.699  0.7595  0.5660  0.4724
 6403TIP3    H240701   1.920   1.294  12.843  0.0316 -0.8749  0.0480
 6404TIP3   OH240702   2.836   4.519   1.222  0.5195  0.0914  0.0052
 6404TIP3    H140703   2.883   4.579   1.281  0.4851 -0.6395  0.7848
 6404TIP3    H240704   2.759   4.493   1.272 -0.3365  0.6999 -0.9869
 6405TIP3   OH240705   3.793   3.944  15.454 -0.1405  0.7048 -0.0094
 6405TIP3    H140706   3.714   3.965  15.503  0.3651  3.4700 -0.3071
 6405TIP3    H240707   3.768   3.869  15.399 -2.5100  1.4666 -0.0150
 6406TIP3   OH240708   0.816   4.858   2.490  0.0252 -0.1442 -0.3233
 6406TIP3    H140709   0.821   4.884   2.398  2.4571 -1.3424 -0.5796
 6406TIP3    H240710   0.880   4.915   2.534 -0.8793  0.1898  0.5946
 6407TIP3   OH240711   2.838   4.617   5.217  0.7256 -0.5242 -0.7560
 6407TIP3    H140712   2.813   4.529   5.189 -1.0060 -0.5617  0.7374
 6407TIP3    H240713   2.912   4.641   5.162 -0.5793 -1.7831 -3.1431
 6408TIP3   OH240714   6.423   2.765  16.199 -0.0662  0.2165  0.7916
 6408TIP3    H140715   6.427   2.765  16.295 -1.5770 -0.7698  0.8806
 6408TIP3    H240716   6.343   2.716  16.179  0.5362 -0.0716 -0.9902
 6409TIP3   OH240717   1.997   5.863  14.110  0.1195 -0.0693 -0.5527
 6409TIP3    H140718   2.080   5.820  14.134  0.9524  0.0352 -3.0780
 6409TIP3    H240719   2.009   5.954  14.137 -0.4002 -0.6919  1.8879
 6410TIP3   OH240720   2.419   0.185  15.123  0.8304 -0.0320  0.0214
 6410TIP3    H140721   2.348   0.173  15.060  0.5888 -1.0011  0.4766
 6410TIP3    H240722   2.497   0.198  15.069  0.2224  1.7140 -0.4906
 6411TIP3   OH240723   2.470   3.318  16.026 -1.2910 -0.1246 -0.5142
 6411TIP3    H140724   2.534   3.388  16.027 -0.3038 -1.0110 -0.4752
 6411TIP3    H240725   2.433   3.318  16.115 -0.2532 -0.5814 -0.0719
 6412TIP3   OH240726   5.970   6.767   3.265  0.2358 -0.0305 -0.0317
 6412TIP3    H140727   6.066   6.773   3.256  0.2957 -1.1857 -0.2877
 6412TIP3    H240728   5.943   6.717   3.188 -0.5214 -0.0841  0.2713
 6413TIP3   OH240729   2.975   4.468  12.315 -0.0016 -0.5530 -0.3752
 6413TIP3    H140730   2.984   4.391  12.259  2.5597  0.0323 -0.8126
 6413TIP3    H240731   2.998   4.542  12.259 -4.1125  0.7813 -0.4545
 6414TIP3   OH240732   5.798   2.178  15.014 -0.8201  0.3737 -0.0168
 6414TIP3    H140733   5.749   2.155  14.935 -1.7869  0.2335  0.6123
 6414TIP3    H240734   5.731   2.204  15.077  0.1067  3.1284 -0.0981
 6415TIP3   OH240735   4.267   0.751   0.426  0.8097  0.5750 -0.6274
 6415TIP3    H140736   4.287   0.830   0.377 -0.0982  0.6015 -0.9643
 6415TIP3    H240737   4.183   0.769   0.468  1.6712  0.6328  1.1126
 6416TIP3   OH240738   3.548   5.775   0.506 -0.2880  0.2383 -0.9612
 6416TIP3    H140739   3.543   5.822   0.422 -0.3236 -0.0223 -1.1059
 6416TIP3    H240740   3.578   5.687   0.482 -0.7440  0.0253 -0.7488
 6417TIP3   OH240741   5.264   1.640   5.857  0.2124  0.1766  0.0129
 6417TIP3    H140742   5.335   1.643   5.921  0.9671 -2.7099 -0.5893
 6417TIP3    H240743   5.308   1.614   5.775 -1.0860  1.4928 -1.1232
 6418TIP3   OH240744   5.483   3.109   1.081  0.6935 -0.1107 -0.2104
 6418TIP3    H140745   5.514   3.074   0.997  1.4485 -0.9656  0.4128
 6418TIP3    H240746   5.400   3.062   1.097 -0.1701  1.0711 -1.1430
 6419TIP3   OH240747   6.712   5.410  13.902 -0.3021  0.0615  0.0637
 6419TIP3    H140748   6.675   5.327  13.931  0.5539 -0.2084  0.3945
 6419TIP3    H240749   6.677   5.421  13.813 -0.5611 -0.5576  0.0815
 6420TIP3   OH240750   6.176   0.836   1.266 -0.1032 -0.4199  0.3681
 6420TIP3    H140751   6.267   0.830   1.239 -0.2794 -1.7018  0.0429
 6420TIP3    H240752   6.176   0.811   1.358  0.1593  1.6272  0.9469
 6421TIP3   OH240753   0.164   0.238   3.194 -0.1661  0.1153  0.0100
 6421TIP3    H140754   0.214   0.210   3.271  0.6302  2.3238  0.3330
 6421TIP3    H240755   0.110   0.162   3.172  0.3693 -0.9255  2.1100
 6422TIP3   OH240756   5.526   3.245  16.492 -0.3552 -0.0862  0.0930
 6422TIP3    H140757   5.493   3.273  16.577 -0.8078  1.2718 -0.5214
 6422TIP3    H240758   5.496   3.313  16.431  0.6117 -0.6479 -1.0228
 6423TIP3   OH240759   6.229   4.932   2.950 -0.3237  0.3696 -0.0500
 6423TIP3    H140760   6.316   4.967   2.931  0.6209 -2.1178 -0.4755
 6423TIP3    H240761   6.168   4.999   2.918  1.4109  1.8308 -0.3530
 6424TIP3   OH240762   2.959   1.340  16.435  0.1463 -0.0435 -0.1847
 6424TIP3    H140763   3.013   1.418  16.444  0.4565 -0.2414 -0.3159
 6424TIP3    H240764   2.943   1.311  16.524  2.0899 -1.2347 -0.1825
 6425TIP3   OH240765   0.645   3.074   5.691  0.1452  0.1524 -0.1351
 6425TIP3    H140766   0.643   3.008   5.760 -1.3862  0.5124  0.1724
 6425TIP3    H240767   0.631   3.157   5.737 -0.5671  0.4264 -0.8440
 6426TIP3   OH240768   5.023   4.237   3.789 -0.0770  0.1372  0.1932
 6426TIP3    H140769   4.976   4.249   3.871  2.4624 -0.3281  1.7741
 6426TIP3    H240770   5.015   4.143   3.770  1.2778 -0.1755  1.1398
 6427TIP3   OH240771   0.425   2.779  12.388  0.7060 -0.2729 -0.0259
 6427TIP3    H140772   0.463   2.691  12.386 -0.9328 -1.1321  3.2762
 6427TIP3    H240773   0.490   2.833  12.433  0.7394 -0.2659 -0.0808
 6428TIP3   OH240774   0.529   4.960   1.140  0.3377  0.4279  0.0292
 6428TIP3    H140775   0.622   4.982   1.132  0.8183 -1.3844  0.3297
 6428TIP3    H240776   0.514   4.953   1.234 -0.5946  2.6518  0.0602
 6429TIP3   OH240777   3.389   6.116   4.848  0.3100  0.2763  0.0880
 6429TIP3    H140778   3.431   6.155   4.771 -1.5091  0.3517 -0.8915
 6429TIP3    H240779   3.434   6.156   4.922  1.2864  1.1001 -0.9220
 6430TIP3   OH240780   0.250   6.384   0.734 -0.6533  0.3071 -0.5117
 6430TIP3    H140781   0.290   6.300   0.752 -1.2403  0.2488  0.5887
 6430TIP3    H240782   0.318   6.448   0.755 -0.1147  0.1038 -1.6137
 6431TIP3   OH240783   1.709   5.681   5.991 -0.4585  0.5858 -0.9500
 6431TIP3    H140784   1.768   5.606   5.999 -1.9392 -0.3764  1.1226
 6431TIP3    H240785   1.676   5.695   6.080  0.6264  4.3816 -1.0679
 6432TIP3   OH240786   4.472   4.086  15.328 -0.5083  0.4183  0.0430
 6432TIP3    H140787   4.548   4.081  15.386  0.5534  0.2559 -1.3234
 6432TIP3    H240788   4.510   4.109  15.242 -2.2084  2.5449 -0.1867
 6433TIP3   OH240789   0.749   4.098  16.434 -0.2122  0.1911  0.2591
 6433TIP3    H140790   0.659   4.076  16.410  0.1952 -0.1104 -1.0199
 6433TIP3    H240791   0.768   4.039  16.508 -0.6509 -0.6062 -0.2536
 6434TIP3   OH240792   3.080   4.092   0.594 -0.3776 -0.1990  0.1242
 6434TIP3    H140793   3.159   4.100   0.648 -0.6810 -0.4198  0.6026
 6434TIP3    H240794   3.008   4.092   0.657 -0.8629  1.5362 -0.3884
 6435TIP3   OH240795   3.341   1.562  17.013  0.2564  0.1811 -0.3417
 6435TIP3    H140796   3.380   1.495  17.068  1.3084  0.7495 -0.3801
 6435TIP3    H240797   3.247   1.555  17.030  0.3699 -1.1387 -0.1807
 6436TIP3   OH240798   0.210   6.743  12.159 -0.6708 -0.3055 -0.4139
 6436TIP3    H140799   0.237   6.655  12.183 -1.5989 -0.5921 -0.4267
 6436TIP3    H240800   0.287   6.798  12.179  0.2637 -1.2522 -1.3483
 6437TIP3   OH240801   3.470   0.968   3.196  0.2104 -0.1857  0.3764
 6437TIP3    H140802   3.562   0.962   3.167  0.4289  1.0424  0.7772
 6437TIP3    H240803   3.453   1.062   3.201 -1.1734 -0.4094  0.0061
 6438TIP3   OH240804   5.530   3.813   0.482  0.0033 -0.3059  0.0064
 6438TIP3    H140805   5.504   3.760   0.558  0.3881  0.6676  0.8363
 6438TIP3    H240806   5.519   3.755   0.407 -0.4297 -1.2739  0.8070
 6439TIP3   OH240807   3.337   2.628   2.260  0.5039  0.4424  0.4017
 6439TIP3    H140808   3.409   2.672   2.304  1.8606 -0.1357 -1.2029
 6439TIP3    H240809   3.364   2.623   2.168 -1.8674  0.8296 -0.3615
 6440TIP3   OH240810   3.676   1.053   0.656  0.3542  0.3411  0.0677
 6440TIP3    H140811   3.720   1.137   0.662 -1.6320  1.3190  1.6622
 6440TIP3    H240812   3.655   1.030   0.747 -0.7623 -0.9547 -0.4969
 6441TIP3   OH240813   5.800   6.745   3.944  0.3279 -0.0957 -0.2435
 6441TIP3    H140814   5.873   6.685   3.933 -0.3269 -0.8331 -0.6385
 6441TIP3    H240815   5.801   6.768   4.038  2.0665  1.2272 -0.5632
 6442TIP3   OH240816   3.283   5.653   3.961 -0.4654 -0.3852 -0.4302
 6442TIP3    H140817   3.346   5.658   4.033  0.8289 -0.9949 -1.4851
 6442TIP3    H240818   3.228   5.731   3.971  1.0570  0.6559 -0.0077
 6443TIP3   OH240819   5.600   1.914  17.022 -0.5824  0.1840  0.8059
 6443TIP3    H140820   5.562   1.846  16.965  1.6082 -0.0689 -0.4413
 6443TIP3    H240821   5.676   1.945  16.973 -0.0894  1.7461  2.5263
 6444TIP3   OH240822   6.158   1.755  12.211  0.4514 -0.1058 -0.0302
 6444TIP3    H140823   6.157   1.787  12.302 -1.7265 -1.9211  0.6350
 6444TIP3    H240824   6.214   1.677  12.215  0.5736 -0.0318 -0.3162
 6445TIP3   OH240825   2.216   4.985   1.660  0.0290 -0.0007 -0.1384
 6445TIP3    H140826   2.242   4.950   1.745 -2.6496 -0.8029  0.3944
 6445TIP3    H240827   2.205   5.079   1.676  1.3380  0.1496 -0.0743
 6446TIP3   OH240828   6.248   1.964  13.851 -0.4247  0.0876 -0.5327
 6446TIP3    H140829   6.182   1.987  13.916 -1.7576 -2.7268 -0.8154
 6446TIP3    H240830   6.319   1.924  13.902  0.6100  2.1162 -0.3456
 6447TIP3   OH240831   1.045   6.039  12.807  0.0613 -0.2147  0.1983
 6447TIP3    H140832   1.116   6.005  12.753 -0.3105  1.9667 -1.7616
 6447TIP3    H240833   1.087   6.072  12.886  0.9113 -1.1202  0.1349
 6448TIP3   OH240834   1.782   6.132   0.292  0.1084 -0.3323 -0.6316
 6448TIP3    H140835   1.868   6.156   0.258  0.3622 -1.4732 -0.8221
 6448TIP3    H240836   1.752   6.063   0.234 -1.0293  0.1963 -0.6820
 6449TIP3   OH240837   1.989   0.432  10.591  0.2368  0.7664 -0.5861
 6449TIP3    H140838   2.017   0.472  10.674  0.7827  2.3879 -1.5247
 6449TIP3    H240839   1.974   0.506  10.533 -2.7641 -0.2430 -1.1602
 6450TIP3   OH240840   4.324   0.504  12.017 -0.1663  0.1972  0.1545
 6450TIP3    H140841   4.280   0.588  12.007  1.0269  0.7498 -0.5923
 6450TIP3    H240842   4.300   0.454  11.939 -2.4129 -0.9065  1.4917
 6451TIP3   OH240843   6.540   1.925  15.197 -0.3923 -0.1102  0.3788
 6451TIP3    H140844   6.590   1.844  15.195  0.1078  0.2081 -0.6394
 6451TIP3    H240845   6.471   1.910  15.261 -0.6231 -1.5306 -0.1931
 6452TIP3   OH240846   0.595   2.439  12.154 -0.0658  0.1524  0.2804
 6452TIP3    H140847   0.611   2.519  12.103  0.1157 -0.0267  0.0513
 6452TIP3    H240848   0.569   2.374  12.088 -2.5519  0.6399  0.7225
 6453TIP3   OH240849   0.841   3.215  14.468  0.1828  0.9202 -0.8091
 6453TIP3    H140850   0.755   3.179  14.490  0.3525  0.7509 -0.4144
 6453TIP3    H240851   0.898   3.138  14.459  0.3590  1.0471 -0.7808
 6454TIP3   OH240852   6.346   5.523   0.681  0.1505  0.1351 -0.2306
 6454TIP3    H140853   6.300   5.492   0.604 -0.4884 -0.6925  0.4779
 6454TIP3    H240854   6.436   5.491   0.671  0.2847  0.7529 -1.0337
 6455TIP3   OH240855   4.172   4.953  15.267 -0.3143 -0.2852 -0.2833
 6455TIP3    H140856   4.163   5.015  15.340  1.2248  0.6126 -0.8350
 6455TIP3    H240857   4.121   4.992  15.196 -1.1877 -0.7878  0.0468
 6456TIP3   OH240858   4.716   5.122  10.650 -0.2802  0.1918 -0.1054
 6456TIP3    H140859   4.644   5.101  10.590  0.0597  0.2394 -0.5309
 6456TIP3    H240860   4.789   5.145  10.593  0.6637 -1.7340  0.2850
 6457TIP3   OH240861   2.565   1.347  10.925 -0.5590  0.1430  0.5471
 6457TIP3    H140862   2.500   1.349  10.855  0.2699 -0.9673 -0.2647
 6457TIP3    H240863   2.643   1.388  10.887 -0.6090  1.0199  1.3567
 6458TIP3   OH240864   6.733   6.793   5.886 -0.0943 -0.6655  0.0442
 6458TIP3    H140865   6.709   6.867   5.942  1.1345 -0.8326  0.7985
 6458TIP3    H240866   6.651   6.769   5.843 -1.2626 -1.1534  2.5035
 6459TIP3   OH240867   2.520   4.524  16.440  0.2301 -0.4677  0.0788
 6459TIP3    H140868   2.459   4.527  16.514 -0.0124  0.0453 -0.1344
 6459TIP3    H240869   2.592   4.468  16.469 -0.4202 -1.2021  0.2732
 6460TIP3   OH240870   0.973   6.282   3.612 -0.2284 -0.1662 -0.4667
 6460TIP3    H140871   1.003   6.252   3.698  0.4129  2.0457  0.1344
 6460TIP3    H240872   0.891   6.235   3.597  0.2843 -1.5039  0.7895
 6461TIP3   OH240873   3.623   3.847  12.304  0.0595  0.1688  0.0926
 6461TIP3    H140874   3.544   3.849  12.249 -0.5660  0.9992  1.0187
 6461TIP3    H240875   3.695   3.853  12.242 -0.6184 -0.1460 -0.7341
 6462TIP3   OH240876   3.957   3.187   3.468 -0.0669 -0.8376 -0.2052
 6462TIP3    H140877   4.023   3.249   3.438  0.5521 -1.5070 -0.2484
 6462TIP3    H240878   4.003   3.129   3.528 -0.7934 -0.8515  0.3466
 6463TIP3   OH240879   2.175   4.536   0.613  0.0865  0.1927  0.4066
 6463TIP3    H140880   2.236   4.509   0.681  0.6401 -2.5541 -1.1108
 6463TIP3    H240881   2.132   4.455   0.586 -0.1818  1.2461 -2.4627
 6464TIP3   OH240882   4.708   4.746   2.665  0.6496 -0.8445 -0.1281
 6464TIP3    H140883   4.795   4.726   2.631  0.2969 -1.8830 -0.4356
 6464TIP3    H240884   4.723   4.785   2.751  1.4761  0.2249 -0.7409
 6465TIP3   OH240885   2.376   1.018   1.032 -0.6275 -0.0999  0.2326
 6465TIP3    H140886   2.396   0.948   1.094  0.5499 -0.5500 -0.6239
 6465TIP3    H240887   2.422   0.993   0.952  0.3762  1.9827  0.1059
 6466TIP3   OH240888   3.316   0.037  14.874 -0.4376 -0.2256  0.6276
 6466TIP3    H140889   3.358   0.008  14.794 -1.7595 -0.0057 -0.1655
 6466TIP3    H240890   3.388   0.054  14.934  0.5180 -1.3585 -0.1758
 6467TIP3   OH240891   2.357   0.837   0.126  0.0142  0.4509  0.1808
 6467TIP3    H140892   2.442   0.851   0.084  0.0542  0.2496  0.1920
 6467TIP3    H240893   2.369   0.868   0.216  0.1581  0.1626  0.2597
 6468TIP3   OH240894   5.657   5.409  16.947 -0.3989  0.2056 -0.4053
 6468TIP3    H140895   5.692   5.362  16.871 -0.9382  0.1746 -0.6372
 6468TIP3    H240896   5.734   5.444  16.991 -0.1489  1.4509 -1.7779
 6469TIP3   OH240897   5.325   0.555   2.618 -0.2403  0.0123 -0.0421
 6469TIP3    H140898   5.272   0.552   2.538 -0.9543 -1.0917  0.4577
 6469TIP3    H240899   5.414   0.533   2.588 -0.5332 -0.5622 -0.5076
 6470TIP3   OH240900   1.520   5.489  11.616  0.2628 -0.0699  0.2010
 6470TIP3    H140901   1.538   5.484  11.710 -2.6183  1.0436  0.8533
 6470TIP3    H240902   1.532   5.582  11.594  0.3019 -0.2141 -0.3979
 6471TIP3   OH240903   3.367   4.020   2.876 -0.3511  0.6149 -0.0266
 6471TIP3    H140904   3.392   4.070   2.799 -0.5762 -1.9797 -1.8604
 6471TIP3    H240905   3.447   3.974   2.902 -0.5248  0.7103  0.6907
 6472TIP3   OH240906   1.035   1.532  15.459  0.1083  0.0214  0.0282
 6472TIP3    H140907   1.065   1.623  15.465  0.4193 -0.1242  0.7738
 6472TIP3    H240908   1.090   1.485  15.522  1.7584 -1.1711 -2.1988
 6473TIP3   OH240909   2.267   3.587   2.886 -0.3709 -0.3068 -0.3673
 6473TIP3    H140910   2.249   3.578   2.980 -0.4828 -1.5957 -0.5045
 6473TIP3    H240911   2.216   3.517   2.845  0.6820 -0.5588 -1.2692
 6474TIP3   OH240912   1.736   2.097   5.063 -0.4372  0.5124 -0.2505
 6474TIP3    H140913   1.831   2.106   5.058 -0.1971 -1.9670 -0.7394
 6474TIP3    H240914   1.722   2.048   5.144 -1.2489  0.0101 -0.6998
 6475TIP3   OH240915   5.808   2.642  15.326  0.0226  0.0379 -0.0742
 6475TIP3    H140916   5.887   2.668  15.373 -0.9896  2.1366  0.4932
 6475TIP3    H240917   5.761   2.586  15.388  0.4704 -0.2135  0.0412
 6476TIP3   OH240918   6.114   2.671  17.226 -0.1172  0.2707 -0.0620
 6476TIP3    H140919   6.174   2.613  17.179 -0.7062 -1.5905  1.4329
 6476TIP3    H240920   6.075   2.616  17.294 -2.0413  1.9599  0.2623
 6477TIP3   OH240921   0.121   6.187   3.118  0.1834 -0.1954  0.0279
 6477TIP3    H140922   0.102   6.222   3.031 -0.1216 -1.0978 -0.2753
 6477TIP3    H240923   0.211   6.153   3.111  0.8662  1.4579  0.6234
 6478TIP3   OH240924   5.235   0.444  13.083 -0.4068  0.4529  0.0475
 6478TIP3    H140925   5.330   0.431  13.083 -0.3751  0.2986 -2.8184
 6478TIP3    H240926   5.223   0.536  13.104  0.3583  0.3654  0.8764
 6479TIP3   OH240927   3.075   2.156  15.855 -0.0541  0.4082  0.2653
 6479TIP3    H140928   3.054   2.109  15.935 -0.0771  0.4678  0.2950
 6479TIP3    H240929   3.156   2.117  15.824  0.2552  0.7620  0.6167
 6480TIP3   OH240930   5.890   0.236   2.764 -0.8952 -0.1396  0.1311
 6480TIP3    H140931   5.890   0.162   2.702  1.6961  0.6808 -0.9048
 6480TIP3    H240932   5.877   0.313   2.708  1.1559  0.5813  0.6280
 6481TIP3   OH240933   4.765   4.371  12.461 -0.2519  0.3387  0.5249
 6481TIP3    H140934   4.681   4.372  12.508 -0.0056  0.2459  0.9701
 6481TIP3    H240935   4.758   4.444  12.399 -1.4478 -0.8844 -0.8404
 6482TIP3   OH240936   5.753   3.582   4.299 -0.4373  0.0744  0.3506
 6482TIP3    H140937   5.688   3.606   4.364 -0.1449 -0.2152  0.7507
 6482TIP3    H240938   5.825   3.544   4.349 -0.4784 -0.7398 -0.1919
 6483TIP3   OH240939   6.140   5.753  11.728  0.1380  0.4213 -0.4482
 6483TIP3    H140940   6.204   5.816  11.695 -2.1516  2.0147 -2.0334
 6483TIP3    H240941   6.085   5.733  11.651 -1.5094 -0.5768  0.9542
 6484TIP3   OH240942   4.794   2.120  14.601 -0.1139  0.1656  0.0882
 6484TIP3    H140943   4.738   2.099  14.675 -1.2614 -0.5062 -0.9533
 6484TIP3    H240944   4.734   2.129  14.527  1.0375  0.5755 -0.8144
 6485TIP3   OH240945   0.289   4.358  11.419 -0.1113  0.0633 -0.4965
 6485TIP3    H140946   0.212   4.413  11.405  1.0588  2.0095  0.4141
 6485TIP3    H240947   0.254   4.271  11.438 -2.1669  1.2487  1.3996
 6486TIP3   OH240948   5.782   5.633   3.899  0.2432 -0.0661 -0.2100
 6486TIP3    H140949   5.786   5.671   3.811 -0.6936 -2.1391 -1.1678
 6486TIP3    H240950   5.873   5.614   3.921  0.4898  0.5630 -0.6659
 6487TIP3   OH240951   4.344   3.834  13.709 -0.0356 -0.6149 -0.5072
 6487TIP3    H140952   4.356   3.743  13.735  2.7146 -0.2710 -0.4623
 6487TIP3    H240953   4.344   3.883  13.791 -1.3247 -0.5425 -0.5421
 6488TIP3   OH240954   4.062   5.508   5.816  0.0613 -0.3776  0.3052
 6488TIP3    H140955   4.015   5.537   5.894 -1.0842 -0.6912 -0.2731
 6488TIP3    H240956   4.076   5.588   5.765  2.1785  0.0920  1.5306
 6489TIP3   OH240957   1.705   4.940   6.242 -0.0427 -0.2151 -0.1524
 6489TIP3    H140958   1.708   4.857   6.290 -0.6920 -0.5526 -0.6726
 6489TIP3    H240959   1.675   5.004   6.306 -1.0207 -0.6870 -0.1232
 6490TIP3   OH240960   2.951   5.389  14.416 -0.0678  0.6908 -0.5835
 6490TIP3    H140961   2.903   5.306  14.414  1.3966 -0.2220  0.5289
 6490TIP3    H240962   2.964   5.411  14.324  0.1656 -0.7258 -0.9092
 6491TIP3   OH240963   0.164   3.771   3.923  0.0078  0.9251 -0.4623
 6491TIP3    H140964   0.076   3.736   3.911  0.3678 -0.3381  0.5048
 6491TIP3    H240965   0.163   3.807   4.012  0.7108  0.1565 -0.1353
 6492TIP3   OH240966   1.974   2.661   2.450  0.1606  0.1286 -0.3509
 6492TIP3    H140967   2.038   2.665   2.521  0.0325  0.2189 -0.2400
 6492TIP3    H240968   1.946   2.570   2.449 -0.4893  0.3150  0.2977
 6493TIP3   OH240969   6.614   2.653  14.215  0.1309 -0.0151  0.3692
 6493TIP3    H140970   6.675   2.721  14.185  0.3272 -0.5839 -0.5614
 6493TIP3    H240971   6.528   2.694  14.211  0.0415 -0.3307 -1.8699
 6494TIP3   OH240972   6.224   3.168  17.163  0.6859  0.0073  0.5939
 6494TIP3    H140973   6.217   3.143  17.255 -0.0918  1.3733  0.9172
 6494TIP3    H240974   6.315   3.198  17.153  0.7645 -0.1177  0.9174
 6495TIP3   OH240975   6.389   2.329   0.846  0.1961 -0.3031 -0.3276
 6495TIP3    H140976   6.393   2.297   0.756  0.4783 -0.3912 -0.2834
 6495TIP3    H240977   6.297   2.351   0.860 -0.1968 -2.0595 -0.0159
 6496TIP3   OH240978   4.540   6.175   1.286  0.3072  0.4383  0.5967
 6496TIP3    H140979   4.565   6.256   1.241  1.6562 -0.8331 -1.0385
 6496TIP3    H240980   4.555   6.192   1.378  0.6391  2.0272  0.2524
 6497TIP3   OH240981   2.049   3.360  14.206 -0.6528 -0.1385  0.9311
 6497TIP3    H140982   2.045   3.432  14.143 -1.4698 -0.2503  0.8521
 6497TIP3    H240983   2.101   3.394  14.278 -1.9332  0.9158  1.3736
 6498TIP3   OH240984   0.441   1.928   6.177  0.5528 -0.3059  0.0148
 6498TIP3    H140985   0.470   1.868   6.246 -0.3804  0.1369  0.7944
 6498TIP3    H240986   0.349   1.905   6.162  0.9008 -0.7899 -1.5056
 6499TIP3   OH240987   0.915   4.697  11.206 -0.7166 -0.2229  0.0964
 6499TIP3    H140988   0.928   4.776  11.259 -0.6570 -0.0812 -0.1301
 6499TIP3    H240989   1.004   4.666  11.188 -0.6407  1.0197 -1.8729
 6500TIP3   OH240990   0.145   1.784  12.255 -0.1905  0.1554 -0.6646
 6500TIP3    H140991   0.130   1.838  12.177  1.7601  1.9283  0.1167
 6500TIP3    H240992   0.148   1.847  12.326  3.3225 -0.8253  0.1378
 6501TIP3   OH240993   5.048   2.426  16.756  0.5535 -0.6458 -0.3735
 6501TIP3    H140994   5.043   2.408  16.850  2.0165  0.8668  0.0289
 6501TIP3    H240995   5.077   2.344  16.717 -0.2060 -1.3314  0.4846
 6502TIP3   OH240996   4.350   4.993  17.026 -0.0622  0.6816  0.0869
 6502TIP3    H140997   4.363   4.939  16.948  0.5770  0.7191  0.1661
 6502TIP3    H240998   4.260   4.975  17.053  0.2046 -0.4870  0.2223
 6503TIP3   OH240999   1.285   2.519  12.682  0.3312 -0.2688  0.2651
 6503TIP3    H141000   1.330   2.547  12.762  0.9531 -0.8290  0.1210
 6503TIP3    H241001   1.207   2.575  12.677  0.8314  0.4792  0.7071
 6504TIP3   OH241002   3.410   3.262   2.881  0.2392 -0.3400 -0.3152
 6504TIP3    H141003   3.402   3.248   2.975  3.0179 -1.0097 -0.1342
 6504TIP3    H241004   3.386   3.354   2.868 -1.2257 -0.5485  0.8963
 6505TIP3   OH241005   2.406   5.222  11.196  0.5621  1.0623 -0.1993
 6505TIP3    H141006   2.414   5.247  11.104 -2.9150  0.6480 -0.6895
 6505TIP3    H241007   2.443   5.134  11.200 -0.3278  0.6056 -1.4946
 6506TIP3   OH241008   1.713   0.594  11.001  0.4654 -0.9562  0.6374
 6506TIP3    H141009   1.689   0.672  10.950  2.3696 -2.0847 -2.1121
 6506TIP3    H241010   1.631   0.545  11.009 -0.5545  0.8262  1.5708
 6507TIP3   OH241011   4.712   4.671  13.759  0.5224 -0.1817  0.6074
 6507TIP3    H141012   4.764   4.704  13.686  0.5833 -1.9035 -0.1442
 6507TIP3    H241013   4.675   4.750  13.800  1.4332  0.8653 -0.5596
 6508TIP3   OH241014   4.355   3.282   4.195 -0.0016  0.0528 -0.0404
 6508TIP3    H141015   4.326   3.232   4.119 -0.5552 -0.1528  0.2979
 6508TIP3    H241016   4.384   3.366   4.159  0.4464 -0.3184 -0.5564
 6509TIP3   OH241017   6.129   1.520  17.039  0.2021 -0.0386 -0.5859
 6509TIP3    H141018   6.080   1.600  17.021  2.2574  1.4216  0.0658
 6509TIP3    H241019   6.137   1.518  17.134  2.5245  0.4757 -0.7410
 6510TIP3   OH241020   0.804   5.969   2.196  0.1409  0.0298 -0.3360
 6510TIP3    H141021   0.869   6.038   2.205  0.6098 -0.0785 -2.7732
 6510TIP3    H241022   0.834   5.915   2.123 -2.1753 -0.5758 -0.9019
 6511TIP3   OH241023   6.673   5.747  15.928 -0.3327 -0.6768 -0.1610
 6511TIP3    H141024   6.713   5.706  15.852  1.4630  1.0706 -0.1879
 6511TIP3    H241025   6.643   5.674  15.983 -0.9943 -1.9437 -2.1733
 6512TIP3   OH241026   4.294   1.663   5.008  0.3758  0.2686 -0.5203
 6512TIP3    H141027   4.261   1.679   5.096  0.0159 -0.7624 -0.4624
 6512TIP3    H241028   4.384   1.697   5.009  0.8623 -0.9832  0.6640
 6513TIP3   OH241029   5.078   2.959  12.762  0.4125  0.0124 -0.3209
 6513TIP3    H141030   5.111   3.046  12.742  0.0171  0.3002  0.2752
 6513TIP3    H241031   5.140   2.922  12.824  0.7304 -0.2440 -0.7811
 6514TIP3   OH241032   6.105   2.994  12.358 -0.4747 -0.9955  0.0528
 6514TIP3    H141033   6.156   2.940  12.298  1.3837  0.2235  0.5018
 6514TIP3    H241034   6.091   3.076  12.310 -0.7395 -0.7807  0.4973
 6515TIP3   OH241035   0.529   2.845  11.103 -0.5882  0.2255 -0.3834
 6515TIP3    H141036   0.505   2.832  11.194 -1.1881  1.1716 -0.3992
 6515TIP3    H241037   0.448   2.875  11.060  0.2594  2.1476 -0.7134
 6516TIP3   OH241038   4.487   3.847   1.925  0.2967  0.0604 -0.4424
 6516TIP3    H141039   4.554   3.910   1.899 -0.8785  1.5389  0.0473
 6516TIP3    H241040   4.535   3.766   1.939  1.8630  0.8800 -0.9360
 6517TIP3   OH241041   0.553   5.631   6.147 -0.0170  0.3459  0.1501
 6517TIP3    H141042   0.480   5.592   6.195 -0.6268  0.8037 -0.3810
 6517TIP3    H241043   0.630   5.616   6.202  0.0632 -2.9721 -0.7637
 6518TIP3   OH241044   0.612   0.136   1.541  0.1828  0.3093  0.1419
 6518TIP3    H141045   0.576   0.052   1.511  0.0976  0.0392  0.9831
 6518TIP3    H241046   0.625   0.124   1.635  1.5523  0.7352  0.0203
 6519TIP3   OH241047   2.506   0.411   2.641  0.2360 -0.1196 -0.3654
 6519TIP3    H141048   2.460   0.378   2.718  1.8780  0.8290  1.0587
 6519TIP3    H241049   2.597   0.386   2.654  0.4456 -0.5048 -2.3343
 6520TIP3   OH241050   6.408   1.371   1.924  0.0963  0.9437  0.9186
 6520TIP3    H141051   6.394   1.280   1.953 -2.8531  1.1414  0.2186
 6520TIP3    H241052   6.335   1.420   1.962  1.3960  2.9774  0.8827
 6521TIP3   OH241053   0.009   1.412   1.572 -0.4445 -0.1977  0.2149
 6521TIP3    H141054  -0.083   1.387   1.585 -0.3808 -1.2983 -1.3229
 6521TIP3    H241055   0.005   1.487   1.512 -0.3735  0.1935  0.6989
 6522TIP3   OH241056   5.951   5.434   3.518  0.0470  0.3825 -0.3200
 6522TIP3    H141057   5.888   5.415   3.449  0.5941  1.1030 -1.0283
 6522TIP3    H241058   6.022   5.372   3.504 -0.3185 -0.1623  0.2333
 6523TIP3   OH241059   5.748   1.597  13.511 -0.4405  0.6702 -0.0306
 6523TIP3    H141060   5.746   1.608  13.416 -2.0902  1.3305  0.0659
 6523TIP3    H241061   5.829   1.549  13.527  0.1877  1.0978 -1.7067
 6524TIP3   OH241062   4.922   4.214  12.892 -0.4633 -0.7693  0.4063
 6524TIP3    H141063   4.839   4.203  12.847 -0.7418  2.5332 -0.0277
 6524TIP3    H241064   4.902   4.200  12.984 -1.2939 -0.9323  0.2028
 6525TIP3   OH241065   2.263   2.430   2.972 -0.1242 -0.0764  0.8585
 6525TIP3    H141066   2.358   2.418   2.967  0.3019  3.3061 -0.5927
 6525TIP3    H241067   2.229   2.381   2.897  1.2219  4.1877 -2.8067
 6526TIP3   OH241068   4.691   5.328   4.508  0.3436  0.1655  0.0209
 6526TIP3    H141069   4.738   5.400   4.550  0.4133  0.0314  0.1756
 6526TIP3    H241070   4.690   5.350   4.415  0.7553  0.1392  0.0120
 6527TIP3   OH241071   6.322   6.677   2.602 -0.2005  0.1582 -0.3711
 6527TIP3    H141072   6.249   6.690   2.542  1.1082  0.3321 -1.9289
 6527TIP3    H241073   6.392   6.640   2.549  1.4303  1.5344  0.7525
 6528TIP3   OH241074   4.587   2.869  11.648 -0.2310 -0.1854  0.1232
 6528TIP3    H141075   4.539   2.810  11.590 -1.1549 -0.7559  1.4427
 6528TIP3    H241076   4.634   2.810  11.708  1.6081  0.3700 -0.7425
 6529TIP3   OH241077   4.872   6.773  11.513 -0.0204  0.0647 -0.2917
 6529TIP3    H141078   4.963   6.798  11.497  0.1289  0.5065  1.1415
 6529TIP3    H241079   4.847   6.823  11.591 -1.2012 -0.7481 -0.1365
 6530TIP3   OH241080   2.594   5.749  16.827  0.4182 -0.1955  0.3024
 6530TIP3    H141081   2.604   5.655  16.817  1.6703  0.0492 -0.9082
 6530TIP3    H241082   2.681   5.785  16.808 -0.2365  1.2636 -0.0315
 6531TIP3   OH241083   5.663   6.633   5.827 -0.3172  0.7502 -0.3374
 6531TIP3    H141084   5.671   6.713   5.879 -0.0285  0.6108 -0.1637
 6531TIP3    H241085   5.723   6.571   5.869 -1.2168  0.1523  0.0704
 6532TIP3   OH241086   5.600   6.534  15.821  0.1667 -0.2632 -0.5273
 6532TIP3    H141087   5.504   6.535  15.815  0.2052 -2.1131 -1.9306
 6532TIP3    H241088   5.629   6.581  15.743  0.4019 -0.7500 -0.7360
 6533TIP3   OH241089   1.727   5.038   1.094 -0.2290 -0.2817 -0.1149
 6533TIP3    H141090   1.702   4.963   1.148  0.6137 -1.2435 -1.0240
 6533TIP3    H241091   1.817   5.056   1.118 -0.0610 -0.2993 -0.7308
 6534TIP3   OH241092   1.171   6.695   3.282 -0.1987  0.6500 -0.1147
 6534TIP3    H141093   1.087   6.672   3.323 -0.2575 -0.2456 -0.7403
 6534TIP3    H241094   1.216   6.747   3.348  0.0757 -1.5066  1.4395
 6535TIP3   OH241095   2.554   5.513  13.535  0.2116 -0.7697 -0.0828
 6535TIP3    H141096   2.573   5.604  13.515  1.8190 -0.9239  0.6182
 6535TIP3    H241097   2.583   5.465  13.457  1.4152 -0.8660  0.4067
 6536TIP3   OH241098   0.721   2.094  11.480 -0.0940 -0.2073 -0.2472
 6536TIP3    H141099   0.796   2.071  11.425 -0.1002  0.9126 -0.7310
 6536TIP3    H241100   0.645   2.063  11.431 -0.0147 -0.3813 -0.2604
 6537TIP3   OH241101   5.067   0.338  16.428 -0.5042  0.2336 -0.2362
 6537TIP3    H141102   5.126   0.412  16.415  0.8813 -1.2143 -2.3714
 6537TIP3    H241103   5.053   0.302  16.341 -3.5041 -0.2879  0.3815
 6538TIP3   OH241104   5.728   4.075  13.039  0.3487  0.0574  0.0707
 6538TIP3    H141105   5.752   4.060  13.131 -0.4824  0.1765  0.3059
 6538TIP3    H241106   5.672   4.000  13.017 -0.2256  0.5232 -0.0554
 6539TIP3   OH241107   1.023   6.546  17.130  0.0779  0.1810 -0.4134
 6539TIP3    H141108   0.934   6.510  17.127  0.6158 -1.3292  0.9342
 6539TIP3    H241109   1.051   6.547  17.039 -0.3741 -1.8415 -0.6095
 6540TIP3   OH241110   0.478   2.118  15.487  0.1512 -0.4622  0.1788
 6540TIP3    H141111   0.438   2.155  15.408  3.5407 -1.3425 -2.0488
 6540TIP3    H241112   0.563   2.161  15.493 -0.3631  0.2363  3.9366
 6541TIP3   OH241113   6.459   2.715   3.863  0.0021  0.0342  0.3457
 6541TIP3    H141114   6.390   2.750   3.807  1.4187  1.1331 -0.7484
 6541TIP3    H241115   6.537   2.765   3.839  1.2730 -1.4657  1.2584
 6542TIP3   OH241116   6.412   0.143   3.264 -0.5044 -0.2940  0.3903
 6542TIP3    H141117   6.323   0.134   3.231 -0.4012  0.8434 -0.2219
 6542TIP3    H241118   6.452   0.057   3.249 -1.4451 -0.7724  0.5550
 6543TIP3   OH241119   4.790   4.922  11.424 -0.4259  0.1844 -0.3729
 6543TIP3    H141120   4.852   4.974  11.373 -1.7703  0.6256 -1.6247
 6543TIP3    H241121   4.725   4.893  11.360  0.3193 -3.1436  0.2790
 6544TIP3   OH241122   4.166   4.416   3.591  0.1441  0.1670 -0.3036
 6544TIP3    H141123   4.138   4.443   3.678  0.4942  1.0657 -0.4619
 6544TIP3    H241124   4.169   4.497   3.541  0.0465 -0.3316 -1.1258
 6545TIP3   OH241125   5.621   2.741  13.284 -0.0321 -0.9683 -0.2762
 6545TIP3    H141126   5.563   2.780  13.350  0.6715 -0.7611  0.2222
 6545TIP3    H241127   5.676   2.813  13.255 -2.0112 -0.4594 -2.9497
 6546TIP3   OH241128   0.456   4.520  12.254  0.1487  0.2206 -0.6366
 6546TIP3    H141129   0.365   4.509  12.278  0.6323 -0.0258  1.1198
 6546TIP3    H241130   0.493   4.432  12.254  0.5634  0.3906 -0.6711
 6547TIP3   OH241131   2.677   1.759  10.824 -1.0350 -0.1255  0.1634
 6547TIP3    H141132   2.763   1.794  10.801 -0.5540  0.6618  2.9412
 6547TIP3    H241133   2.617   1.798  10.761  0.5864 -0.4967 -1.6666
 6548TIP3   OH241134   2.075   5.609  15.514  0.1795 -0.2867  0.3623
 6548TIP3    H141135   2.154   5.597  15.567  0.0512  0.5364  0.7441
 6548TIP3    H241136   2.086   5.548  15.440  0.8805 -0.6169  0.7351
 6549TIP3   OH241137   3.590   6.642   3.849 -0.7276  0.0215  0.4403
 6549TIP3    H141138   3.684   6.652   3.838 -0.8112  0.2220 -0.1085
 6549TIP3    H241139   3.576   6.648   3.944 -0.2632  0.6374  0.4707
 6550TIP3   OH241140   4.535   0.880  17.020 -0.9771  0.2719  0.2089
 6550TIP3    H141141   4.572   0.797  17.049 -1.3200 -0.2347 -0.7634
 6550TIP3    H241142   4.501   0.861  16.932  0.8695  1.9831 -0.9157
 6551TIP3   OH241143   3.208   2.428  10.856 -0.1155  0.7434  0.1999
 6551TIP3    H141144   3.245   2.468  10.778  0.6465  0.0888  0.2199
 6551TIP3    H241145   3.116   2.411  10.834 -0.1506  1.4522 -0.2006
 6552TIP3   OH241146   4.860   2.930   5.510  0.1325 -0.0498 -0.1109
 6552TIP3    H141147   4.793   2.872   5.547  0.9491 -0.9266  0.0392
 6552TIP3    H241148   4.910   2.873   5.451 -0.4094  1.0415 -1.6647
 6553TIP3   OH241149   1.931   0.972  14.032 -0.4395  0.1927 -0.2540
 6553TIP3    H141150   1.975   1.040  13.982 -1.5151 -1.1358 -3.0954
 6553TIP3    H241151   1.896   1.018  14.109  1.3067  2.2458 -0.6327
 6554TIP3   OH241152   1.877   5.053   6.915 -0.0045 -0.2801  0.4305
 6554TIP3    H141153   1.788   5.083   6.896  0.5208  0.7921 -0.3833
 6554TIP3    H241154   1.876   5.033   7.008 -1.7050 -2.4269  0.0037
 6555TIP3   OH241155   0.058   2.496  15.009 -0.5434 -0.6283  0.0293
 6555TIP3    H141156   0.013   2.580  15.005 -0.4539 -0.5741  0.1504
 6555TIP3    H241157   0.002   2.440  15.062  0.5573  0.0748  1.9601
 6556TIP3   OH241158   2.106   3.308  12.226 -0.4690 -0.1356  0.2101
 6556TIP3    H141159   2.170   3.333  12.159 -1.7345  1.6470 -0.3966
 6556TIP3    H241160   2.027   3.288  12.176 -1.1125  0.1491  1.0965
 6557TIP3   OH241161   4.129   5.294   5.443  0.1481 -0.0469  0.1911
 6557TIP3    H141162   4.154   5.202   5.441  0.8765  0.1687 -2.9867
 6557TIP3    H241163   4.202   5.338   5.487  0.1623 -0.8771  1.0063
 6558TIP3   OH241164   0.255   3.368   0.824 -0.1443  0.3005 -0.5068
 6558TIP3    H141165   0.184   3.421   0.859 -0.2147 -0.2426  0.1917
 6558TIP3    H241166   0.213   3.289   0.792  0.4192 -1.2183  2.3757
 6559TIP3   OH241167   4.904   1.929  14.300 -0.1852 -0.3540 -0.2427
 6559TIP3    H141168   4.829   1.981  14.327 -1.2741 -2.3661  0.7408
 6559TIP3    H241169   4.878   1.890  14.216 -0.6978 -1.8697  0.5880
 6560TIP3   OH241170   1.961   3.004   3.297  0.6856 -0.2565 -0.3393
 6560TIP3    H141171   1.883   2.965   3.257  0.0124  1.1188 -0.4175
 6560TIP3    H241172   2.032   2.945   3.274 -0.3338 -1.5306 -0.2780
 6561TIP3   OH241173   1.212   2.696   0.373 -0.1363 -0.0267  0.1550
 6561TIP3    H141174   1.138   2.681   0.314 -0.1617  1.3336 -0.1957
 6561TIP3    H241175   1.252   2.610   0.385 -2.0231 -0.8482  0.6848
 6562TIP3   OH241176   0.405   1.417   3.262 -0.3532 -0.2371 -0.0805
 6562TIP3    H141177   0.358   1.481   3.315 -0.9280 -0.5267 -0.2448
 6562TIP3    H241178   0.460   1.370   3.325  0.8457  1.0993 -0.1019
 6563TIP3   OH241179   2.167   5.597  17.048  0.3502 -0.1782  0.4767
 6563TIP3    H141180   2.147   5.635  16.963 -0.8719  0.7897  1.1731
 6563TIP3    H241181   2.258   5.621  17.065 -0.3391  2.3338  0.8186
 6564TIP3   OH241182   2.910   5.805   1.350 -0.4713  0.9267 -0.3058
 6564TIP3    H141183   2.950   5.864   1.285  2.4774 -1.0615 -0.3961
 6564TIP3    H241184   2.839   5.762   1.303 -0.5056  1.9656 -1.2224
 6565TIP3   OH241185   1.650   0.327  13.585 -0.3539 -0.0022 -0.3157
 6565TIP3    H141186   1.640   0.270  13.661 -0.0571 -1.6697 -1.4854
 6565TIP3    H241187   1.561   0.344  13.555 -0.4044 -0.8016 -0.6307
 6566TIP3   OH241188   6.057   2.003   3.670 -0.0643  0.0779 -0.4138
 6566TIP3    H141189   6.041   1.910   3.686  0.9054  0.0591  0.5733
 6566TIP3    H241190   6.021   2.047   3.747  0.5351  0.4016 -0.3122
 6567TIP3   OH241191   3.984   0.451  13.206 -0.0808 -0.0930  0.3893
 6567TIP3    H141192   3.893   0.463  13.178  0.0512  2.0571  0.7925
 6567TIP3    H241193   3.996   0.516  13.276  1.0918 -1.9230  1.9378
 6568TIP3   OH241194   5.758   6.133   4.642  0.4408  0.1203 -0.2254
 6568TIP3    H141195   5.795   6.187   4.711  1.4269 -0.7010 -0.0874
 6568TIP3    H241196   5.833   6.084   4.608 -0.0104  0.5678 -1.9257
 6569TIP3   OH241197   3.902   5.389   5.600 -0.0741 -0.0523  0.1003
 6569TIP3    H141198   3.965   5.373   5.529 -0.4501 -1.6395  0.1056
 6569TIP3    H241199   3.951   5.442   5.663  0.7527  0.0877 -0.6385
 6570TIP3   OH241200   4.362   4.683   5.184  0.2008 -0.2119  0.0024
 6570TIP3    H141201   4.269   4.671   5.167 -0.4945  2.3396  1.6259
 6570TIP3    H241202   4.370   4.677   5.279  1.3735  1.3154  0.0225
 6571TIP3   OH241203   1.147   3.200   0.095  0.2744 -0.1445  0.3237
 6571TIP3    H141204   1.074   3.253   0.063  0.0006 -0.2951  0.6981
 6571TIP3    H241205   1.106   3.130   0.146  0.5787 -1.3160 -1.0092
 6572TIP3   OH241206   6.507   4.103   2.225  0.0510  0.1995 -0.3340
 6572TIP3    H141207   6.432   4.071   2.174  0.3678 -0.7044 -0.2223
 6572TIP3    H241208   6.467   4.157   2.293 -0.5272 -0.5511 -0.0688
 6573TIP3   OH241209   3.248   6.468  14.951 -0.0628 -0.2968 -0.5165
 6573TIP3    H141210   3.205   6.471  15.037 -0.6783  0.0800 -0.8381
 6573TIP3    H241211   3.190   6.415  14.897  0.0189 -0.0200 -0.8742
 6574TIP3   OH241212   3.113   2.638   5.592 -0.1543  0.2203 -0.2242
 6574TIP3    H141213   3.151   2.698   5.528 -1.6717  0.2066 -1.1508
 6574TIP3    H241214   3.167   2.559   5.586  0.4398  0.6535 -0.6256
 6575TIP3   OH241215   2.735   5.289   3.908  0.0377  0.2155 -0.1276
 6575TIP3    H141216   2.735   5.284   3.813 -2.5005 -1.3646 -0.0587
 6575TIP3    H241217   2.670   5.356   3.929  0.7822  0.7572  0.5005
 6576TIP3   OH241218   2.830   3.019  11.423 -0.1388 -0.4061 -0.0936
 6576TIP3    H141219   2.794   2.940  11.383  0.6207  0.7672 -3.2585
 6576TIP3    H241220   2.758   3.082  11.422  0.7632  0.6584 -2.7277
 6577TIP3   OH241221   1.616   3.751   4.179 -0.2825 -0.1983  0.5677
 6577TIP3    H141222   1.632   3.800   4.260 -0.1365  0.1039  0.3566
 6577TIP3    H241223   1.655   3.805   4.110  0.4687 -0.9281  0.4094
 6578TIP3   OH241224   1.094   2.881   3.778 -0.1683 -0.6256  0.3535
 6578TIP3    H141225   1.024   2.816   3.782 -0.3489 -0.4114  0.7662
 6578TIP3    H241226   1.049   2.962   3.752  0.2293 -0.9103 -1.2338
 6579TIP3   OH241227   6.321   3.771  13.673 -0.0148  0.1429 -0.6013
 6579TIP3    H141228   6.241   3.763  13.620  1.2051 -2.1805 -2.1861
 6579TIP3    H241229   6.391   3.781  13.609  1.1951  0.1508  0.7005
 6580TIP3   OH241230   3.018   6.633  16.744 -0.4033 -0.0780  0.5962
 6580TIP3    H141231   2.998   6.721  16.777 -0.5485 -0.2940  1.1015
 6580TIP3    H241232   2.955   6.618  16.673  1.6119  1.4132 -1.5542
 6581TIP3   OH241233   4.221   2.512  13.500 -0.1734 -0.0396  0.4190
 6581TIP3    H141234   4.148   2.471  13.547 -1.0051  1.7190  0.6871
 6581TIP3    H241235   4.297   2.457  13.522 -0.8289 -0.1312  2.6099
 6582TIP3   OH241236   5.049   2.691   2.380 -0.5358 -0.4235 -0.6483
 6582TIP3    H141237   5.009   2.631   2.442  0.4834 -1.1886 -0.7167
 6582TIP3    H241238   5.109   2.743   2.433 -0.2404 -0.5507 -0.8555
 6583TIP3   OH241239   6.809   4.758  16.406  0.3650 -0.5747  0.4722
 6583TIP3    H141240   6.839   4.684  16.353  0.2610  0.0540 -0.4828
 6583TIP3    H241241   6.722   4.732  16.436  0.2328 -0.7482 -0.0520
 6584TIP3   OH241242   2.033   3.587   6.619 -0.4162  0.2037  0.0131
 6584TIP3    H141243   1.950   3.558   6.659  1.9720 -2.3407  3.4291
 6584TIP3    H241244   2.047   3.675   6.654 -0.7207 -0.1373  1.0296
 6585TIP3   OH241245   6.115   3.954  13.120  0.5057 -0.2584 -0.0914
 6585TIP3    H141246   6.152   4.042  13.118 -0.7709  0.2675 -0.9817
 6585TIP3    H241247   6.191   3.896  13.126  1.3471  0.8951  0.6000
 6586TIP3   OH241248   2.244   0.354   1.061  0.1640 -0.1397  0.0497
 6586TIP3    H141249   2.284   0.361   0.974 -0.8648  1.8363 -0.3038
 6586TIP3    H241250   2.182   0.281   1.053  1.1417 -0.9364 -0.4200
 6587TIP3   OH241251   5.002   1.821  15.673  0.5573  0.2441  0.7399
 6587TIP3    H141252   5.028   1.763  15.744  0.3971 -1.4515 -0.5747
 6587TIP3    H241253   4.942   1.883  15.714 -0.9387 -1.8060  1.7228
 6588TIP3   OH241254   3.565   5.999   5.111  0.1986  0.8667  0.1906
 6588TIP3    H141255   3.565   6.093   5.130  2.1093  0.6917  1.1575
 6588TIP3    H241256   3.531   5.958   5.191  3.1714  0.5071  1.3708
 6589TIP3   OH241257   3.583   4.341   1.338 -0.0375  0.5040 -0.1689
 6589TIP3    H141258   3.620   4.256   1.361 -0.7816  0.0448 -0.6671
 6589TIP3    H241259   3.551   4.376   1.420  1.0169  0.6743  0.1821
 6590TIP3   OH241260   1.286   2.966   2.815 -0.6897 -0.3010  0.6271
 6590TIP3    H141261   1.223   3.038   2.821 -0.8426  0.0681 -3.6326
 6590TIP3    H241262   1.370   3.009   2.799  0.1571 -0.9373  3.0813
 6591TIP3   OH241263   1.862   3.898   5.517 -0.4725  0.1925  0.2609
 6591TIP3    H141264   1.793   3.887   5.452 -0.0503 -4.9669  0.4916
 6591TIP3    H241265   1.944   3.890   5.468 -0.1322 -0.6854  0.9511
 6592TIP3   OH241266   3.053   0.116   6.601  0.1002  0.0403  0.3369
 6592TIP3    H141267   3.055   0.043   6.663 -1.1775  0.4200  0.8288
 6592TIP3    H241268   3.031   0.192   6.655  0.2553  0.5924 -0.3795
 6593TIP3   OH241269   1.580   3.081  13.979 -0.2557 -0.6590 -0.1188
 6593TIP3    H141270   1.548   3.120  13.898 -0.7015 -1.0333 -0.1270
 6593TIP3    H241271   1.668   3.049  13.957  0.4445  1.0539  0.1172
 6594TIP3   OH241272   4.840   0.671   0.287 -0.5353 -0.0393  0.6341
 6594TIP3    H141273   4.933   0.682   0.265 -0.7352  0.0643 -0.1784
 6594TIP3    H241274   4.838   0.667   0.383  0.0655  2.2895  0.7748
 6595TIP3   OH241275   3.353   2.498   3.823 -0.2471 -1.0744 -0.1897
 6595TIP3    H141276   3.320   2.409   3.835  2.1585 -2.1152 -0.9334
 6595TIP3    H241277   3.421   2.508   3.890  0.7937 -0.4792 -1.3076
 6596TIP3   OH241278   0.316   2.623  14.151 -0.0071  0.2413 -0.0620
 6596TIP3    H141279   0.399   2.602  14.107  1.1399  1.5614  1.4396
 6596TIP3    H241280   0.320   2.576  14.234 -0.5766  0.6763  0.2100
 6597TIP3   OH241281   5.046   0.003   3.330 -0.2756  0.2138  0.2128
 6597TIP3    H141282   5.050   0.052   3.412 -0.4474 -0.3894  0.5819
 6597TIP3    H241283   5.137  -0.008   3.304 -0.1446 -0.9821  1.1496
 6598TIP3   OH241284   0.308   2.294  13.154 -0.5629  0.0329 -0.3204
 6598TIP3    H141285   0.295   2.369  13.095  0.2001 -0.6286 -1.3440
 6598TIP3    H241286   0.400   2.299  13.179 -0.2612 -1.1386 -1.1830
 6599TIP3   OH241287   0.819   6.406  10.444  0.3471  0.4287  0.4057
 6599TIP3    H141288   0.824   6.460  10.366  3.0723  0.1860  0.3767
 6599TIP3    H241289   0.824   6.468  10.517 -0.0691  0.4884  0.3844
 6600TIP3   OH241290   5.209   2.488  11.079  0.2989  0.2671 -0.5987
 6600TIP3    H141291   5.303   2.482  11.065  0.3221  0.6876 -0.6432
 6600TIP3    H241292   5.199   2.535  11.162  0.1273  0.4726 -0.7333
 6601TIP3   OH241293   3.825   2.281  14.797 -0.2934  0.1852 -0.5203
 6601TIP3    H141294   3.883   2.301  14.723  1.6293  2.7545  1.5948
 6601TIP3    H241295   3.879   2.231  14.857 -0.8057  0.9682  0.6144
 6602TIP3   OH241296   0.562   4.846  14.117  0.9497 -0.1395  0.0576
 6602TIP3    H141297   0.497   4.777  14.132 -0.3297  0.9018 -0.6742
 6602TIP3    H241298   0.621   4.839  14.193  1.1254 -2.3281 -0.2369
 6603TIP3   OH241299   1.752   4.119  13.429 -0.7767  0.0843 -0.0147
 6603TIP3    H141300   1.662   4.087  13.435 -0.6779 -0.5538 -1.6205
 6603TIP3    H241301   1.795   4.087  13.508 -2.1724  1.1250  1.1845
 6604TIP3   OH241302   4.153   3.912  13.032  0.3089  0.3693  0.3731
 6604TIP3    H141303   4.088   3.900  13.102 -2.3068 -1.9960 -2.2983
 6604TIP3    H241304   4.118   3.983  12.978  1.1956  0.7169  0.2433
 6605TIP3   OH241305   2.833   1.465  15.190 -0.2997  0.6542 -0.9062
 6605TIP3    H141306   2.892   1.477  15.115  1.4262 -0.4684  0.2254
 6605TIP3    H241307   2.872   1.517  15.260 -0.8890  0.2260 -0.2587
 6606TIP3   OH241308   6.251   6.383   1.607 -0.0449  0.2511  0.8690
 6606TIP3    H141309   6.189   6.316   1.636 -0.5304  0.6071  0.6507
 6606TIP3    H241310   6.227   6.402   1.517  1.7674 -1.1959  0.0404
 6607TIP3   OH241311   3.667   4.269  15.521 -0.4085 -0.2375  0.2449
 6607TIP3    H141312   3.588   4.283  15.573 -0.7143 -1.4027  0.0934
 6607TIP3    H241313   3.725   4.342  15.545 -1.0381 -0.0783  1.2792
 6608TIP3   OH241314   0.559   6.217  15.752  0.1280 -0.5122 -0.2038
 6608TIP3    H141315   0.547   6.188  15.662  0.3556  1.0706 -0.7642
 6608TIP3    H241316   0.561   6.313  15.746 -2.5640 -0.2549  1.7866
 6609TIP3   OH241317   4.909   5.270  16.120 -0.5251 -0.5536 -0.4440
 6609TIP3    H141318   4.878   5.357  16.147  0.5785 -0.8097  1.8077
 6609TIP3    H241319   4.862   5.252  16.038 -1.6443  1.6542 -0.3404
 6610TIP3   OH241320   6.794   2.752   2.423  0.3548 -0.2281 -0.4966
 6610TIP3    H141321   6.751   2.810   2.360 -0.2249 -0.2350 -0.1071
 6610TIP3    H241322   6.742   2.760   2.503  1.8079  0.7181  0.3753
 6611TIP3   OH241323   6.181   4.200   4.618 -0.2826  0.7127  0.1337
 6611TIP3    H141324   6.164   4.250   4.538 -3.2823  0.7524  0.7438
 6611TIP3    H241325   6.095   4.168   4.645  0.8705 -0.3978  2.6376
 6612TIP3   OH241326   3.108   3.921  12.969  0.3573  0.2366  0.0913
 6612TIP3    H141327   3.023   3.887  12.996 -0.2920  2.2362  0.6644
 6612TIP3    H241328   3.087   4.002  12.922  1.9538  0.7554  0.2456
 6613TIP3   OH241329   4.087   6.457  11.605 -0.0694 -0.5896  0.0765
 6613TIP3    H141330   4.123   6.539  11.570 -1.1704 -0.4025 -0.6313
 6613TIP3    H241331   4.017   6.434  11.545  0.9847 -2.6980 -0.3875
 6614TIP3   OH241332   2.252   1.580   4.487 -0.2382 -0.3372 -0.8907
 6614TIP3    H141333   2.203   1.662   4.485  0.0982 -0.1259 -0.6122
 6614TIP3    H241334   2.341   1.606   4.512 -0.3021 -0.8675 -0.0808
 6615TIP3   OH241335   6.723   6.096   2.076  0.0176 -0.2207  0.2738
 6615TIP3    H141336   6.816   6.073   2.066 -0.0386 -0.4028  0.1611
 6615TIP3    H241337   6.682   6.064   1.995  0.1097  1.1542 -0.3319
 6616TIP3   OH241338   1.093   4.241   2.307 -0.1267 -0.3227  0.6339
 6616TIP3    H141339   0.999   4.229   2.303 -0.0371 -1.4956  1.5108
 6616TIP3    H241340   1.127   4.154   2.327  1.1658  0.0210 -0.0087
 6617TIP3   OH241341   6.753   4.227   3.437  0.5082  0.6961  0.3239
 6617TIP3    H141342   6.766   4.170   3.361 -0.6422 -0.1790  0.7682
 6617TIP3    H241343   6.837   4.272   3.449  0.7321  0.7581 -1.3887
 6618TIP3   OH241344   3.594   4.906  16.388  0.0188 -0.0307 -0.1862
 6618TIP3    H141345   3.669   4.882  16.443 -0.3270 -0.1175  0.2503
 6618TIP3    H241346   3.592   4.840  16.319  0.1829 -0.1862 -0.0416
 6619TIP3   OH241347   6.756   6.426   0.711 -0.8433 -0.2258  0.2471
 6619TIP3    H141348   6.741   6.505   0.763 -2.0404 -0.5021  0.3518
 6619TIP3    H241349   6.845   6.399   0.734 -1.2117 -0.1324  1.8940
 6620TIP3   OH241350   2.146   4.102  16.436  0.2633 -0.1271 -0.6205
 6620TIP3    H141351   2.061   4.071  16.467  0.0259  0.1318 -1.0060
 6620TIP3    H241352   2.189   4.136  16.514  0.2450 -0.7882 -0.3183
 6621TIP3   OH241353   0.561   1.551  17.277  0.1742 -0.0707  0.5913
 6621TIP3    H141354   0.655   1.535  17.273 -0.0315 -1.0003 -1.5685
 6621TIP3    H241355   0.543   1.609  17.203 -1.0088 -0.2994  0.6853
 6622TIP3   OH241356   1.201   0.791  16.859  0.1104  0.5488  0.1244
 6622TIP3    H141357   1.155   0.712  16.831 -0.9433  1.1932 -0.0083
 6622TIP3    H241358   1.262   0.810  16.787  0.3130 -0.1047  0.1248
 6623TIP3   OH241359   5.826   6.466  15.605 -0.4765 -0.2137  1.0094
 6623TIP3    H141360   5.783   6.427  15.529 -0.1258  0.3022  0.5437
 6623TIP3    H241361   5.808   6.559  15.598  3.3530  0.5057 -0.9911
 6624TIP3   OH241362   2.308   6.815  12.639 -0.1422  0.2351 -0.2841
 6624TIP3    H141363   2.262   6.889  12.599 -0.8761 -0.4722 -0.7623
 6624TIP3    H241364   2.282   6.819  12.731  1.5102  1.8309  0.1530
 6625TIP3   OH241365   0.251   5.354  16.255 -0.1441 -0.2778 -0.3017
 6625TIP3    H141366   0.292   5.429  16.297  0.2889 -0.3302 -0.6355
 6625TIP3    H241367   0.323   5.296  16.231 -0.4813 -0.8618  0.0650
 6626TIP3   OH241368   5.529   3.689   0.201 -0.1032  0.1478 -0.1218
 6626TIP3    H141369   5.605   3.653   0.248 -0.1798 -0.6653 -0.6179
 6626TIP3    H241370   5.558   3.695   0.110  0.0232  1.6644  0.0129
 6627TIP3   OH241371   6.634   5.540  12.035 -0.3450  0.2482 -0.2103
 6627TIP3    H141372   6.641   5.520  11.941  1.7442 -1.0142  0.1858
 6627TIP3    H241373   6.590   5.625  12.038 -0.7381  0.1460 -2.3273
 6628TIP3   OH241374   1.114   4.798   2.125 -0.5487 -0.1393 -0.2814
 6628TIP3    H141375   1.170   4.744   2.180 -0.5691 -0.7822 -0.8994
 6628TIP3    H241376   1.105   4.750   2.043  2.0223  2.2403 -2.0515
 6629TIP3   OH241377   0.182   2.944   3.430  0.0833  0.4103 -0.3587
 6629TIP3    H141378   0.119   2.897   3.485  1.7127  0.0152  1.1893
 6629TIP3    H241379   0.267   2.909   3.455  1.1907  2.9094 -0.4630
 6630TIP3   OH241380   0.263   6.799   0.503  0.1764 -0.0806 -0.2329
 6630TIP3    H141381   0.190   6.782   0.443  1.3804 -2.7595 -1.0130
 6630TIP3    H241382   0.314   6.867   0.459 -0.1487 -0.4594 -1.2302
 6631TIP3   OH241383   1.723   4.236   3.372 -0.3849  0.3713 -0.2933
 6631TIP3    H141384   1.711   4.163   3.433 -1.0900 -0.8968 -1.8852
 6631TIP3    H241385   1.669   4.306   3.408 -0.7996 -0.3625  0.5449
 6632TIP3   OH241386   0.870   3.908  15.931  0.4678 -0.1209  0.5629
 6632TIP3    H141387   0.866   3.854  15.852  1.8949  2.2393 -1.1934
 6632TIP3    H241388   0.964   3.927  15.942  0.0963  1.1127  1.7489
 6633TIP3   OH241389   2.967   0.386  13.197  0.1346 -0.2283 -0.0787
 6633TIP3    H141390   3.036   0.443  13.163  0.2146  0.3708  1.0484
 6633TIP3    H241391   3.012   0.307  13.225  0.2882 -0.0828  0.0880
 6634TIP3   OH241392   5.839   1.512  12.711 -0.4566 -0.1289 -0.3280
 6634TIP3    H141393   5.829   1.419  12.692  2.7910 -0.7081  0.5497
 6634TIP3    H241394   5.862   1.516  12.804 -0.4414  1.5238 -0.3811
 6635TIP3   OH241395   0.524   1.060   0.449 -0.4517  0.3906  0.0324
 6635TIP3    H141396   0.554   1.138   0.495  3.1490 -1.2042  0.5657
 6635TIP3    H241397   0.490   1.003   0.517 -0.9357  0.5746 -0.0579
 6636TIP3   OH241398   4.327   6.789   9.943 -0.2005 -0.1659  0.0141
 6636TIP3    H141399   4.244   6.774   9.989 -0.4418  0.0178 -0.3572
 6636TIP3    H241400   4.371   6.856   9.995 -1.6059  1.9369 -1.4080
 6637TIP3   OH241401   0.672   5.888   4.217 -0.5543 -0.3710 -0.2605
 6637TIP3    H141402   0.588   5.874   4.261 -0.1339 -2.1026  0.0328
 6637TIP3    H241403   0.732   5.912   4.288 -0.5467 -0.2363 -0.3126
 6638TIP3   OH241404   0.481   2.250   4.365  0.0648  0.1521 -0.1109
 6638TIP3    H141405   0.452   2.303   4.291  0.4577  0.2401 -0.2031
 6638TIP3    H241406   0.552   2.300   4.405 -1.3880  0.9906  1.4671
 6639TIP3   OH241407   6.752   1.890  11.428  0.1815 -0.3880 -0.4107
 6639TIP3    H141408   6.842   1.861  11.413  0.0775  0.6837 -3.4492
 6639TIP3    H241409   6.750   1.980  11.395 -2.2584 -0.7630 -1.3736
 6640TIP3   OH241410   3.261   6.531   1.335 -0.3841 -0.0311  0.0202
 6640TIP3    H141411   3.287   6.554   1.246 -1.0758  0.6852 -0.0080
 6640TIP3    H241412   3.303   6.447   1.352  0.8279  0.4488 -0.5036
 6641TIP3   OH241413   6.772   3.226   3.155  0.2894 -0.1165  0.9461
 6641TIP3    H141414   6.853   3.270   3.129 -0.0954  0.3089  0.4473
 6641TIP3    H241415   6.737   3.281   3.226  0.5760 -0.4477  1.3417
 6642TIP3   OH241416   1.902   6.531   1.758  0.6652 -0.2097 -0.1890
 6642TIP3    H141417   1.973   6.594   1.765  1.6799 -1.3975  0.5113
 6642TIP3    H241418   1.907   6.499   1.668 -0.1174  0.9862 -0.6739
 6643TIP3   OH241419   4.050   3.537  14.910  0.6004 -0.2473  0.3256
 6643TIP3    H141420   4.075   3.627  14.889 -0.1312 -0.3364 -1.0647
 6643TIP3    H241421   4.077   3.486  14.833  1.0640 -1.2289  1.1221
 6644TIP3   OH241422   1.986   6.198   5.598 -0.2070 -0.4498 -0.2210
 6644TIP3    H141423   2.054   6.170   5.659 -0.4904 -1.7263 -0.4788
 6644TIP3    H241424   2.033   6.247   5.530  0.2543 -0.0481  0.3788
 6645TIP3   OH241425   0.851   0.145   2.139  0.2403 -0.7035 -0.0610
 6645TIP3    H141426   0.939   0.168   2.110 -0.8120  0.9877 -2.0510
 6645TIP3    H241427   0.804   0.124   2.058 -0.7682 -3.1893  1.1116
 6646TIP3   OH241428   2.303   5.925   4.371  0.4110  0.1400  0.3216
 6646TIP3    H141429   2.340   5.862   4.310  0.7215 -0.8810  1.5309
 6646TIP3    H241430   2.278   5.873   4.447  1.0525  1.5220  1.5182
 6647TIP3   OH241431   2.567   2.059  17.271 -0.1697  0.6139 -0.1745
 6647TIP3    H141432   2.535   2.070  17.182  1.1657  1.8553 -0.5304
 6647TIP3    H241433   2.650   2.108  17.273 -0.2590  0.7376  1.7833
 6648TIP3   OH241434   5.774   3.990  11.130  0.2229  0.5824 -0.1305
 6648TIP3    H141435   5.742   3.901  11.121 -1.0409  1.1056 -1.0598
 6648TIP3    H241436   5.812   4.011  11.044  2.0203  0.3828  0.5885
 6649TIP3   OH241437   3.647   6.228  14.196  0.0695 -0.0933  0.1683
 6649TIP3    H141438   3.688   6.170  14.132  0.0780  1.2760 -1.1017
 6649TIP3    H241439   3.687   6.205  14.279  1.4969 -0.5675 -0.6427
 6650TIP3   OH241440   0.069   1.884   1.617 -0.0836  0.1090 -0.2828
 6650TIP3    H141441   0.042   1.809   1.564 -0.7088  0.0803  0.0686
 6650TIP3    H241442  -0.011   1.936   1.628  0.4407  1.0482 -0.8827
 6651TIP3   OH241443   0.304   0.776   0.101 -0.6072 -0.1705 -0.3389
 6651TIP3    H141444   0.247   0.842   0.062 -1.1560  0.8862  2.1728
 6651TIP3    H241445   0.384   0.780   0.049 -2.6076 -1.3747 -3.6546
 6652TIP3   OH241446   0.626   0.748  15.125 -0.0436 -0.2236  0.0986
 6652TIP3    H141447   0.718   0.771  15.137 -0.1108  1.6047 -2.4312
 6652TIP3    H241448   0.577   0.816  15.171 -0.1847 -2.4030  3.3336
 6653TIP3   OH241449   4.822   4.064  17.065  0.2374 -0.3092 -0.1154
 6653TIP3    H141450   4.901   4.112  17.091  0.9310 -0.7280 -1.4167
 6653TIP3    H241451   4.754   4.096  17.125  1.8453 -1.4477  2.4358
 6654TIP3   OH241452   3.084   5.268   4.211 -0.2508  0.3664  0.6145
 6654TIP3    H141453   2.999   5.241   4.244 -1.0492  1.8349 -0.1688
 6654TIP3    H241454   3.094   5.222   4.128 -1.3252  1.9328 -0.4104
 6655TIP3   OH241455   4.546   3.507   0.625 -0.3824 -0.4656  0.5124
 6655TIP3    H141456   4.540   3.436   0.689  1.7448 -0.4266  0.7862
 6655TIP3    H241457   4.497   3.474   0.549 -0.1430 -1.8855  0.9470
 6656TIP3   OH241458   5.281   6.506   4.678  0.0352 -0.6099  0.2909
 6656TIP3    H141459   5.217   6.462   4.734  0.9032  1.3137  2.8938
 6656TIP3    H241460   5.362   6.505   4.729  0.9141  1.0396 -1.0179
 6657TIP3   OH241461   3.772   5.476  17.163 -0.1366  0.0049  0.6642
 6657TIP3    H141462   3.705   5.408  17.155  0.0309 -0.0293 -0.4340
 6657TIP3    H241463   3.726   5.550  17.204 -0.4637 -0.5536  1.3214
 6658TIP3   OH241464   2.344   5.163  12.018  0.5081 -0.4124  0.2188
 6658TIP3    H141465   2.356   5.258  12.014 -0.4173 -0.2485  1.1059
 6658TIP3    H241466   2.339   5.143  12.112  0.6012 -1.3265  0.0388
 6659TIP3   OH241467   2.870   2.725   5.686 -0.3629  0.0960  0.8653
 6659TIP3    H141468   2.847   2.678   5.767  0.6173  1.0937  1.7345
 6659TIP3    H241469   2.964   2.710   5.676 -0.8018 -1.6233 -1.1486
 6660TIP3   OH241470   5.219   2.363   4.387  0.5321  0.1126 -0.2663
 6660TIP3    H141471   5.204   2.404   4.302  1.4749  0.0911 -0.4484
 6660TIP3    H241472   5.310   2.335   4.385  0.0908 -1.4569  0.0815
 6661TIP3   OH241473   4.279   6.777   0.802 -0.1398  0.0297  0.1038
 6661TIP3    H141474   4.313   6.855   0.846  3.1191  0.4342 -2.8590
 6661TIP3    H241475   4.278   6.710   0.871  0.8432  1.6663  1.7797
 6662TIP3   OH241476   0.049   0.874   1.626  0.7141  0.1970 -0.1508
 6662TIP3    H141477   0.090   0.954   1.661  0.2235  0.0445  0.8014
 6662TIP3    H241478  -0.028   0.906   1.579  1.3724  0.4042 -1.1051
 6663TIP3   OH241479   6.071   0.046  14.050  0.6539 -0.3081  0.2920
 6663TIP3    H141480   6.062   0.079  13.961  0.1644 -1.8207 -0.2369
 6663TIP3    H241481   6.148   0.090  14.085 -0.8228  2.4787  0.1395
 6664TIP3   OH241482   4.932   0.673   1.150 -0.4581 -0.0477  0.2500
 6664TIP3    H141483   4.915   0.655   1.057 -0.1093  1.9852 -0.2384
 6664TIP3    H241484   4.922   0.588   1.193  0.7135 -1.2982 -1.8312
 6665TIP3   OH241485   2.931   2.649   5.069 -0.2747  0.2164  0.0643
 6665TIP3    H141486   2.911   2.616   5.157 -0.9027 -0.9010 -0.4829
 6665TIP3    H241487   2.953   2.570   5.019 -1.7907  0.6215 -1.2574
 6666TIP3   OH241488   0.625   3.329  15.739 -0.0033 -0.3367 -0.3438
 6666TIP3    H141489   0.631   3.414  15.696 -0.5164 -0.8554 -1.4654
 6666TIP3    H241490   0.569   3.345  15.815  0.6198  0.5090 -0.0503
 6667TIP3   OH241491   5.801   4.406  11.260  0.6483  0.1367 -0.0567
 6667TIP3    H141492   5.840   4.472  11.202 -0.5318  0.3428 -0.6324
 6667TIP3    H241493   5.768   4.339  11.200 -1.7704  0.9880  0.2895
 6668TIP3   OH241494   2.722   5.963   5.629  0.1268  0.3516 -0.0588
 6668TIP3    H141495   2.790   5.944   5.564 -0.1697  0.5975 -0.4424
 6668TIP3    H241496   2.748   5.912   5.706  1.6074  1.6656  0.3351
 6669TIP3   OH241497   2.183   5.969  12.274  0.1414  0.2208  0.2538
 6669TIP3    H141498   2.276   5.956  12.255  0.0894 -1.2440  0.9432
 6669TIP3    H241499   2.163   5.905  12.343 -2.1157 -1.8034 -2.1501
 6670TIP3   OH241500   5.070   0.796   3.890  0.4101  0.4690  0.4087
 6670TIP3    H141501   5.024   0.873   3.922  0.0567  0.2964  0.3126
 6670TIP3    H241502   5.001   0.732   3.870  0.5471  0.9507 -1.7071
 6671TIP3   OH241503   2.259   0.903  17.153 -0.5661 -0.0298  0.1395
 6671TIP3    H141504   2.279   0.902  17.247  1.2163 -0.6153 -0.2382
 6671TIP3    H241505   2.324   0.846  17.113  0.0204  1.8816 -1.7216
 6672TIP3   OH241506   3.824   1.653   3.489 -0.6289  0.2071  0.3347
 6672TIP3    H141507   3.896   1.682   3.432 -1.5998  1.0338 -0.4786
 6672TIP3    H241508   3.745   1.666   3.437 -1.4710  0.3746  1.6401
 6673TIP3   OH241509   1.543   4.740   0.839 -0.2864 -0.0784 -0.0589
 6673TIP3    H141510   1.529   4.811   0.776  2.0357 -1.2417 -1.9561
 6673TIP3    H241511   1.504   4.663   0.798 -1.0522 -0.3242  1.1134
 6674TIP3   OH241512   3.625   3.826  12.569  0.0320 -0.6388  0.0572
 6674TIP3    H141513   3.623   3.817  12.474 -0.7603 -0.1716  0.0226
 6674TIP3    H241514   3.667   3.911  12.584 -3.6322  1.3063 -0.0419
 6675TIP3   OH241515   2.496   5.256   4.176 -0.4482  0.1083  0.2207
 6675TIP3    H141516   2.418   5.284   4.222 -0.0496  1.1604  0.2699
 6675TIP3    H241517   2.514   5.327   4.114  0.5440 -0.0515  0.3178
 6676TIP3   OH241518   6.510   6.185  10.599 -0.1300 -0.2500  0.0784
 6676TIP3    H141519   6.436   6.232  10.636  0.5852  0.1105  1.0847
 6676TIP3    H241520   6.481   6.158  10.512 -1.1419  0.6089  0.1421
 6677TIP3   OH241521   6.098   4.642   4.087 -0.1234  0.4374  0.3507
 6677TIP3    H141522   6.185   4.676   4.067 -0.9917  1.5835 -1.5808
 6677TIP3    H241523   6.038   4.713   4.064 -2.0268 -2.4501 -4.2999
 6678TIP3   OH241524   1.635   3.203  16.557 -0.0333  0.0307  0.2656
 6678TIP3    H141525   1.698   3.145  16.514 -0.0239  1.4763 -1.7447
 6678TIP3    H241526   1.686   3.249  16.623  0.8243  0.4933 -0.7053
 6679TIP3   OH241527   0.743   2.877   2.009 -0.4553 -0.2754  0.0085
 6679TIP3    H141528   0.774   2.967   1.999 -1.6930  0.1382 -0.1054
 6679TIP3    H241529   0.652   2.879   1.979  0.0864 -1.9742 -1.7963
 6680TIP3   OH241530   2.485   6.212   3.957  0.7225 -0.4014  0.5255
 6680TIP3    H141531   2.429   6.208   3.879 -0.0101 -0.5751  1.0508
 6680TIP3    H241532   2.440   6.274   4.015  0.8605 -0.8597  1.1238
 6681TIP3   OH241533   3.554   3.972  15.587  0.3488 -0.3643  0.2956
 6681TIP3    H141534   3.538   4.067  15.591  0.2147 -0.3908  0.4036
 6681TIP3    H241535   3.591   3.950  15.672  0.1488 -0.4521  0.3594
 6682TIP3   OH241536   5.680   6.505  17.154  0.5925 -0.3108  0.0243
 6682TIP3    H141537   5.773   6.488  17.138  0.6163  1.2296 -1.6506
 6682TIP3    H241538   5.634   6.438  17.103  0.7739  0.2351 -0.8726
 6683TIP3   OH241539   1.974   3.476   4.829  0.2235  0.0925  0.2901
 6683TIP3    H141540   1.917   3.408   4.792 -1.3056  0.8823  1.1383
 6683TIP3    H241541   1.986   3.449   4.920  2.7228 -1.0395 -0.3513
 6684TIP3   OH241542   1.725   0.985   5.286 -0.6867  0.1808  0.2091
 6684TIP3    H141543   1.679   1.028   5.213 -1.5797 -0.5638  0.3218
 6684TIP3    H241544   1.810   0.961   5.250 -1.6958 -1.5612 -1.0669
 6685TIP3   OH241545   0.426   2.488   2.616 -0.5614 -0.4566  0.2305
 6685TIP3    H141546   0.417   2.483   2.521  1.0076  0.4106  0.0249
 6685TIP3    H241547   0.338   2.508   2.647 -0.7834  0.7543 -1.1566
 6686TIP3   OH241548   0.674   3.797   0.130 -0.2348  0.2235 -0.1668
 6686TIP3    H141549   0.599   3.838   0.087  0.3979 -1.4802 -2.9516
 6686TIP3    H241550   0.635   3.743   0.199 -1.4876  0.2070 -0.8726
 6687TIP3   OH241551   2.729   3.734   3.406 -0.0819 -0.0752  0.5083
 6687TIP3    H141552   2.704   3.780   3.327  1.1530 -0.6281 -0.2293
 6687TIP3    H241553   2.732   3.801   3.474 -2.7944  0.1241  0.4898
 6688TIP3   OH241554   2.461   4.485  16.188 -0.1739 -0.2188 -0.1307
 6688TIP3    H141555   2.415   4.421  16.242 -1.6258  2.9024  2.5208
 6688TIP3    H241556   2.517   4.532  16.250 -1.1364  2.8149 -1.4783
 6689TIP3   OH241557   6.076   5.615  10.900 -0.2112 -0.3453  0.0586
 6689TIP3    H141558   5.993   5.620  10.851  0.4586  1.8927 -0.9002
 6689TIP3    H241559   6.133   5.679  10.857  1.4201 -0.5505  1.8683
 6690TIP3   OH241560   3.987   3.132   1.645  0.3712  0.1838 -0.3206
 6690TIP3    H141561   4.018   3.120   1.734  0.4156 -0.8619 -0.4773
 6690TIP3    H241562   3.954   3.222   1.643  1.7050  0.6973  0.3491
 6691TIP3   OH241563   4.127   2.949   1.489  0.0940 -0.8015  0.1022
 6691TIP3    H141564   4.138   3.025   1.546  1.8462 -0.8353 -0.1618
 6691TIP3    H241565   4.033   2.935   1.486 -0.4391  2.6381 -1.5198
 6692TIP3   OH241566   1.465   5.724   5.286 -0.5385  0.1780  0.1426
 6692TIP3    H141567   1.431   5.804   5.245 -1.3443  1.6951  3.6384
 6692TIP3    H241568   1.560   5.734   5.282 -0.6257  0.9215 -0.1379
 6693TIP3   OH241569   2.870   3.464   3.928 -0.1838 -0.5864 -0.5303
 6693TIP3    H141570   2.850   3.434   4.017  2.5322 -0.0503  0.2970
 6693TIP3    H241571   2.965   3.463   3.923 -0.2695  0.2157 -3.1812
 6694TIP3   OH241572   0.461   5.246  13.953  0.3955  0.5878  0.0285
 6694TIP3    H141573   0.405   5.301  14.007  0.2358  1.5554 -1.1095
 6694TIP3    H241574   0.542   5.237  14.003  0.5120  2.0606  0.1047
 6695TIP3   OH241575   4.708   6.548  14.706 -0.0967 -0.0620 -0.0935
 6695TIP3    H141576   4.684   6.621  14.762 -1.0536 -0.7632  0.4406
 6695TIP3    H241577   4.743   6.482  14.765  0.1587 -0.2828 -0.4864
 6696TIP3   OH241578   1.233   0.277  14.832  0.2319  0.1978  0.0879
 6696TIP3    H141579   1.151   0.314  14.867  0.2641 -0.0449  0.4284
 6696TIP3    H241580   1.302   0.326  14.876  0.2924  2.1562 -2.0655
 6697TIP3   OH241581   4.939   6.026  14.226 -0.0216  0.1990  0.3261
 6697TIP3    H141582   5.031   6.002  14.234  0.2120  0.8035 -0.4932
 6697TIP3    H241583   4.905   5.966  14.159 -0.3246 -0.2864  0.9052
 6698TIP3   OH241584   1.137   3.282  16.541  0.2189  0.3107  0.2295
 6698TIP3    H141585   1.069   3.223  16.506  0.6470  0.4984 -0.9221
 6698TIP3    H241586   1.218   3.233  16.532  0.3711  0.4652  0.7377
 6699TIP3   OH241587   4.230   2.862  15.461  0.0422 -0.3028  0.2132
 6699TIP3    H141588   4.281   2.874  15.541  0.9579  0.4507 -0.4672
 6699TIP3    H241589   4.293   2.876  15.390 -1.2211  1.1852 -0.6483
 6700TIP3   OH241590   1.974   0.800   1.295 -0.2946  0.4992  0.1260
 6700TIP3    H141591   1.989   0.787   1.201 -0.8317  1.2499 -0.0617
 6700TIP3    H241592   1.931   0.885   1.301 -0.3713  0.3949  1.0469
 6701TIP3   OH241593   1.138   3.332  14.202  0.0882  0.2918 -0.5875
 6701TIP3    H141594   1.190   3.403  14.238  2.2416  0.0720 -3.0840
 6701TIP3    H241595   1.201   3.275  14.159 -2.0379 -0.8910 -2.2829
 6702TIP3   OH241596   5.247   0.145  14.041 -0.1898 -0.1839  0.2300
 6702TIP3    H141597   5.205   0.060  14.024 -0.4909 -0.3033  1.5105
 6702TIP3    H241598   5.181   0.210  14.019 -0.0803 -0.2886 -0.4154
 6703TIP3   OH241599   5.294   0.017   0.708 -0.1446 -0.4854  0.3113
 6703TIP3    H141600   5.226  -0.031   0.660 -2.0943 -0.3774  2.8593
 6703TIP3    H241601   5.323  -0.044   0.776  1.8521 -0.2800 -0.3275
 6704TIP3   OH241602   2.072   6.753   1.675 -0.1062 -0.5743  0.8279
 6704TIP3    H141603   2.080   6.830   1.730 -1.2196 -0.4573  0.8508
 6704TIP3    H241604   2.162   6.725   1.658  0.2580 -0.3884  2.3885
 6705TIP3   OH241605   5.567   0.497  11.890  0.4815 -0.4335  0.0202
 6705TIP3    H141606   5.528   0.568  11.838  0.6745 -0.7531 -0.5665
 6705TIP3    H241607   5.583   0.536  11.975 -0.8715 -0.2104  0.1924
 6706TIP3   OH241608   1.256   6.748   2.505 -0.2712 -0.1604 -0.1819
 6706TIP3    H141609   1.260   6.662   2.548 -1.4513 -0.3544 -0.4495
 6706TIP3    H241610   1.215   6.805   2.571  4.0138  1.1678  1.5212
 6707TIP3   OH241611   2.490   2.874   3.001  0.7940 -0.0674 -0.0698
 6707TIP3    H141612   2.465   2.953   3.049  1.9261 -0.1617  0.6942
 6707TIP3    H241613   2.573   2.898   2.959 -0.0088 -0.1005 -1.6973
 6708TIP3   OH241614   4.238   1.462  12.872 -0.1656 -0.1362  0.0758
 6708TIP3    H141615   4.240   1.367  12.883  1.2447 -0.3041 -1.3916
 6708TIP3    H241616   4.211   1.496  12.957 -0.5180 -1.8362  0.6576
 6709TIP3   OH241617   5.253   1.921   4.886 -0.4014  0.1684 -0.4594
 6709TIP3    H141618   5.261   2.012   4.856  1.2417 -0.0534 -0.7657
 6709TIP3    H241619   5.344   1.892   4.895 -0.9181 -1.7130 -1.1750
 6710TIP3   OH241620   1.018   6.160   0.795  0.0497 -0.0474  0.0779
 6710TIP3    H141621   0.925   6.147   0.781  0.1458 -0.4252 -0.2107
 6710TIP3    H241622   1.053   6.177   0.708  0.3731 -0.6759  0.0840
 6711TIP3   OH241623   2.026   4.018   3.374 -0.1681  0.0116  0.5764
 6711TIP3    H141624   2.079   3.939   3.383  0.1699  0.1935  0.1934
 6711TIP3    H241625   1.936   3.987   3.383  0.0200 -0.1909  1.9677
 6712TIP3   OH241626   5.635   0.654   2.641 -0.4380  0.1684 -0.1918
 6712TIP3    H141627   5.593   0.716   2.701  0.0444  0.2216  0.0896
 6712TIP3    H241628   5.623   0.692   2.554  1.7805  1.7609  0.1623
 6713TIP3   OH241629   0.599   6.817   2.376  0.0017  0.1893 -0.2458
 6713TIP3    H141630   0.681   6.768   2.386 -0.5894 -0.6758  0.5274
 6713TIP3    H241631   0.554   6.774   2.303  0.1978  0.5961 -0.6016
 6714TIP3   OH241632   2.321   0.710   5.435 -0.1206  0.2176  0.1329
 6714TIP3    H141633   2.330   0.752   5.350 -0.9019  0.0441 -0.0362
 6714TIP3    H241634   2.229   0.721   5.459  0.3784  1.4538  1.5789
 6715TIP3   OH241635   5.561   0.325   2.595 -0.1755 -0.7350 -0.2290
 6715TIP3    H141636   5.495   0.312   2.526  0.8745  2.3122 -1.9208
 6715TIP3    H241637   5.644   0.303   2.553  0.3409 -0.0822  0.4318
 6716TIP3   OH241638   4.738   3.241   4.777 -0.2042 -0.1718 -0.0463
 6716TIP3    H141639   4.745   3.168   4.839  0.0176 -0.1155 -0.0050
 6716TIP3    H241640   4.660   3.221   4.726 -0.0591 -0.5189 -0.1364
 6717TIP3   OH241641   2.401   4.150  12.613 -0.1531 -0.3268  0.5216
 6717TIP3    H141642   2.461   4.127  12.684  1.5708  1.0802 -0.4491
 6717TIP3    H241643   2.426   4.093  12.540  0.4311  0.6639 -0.0725
 6718TIP3   OH241644   4.551   3.345  15.351  0.3403  0.0668  0.1142
 6718TIP3    H141645   4.477   3.320  15.296 -0.3873 -0.6205  1.3696
 6718TIP3    H241646   4.613   3.386  15.291 -1.6062  1.8165 -0.7373
 6719TIP3   OH241647   0.662   4.665   0.860  0.4221  0.7234  0.0791
 6719TIP3    H141648   0.734   4.699   0.914  0.3413 -0.5638  1.0414
 6719TIP3    H241649   0.607   4.741   0.842  1.2505  1.4500  0.5674
 6720TIP3   OH241650   6.601   4.336  16.733 -0.3504  0.0812  0.0708
 6720TIP3    H141651   6.556   4.411  16.694 -0.7889 -1.1947 -1.9475
 6720TIP3    H241652   6.656   4.302  16.662  0.5154 -0.9776  1.2325
 6721TIP3   OH241653   0.272   1.326   4.993 -0.0800 -0.2530 -0.0623
 6721TIP3    H141654   0.297   1.356   4.906  0.2260 -2.1923 -0.6603
 6721TIP3    H241655   0.218   1.397   5.028  0.1959  0.7579 -1.6295
 6722TIP3   OH241656   1.120   2.417  13.706  0.0434 -0.1695 -0.3164
 6722TIP3    H141657   1.174   2.341  13.725  1.6655  0.9874 -0.1851
 6722TIP3    H241658   1.047   2.412  13.768  0.9424 -0.7891  0.6913
 6723TIP3   OH241659   5.458   5.172   1.019  0.1104  0.7550 -0.0167
 6723TIP3    H141660   5.419   5.216   1.094  0.4039  0.8965  0.0573
 6723TIP3    H241661   5.405   5.199   0.945  0.4315  1.4352 -0.0080
 6724TIP3   OH241662   0.681   6.416  11.233  0.5927  0.3981 -0.1998
 6724TIP3    H141663   0.669   6.321  11.238  0.2091  0.5170  1.3266
 6724TIP3    H241664   0.720   6.440  11.317 -0.1330  1.6959 -0.2177
 6725TIP3   OH241665   6.663   2.409   1.677  0.3430  0.3508 -0.1790
 6725TIP3    H141666   6.593   2.467   1.706  0.1627  0.3908 -0.6860
 6725TIP3    H241667   6.693   2.365   1.756 -1.8398 -1.4283 -0.2998
 6726TIP3   OH241668   3.752   2.334  11.397  0.7434 -0.0428  0.2060
 6726TIP3    H141669   3.683   2.306  11.337  0.8113  0.5210 -0.1447
 6726TIP3    H241670   3.721   2.418  11.431  0.9966 -0.0620  0.4810
 6727TIP3   OH241671   5.049   0.143   2.905  0.5650 -0.1519 -0.4597
 6727TIP3    H141672   5.026   0.135   2.997  0.0211  1.1616 -0.4606
 6727TIP3    H241673   4.965   0.147   2.860  0.8276 -2.3359 -1.1736
 6728TIP3   OH241674   1.594   2.061   2.390  0.0332 -0.0685 -0.3091
 6728TIP3    H141675   1.675   2.099   2.421  0.5829 -0.3678 -1.3611
 6728TIP3    H241676   1.610   1.966   2.390 -0.3793 -0.1418 -0.3188
 6729TIP3   OH241677   2.499   0.033   3.680  0.2783  0.0184 -0.5082
 6729TIP3    H141678   2.531  -0.013   3.758 -1.4020  0.0928  0.2503
 6729TIP3    H241679   2.434   0.095   3.714 -1.1317 -0.5629 -2.0585
 6730TIP3   OH241680   5.554   2.406  17.025 -0.9717 -0.5552  0.3979
 6730TIP3    H141681   5.490   2.468  16.991  1.0789  1.8127  0.6732
 6730TIP3    H241682   5.550   2.415  17.120  0.2890  0.1924  0.3939
 6731TIP3   OH241683   3.988   6.091  11.807 -0.1954 -0.1861  0.1318
 6731TIP3    H141684   4.038   6.010  11.799  1.5053  0.9642 -1.5026
 6731TIP3    H241685   3.925   6.087  11.734  0.5448  0.3700 -0.5542
 6732TIP3   OH241686   5.216   3.915  13.642  0.4912 -0.1492  0.2822
 6732TIP3    H141687   5.224   3.980  13.712 -1.0015 -1.5091  1.7437
 6732TIP3    H241688   5.173   3.962  13.570  2.7285  1.4658 -0.0524
 6733TIP3   OH241689   6.684   5.059   5.478  0.2575  0.1303 -0.0085
 6733TIP3    H141690   6.683   5.154   5.461 -0.1899 -0.1051 -1.3455
 6733TIP3    H241691   6.592   5.035   5.485  0.3449 -0.3642 -0.5540
 6734TIP3   OH241692   5.108   2.041   5.921  0.1872  0.1948 -0.5858
 6734TIP3    H141693   5.101   1.950   5.948 -0.2394  0.8503  1.5620
 6734TIP3    H241694   5.026   2.059   5.874 -0.7692  0.1351  1.0385
 6735TIP3   OH241695   6.810   5.282  11.982  0.1775 -0.1370 -0.5283
 6735TIP3    H141696   6.841   5.290  11.892 -0.8154 -1.0799 -0.9607
 6735TIP3    H241697   6.790   5.371  12.010 -1.5169 -0.0616 -1.9505
 6736TIP3   OH241698   6.170   3.721  15.115 -0.0301  0.4102 -0.3097
 6736TIP3    H141699   6.239   3.755  15.058 -0.2325 -0.4651 -1.0850
 6736TIP3    H241700   6.213   3.708  15.200  0.6120  0.4351 -0.6277
 6737TIP3   OH241701   6.418   2.693  15.089  0.3350 -0.0194 -0.3752
 6737TIP3    H141702   6.327   2.714  15.067  0.1589  0.0028  0.3418
 6737TIP3    H241703   6.422   2.705  15.184  0.2911 -3.0940  0.0432
 6738TIP3   OH241704   4.884   0.903  11.588  0.2080 -0.5360  0.1842
 6738TIP3    H141705   4.846   0.817  11.607 -0.7597 -0.1188  0.1972
 6738TIP3    H241706   4.908   0.899  11.496 -1.0387 -0.3874 -0.1582
 6739TIP3   OH241707   6.185   0.833   4.352  0.1872  0.3546 -0.0345
 6739TIP3    H141708   6.134   0.789   4.284  0.3672  0.1651 -0.0444
 6739TIP3    H241709   6.248   0.887   4.304  1.1688 -0.7666 -0.0082
 6740TIP3   OH241710   6.443   0.529  13.375 -0.1278 -0.5103 -0.3582
 6740TIP3    H141711   6.425   0.493  13.288 -0.7785 -0.5797 -0.1939
 6740TIP3    H241712   6.386   0.605  13.381 -0.3669 -0.7350  0.1687
 6741TIP3   OH241713   3.821   0.989  14.519  0.3988  0.0111 -0.0831
 6741TIP3    H141714   3.846   1.079  14.539  0.7590 -0.5436  2.1747
 6741TIP3    H241715   3.903   0.945  14.498  0.0198  0.5886 -2.9166
 6742TIP3   OH241716   6.043   5.069   3.427 -0.2881  0.0565 -0.1155
 6742TIP3    H141717   6.056   5.157   3.461 -0.2331  0.4530 -1.1455
 6742TIP3    H241718   6.129   5.029   3.431  0.0417  0.6382 -1.2677
 6743TIP3   OH241719   5.437   2.850   1.590 -0.0809 -0.7339 -0.2449
 6743TIP3    H141720   5.360   2.855   1.533  0.8470  1.0727 -1.3936
 6743TIP3    H241721   5.503   2.806   1.537  0.7741  0.9105 -0.5743
 6744TIP3   OH241722   1.027   5.878  12.410 -0.3228 -0.1269 -0.3683
 6744TIP3    H141723   1.005   5.788  12.384 -0.1258  0.3488 -2.2007
 6744TIP3    H241724   0.978   5.891  12.492 -0.3541 -1.8985 -0.0838
 6745TIP3   OH241725   6.483   3.333  13.365 -0.3090  0.1369 -0.5441
 6745TIP3    H141726   6.562   3.386  13.364 -0.4956  0.5095  1.5812
 6745TIP3    H241727   6.481   3.291  13.279  1.5511  1.0463 -1.0614
 6746TIP3   OH241728   1.163   6.211   0.577 -0.2460  0.2875  0.2976
 6746TIP3    H141729   1.244   6.236   0.621  0.3936 -1.3737  0.1272
 6746TIP3    H241730   1.112   6.292   0.570  2.5623  1.9476 -2.0569
 6747TIP3   OH241731   2.782   6.304  12.416 -0.0509  0.1689 -0.3569
 6747TIP3    H141732   2.709   6.338  12.467  0.2720  0.3152  0.0120
 6747TIP3    H241733   2.810   6.377  12.362 -1.9456 -0.6792 -2.5331
 6748TIP3   OH241734   3.703   2.448  15.064 -0.8150 -0.0634  0.4008
 6748TIP3    H141735   3.756   2.428  15.140 -1.1981 -0.7239  0.5028
 6748TIP3    H241736   3.613   2.443  15.096 -0.9481  0.7004  0.1529
 6749TIP3   OH241737   0.802   0.303  11.708 -0.3244 -0.1521  0.4536
 6749TIP3    H141738   0.710   0.314  11.686 -0.5033 -3.4464 -0.6781
 6749TIP3    H241739   0.849   0.331  11.629 -0.2408  2.4914  1.3802
 6750TIP3   OH241740   3.669   4.200   2.403  0.0994  0.1675  0.5075
 6750TIP3    H141741   3.708   4.238   2.325 -1.3047  0.2706 -0.1577
 6750TIP3    H241742   3.613   4.269   2.438 -0.4082 -0.3717  0.7743
 6751TIP3   OH241743   1.138   1.488   4.823 -0.6601 -0.2455  0.5369
 6751TIP3    H141744   1.159   1.474   4.731 -1.5153  1.2461  0.1018
 6751TIP3    H241745   1.052   1.530   4.823 -0.8899 -0.6602  2.0384
 6752TIP3   OH241746   6.682   2.957   5.914 -0.6916 -0.3260  0.2199
 6752TIP3    H141747   6.725   2.880   5.950 -0.2460  0.1583  0.7222
 6752TIP3    H241748   6.718   3.030   5.963  1.3534  0.5541 -2.4808
 6753TIP3   OH241749   5.702   6.402  14.326 -0.0125 -0.0846  0.0300
 6753TIP3    H141750   5.637   6.347  14.370  0.4664  0.4966  1.4851
 6753TIP3    H241751   5.657   6.434  14.247 -0.8994 -1.0824  0.1257
 6754TIP3   OH241752   4.540   4.421   1.645  0.6779  0.4515 -0.2313
 6754TIP3    H141753   4.497   4.498   1.608 -0.5650 -0.4508 -0.6941
 6754TIP3    H241754   4.469   4.371   1.686  1.5154 -0.3226  0.3052
 6755TIP3   OH241755   1.656   3.332   1.061  0.2479 -0.1621 -0.6078
 6755TIP3    H141756   1.736   3.349   1.011 -1.2697 -0.1408 -3.1356
 6755TIP3    H241757   1.605   3.275   1.004 -1.0190 -1.1929  1.5168
 6756TIP3   OH241758   1.967   1.225   3.511  0.1140  0.3378  0.2041
 6756TIP3    H141759   1.886   1.178   3.489  0.8696 -0.7203 -0.3347
 6756TIP3    H241760   1.994   1.189   3.595  0.8320 -0.4041 -0.3310
 6757TIP3   OH241761   3.437   3.637   5.478  0.0556 -0.1009  0.2445
 6757TIP3    H141762   3.450   3.667   5.388  1.0848 -0.1293  0.3829
 6757TIP3    H241763   3.454   3.714   5.532  0.3454 -0.3169  0.4633
 6758TIP3   OH241764   3.680   4.174  11.674  0.0960  0.3927 -0.1374
 6758TIP3    H141765   3.717   4.254  11.711 -2.5682  0.5635  2.3586
 6758TIP3    H241766   3.729   4.104  11.717 -1.2476  0.6439  1.8881
 6759TIP3   OH241767   4.827   1.695  14.105 -0.1070 -0.3506 -0.0819
 6759TIP3    H141768   4.736   1.673  14.085  0.4091 -2.6213 -0.0246
 6759TIP3    H241769   4.844   1.654  14.190  0.3803  1.7789  0.8888
 6760TIP3   OH241770   5.734   6.237   1.518  0.3533 -0.2488  0.1759
 6760TIP3    H141771   5.757   6.176   1.588  0.1419 -0.7184 -0.1629
 6760TIP3    H241772   5.640   6.250   1.527  0.4826  0.4519  0.5827
 6761TIP3   OH241773   5.483   4.145  11.360  0.2644 -0.0383  0.3101
 6761TIP3    H141774   5.446   4.123  11.445 -0.9409 -0.9627 -0.4348
 6761TIP3    H241775   5.577   4.131  11.371  0.3893  1.9214  2.0859
 6762TIP3   OH241776   1.491   4.886   5.257  0.3977 -0.4506 -0.0795
 6762TIP3    H141777   1.421   4.871   5.193 -0.2613  0.2172  0.4795
 6762TIP3    H241778   1.483   4.812   5.317  1.1774 -1.2172 -0.8920
 6763TIP3   OH241779   4.690   2.887  10.462 -0.4963  0.0216  0.0311
 6763TIP3    H141780   4.693   2.859  10.554 -0.7511 -1.2357 -0.3345
 6763TIP3    H241781   4.773   2.857  10.426 -0.3788  0.5538 -0.1483
 6764TIP3   OH241782   1.434   0.963  14.814  0.7975 -0.6569  0.0022
 6764TIP3    H141783   1.382   0.887  14.839  0.0456  0.1782  0.9861
 6764TIP3    H241784   1.494   0.978  14.887 -0.3642  0.8537  0.6788
 6765TIP3   OH241785   5.319   0.980   4.217  0.9928 -0.3444  0.2406
 6765TIP3    H141786   5.366   0.912   4.266  0.0641 -1.5758 -0.5333
 6765TIP3    H241787   5.264   1.023   4.283  2.3186  0.3351  0.9234
 6766TIP3   OH241788   4.459   4.964   5.127 -0.0462  0.4021 -0.3102
 6766TIP3    H141789   4.424   4.875   5.133 -0.3154  0.4310 -1.3458
 6766TIP3    H241790   4.554   4.952   5.129 -0.0917  0.1597  0.4263
 6767TIP3   OH241791   6.796   0.163  13.327  0.0116  0.0820  0.5963
 6767TIP3    H141792   6.774   0.252  13.301 -0.0855 -0.2777 -0.5906
 6767TIP3    H241793   6.820   0.170  13.420  2.8985  1.8572 -0.2069
 6768TIP3   OH241794   3.504   3.999   1.022 -0.1431 -0.3175  0.2954
 6768TIP3    H141795   3.470   3.909   1.024 -2.9468  0.6463 -1.8657
 6768TIP3    H241796   3.445   4.048   1.079 -1.2950  0.9987 -1.9948
 6769TIP3   OH241797   2.586   2.052  14.571  0.9612  0.0528  0.2627
 6769TIP3    H141798   2.576   2.143  14.601  0.5169  0.1503 -0.1755
 6769TIP3    H241799   2.677   2.030  14.592  0.7695  0.2472  1.3318
 6770TIP3   OH241800   0.312   2.093  11.617 -0.0343  0.2205 -0.4222
 6770TIP3    H141801   0.233   2.130  11.578 -0.6825 -0.7861 -0.0973
 6770TIP3    H241802   0.280   2.042  11.692  0.8207 -0.9786 -0.8550
 6771TIP3   OH241803   0.487   4.710   1.821  0.5596 -0.1493  0.8851
 6771TIP3    H141804   0.481   4.628   1.871 -0.1389 -0.5185  0.2076
 6771TIP3    H241805   0.397   4.743   1.818  0.5195 -0.3739 -0.5289
 6772TIP3   OH241806   0.121   2.654   1.298  0.2474 -0.2301  0.1760
 6772TIP3    H141807   0.042   2.653   1.352  0.5794 -1.5738  0.6574
 6772TIP3    H241808   0.184   2.600   1.346  1.1049 -0.0545 -0.7270
 6773TIP3   OH241809   3.926   4.545  11.948 -0.2729  0.1978  0.6161
 6773TIP3    H141810   3.859   4.613  11.958 -0.5495  0.5360 -2.7468
 6773TIP3    H241811   3.889   4.467  11.989 -1.9099  0.8868  0.4718
 6774TIP3   OH241812   4.021   5.895   0.252  0.1155  0.2135 -0.9301
 6774TIP3    H141813   3.941   5.911   0.202 -0.5067 -2.6774 -0.9606
 6774TIP3    H241814   3.995   5.833   0.320  2.1234 -0.0789 -0.3877
 6775TIP3   OH241815   5.387   5.404   0.577  0.8632 -0.0541 -0.0242
 6775TIP3    H141816   5.306   5.382   0.530  1.1895  0.7100 -0.9616
 6775TIP3    H241817   5.430   5.320   0.591  1.0501 -0.2478 -1.6239
 6776TIP3   OH241818   5.019   3.500   4.353  0.1198 -0.1650  0.4699
 6776TIP3    H141819   5.102   3.547   4.340 -0.1094  0.3643  0.9091
 6776TIP3    H241820   4.972   3.551   4.418 -0.9457  0.0275 -0.4322
 6777TIP3   OH241821   0.926   0.540  15.298 -0.1243  0.0107  0.0575
 6777TIP3    H141822   0.958   0.582  15.219 -0.2738  1.4776  0.7665
 6777TIP3    H241823   0.834   0.521  15.280  0.2325 -1.0771 -0.6888
 6778TIP3   OH241824   2.461   5.775   2.171 -0.4423 -0.3268 -0.7865
 6778TIP3    H141825   2.524   5.713   2.135  0.2695 -0.6011  0.9003
 6778TIP3    H241826   2.406   5.723   2.229 -0.5197  0.4270 -0.1858
 6779TIP3   OH241827   5.023   4.234   6.357  0.3641 -0.5239  0.3832
 6779TIP3    H141828   5.067   4.149   6.361 -0.8942 -1.1906  0.2501
 6779TIP3    H241829   4.933   4.213   6.331  0.2120  0.9095 -0.2687
 6780TIP3   OH241830   1.533   4.390   1.974 -0.1501 -0.1386 -0.5827
 6780TIP3    H141831   1.512   4.373   2.066 -0.6330  0.5295 -0.5635
 6780TIP3    H241832   1.520   4.485   1.963  0.4565 -0.1212 -1.1970
 6781TIP3   OH241833   0.499   2.866  16.613 -0.4085 -0.3937  0.0881
 6781TIP3    H141834   0.545   2.798  16.563  1.8990  0.4403  0.9836
 6781TIP3    H241835   0.441   2.908  16.550 -0.4394 -1.9527 -0.9281
 6782TIP3   OH241836   1.590   3.155  13.722 -0.3754  0.3769 -0.2770
 6782TIP3    H141837   1.530   3.230  13.723 -1.4302 -0.4652  0.8951
 6782TIP3    H241838   1.677   3.195  13.714 -0.8743  1.7691  0.9373
 6783TIP3   OH241839   1.848   5.088   5.132  0.4829  0.0151  0.2447
 6783TIP3    H141840   1.785   5.139   5.081 -0.4625 -1.9076 -0.5797
 6783TIP3    H241841   1.892   5.152   5.187 -1.6678  1.5100  0.2855
 6784TIP3   OH241842   2.642   3.125  14.634 -0.9276 -0.1343  0.6650
 6784TIP3    H141843   2.652   3.030  14.628 -2.2657 -0.2767  0.5373
 6784TIP3    H241844   2.634   3.155  14.544  0.9845  0.2956  0.6080
 6785TIP3   OH241845   6.123   1.268   2.717  0.1911 -0.6973 -0.5510
 6785TIP3    H141846   6.065   1.339   2.744 -0.6655 -1.2881 -0.8083
 6785TIP3    H241847   6.104   1.197   2.778  1.5740 -0.4623  0.1714
 6786TIP3   OH241848   6.581   6.129  12.142  0.4542  0.4516 -0.3940
 6786TIP3    H141849   6.574   6.217  12.179  1.2802  0.7941 -1.0518
 6786TIP3    H241850   6.519   6.077  12.193 -0.0317  1.4098  0.0088
 6787TIP3   OH241851   4.500   2.720   2.791 -0.3907 -0.2692 -0.0805
 6787TIP3    H141852   4.466   2.700   2.703  0.1176  0.6486 -0.4932
 6787TIP3    H241853   4.438   2.781   2.828  0.4109  0.8588 -0.5633
 6788TIP3   OH241854   1.843   0.067   1.129 -1.0027 -0.0021  0.3598
 6788TIP3    H141855   1.859   0.096   1.219  1.3190  2.8925 -0.8817
 6788TIP3    H241856   1.889  -0.017   1.122  2.7222  1.9182  0.6711
 6789TIP3   OH241857   2.404   2.057  12.736  0.4824  1.1104  0.1858
 6789TIP3    H141858   2.319   2.101  12.741  0.7910  1.7665 -0.2331
 6789TIP3    H241859   2.459   2.103  12.800  1.1524  2.1215 -1.1065
 6790TIP3   OH241860   6.728   6.501   1.110  0.0357  0.6580  0.4626
 6790TIP3    H141861   6.819   6.473   1.114 -0.9600 -2.8054  0.6748
 6790TIP3    H241862   6.703   6.515   1.202  0.1188  0.7291  0.4736
 6791TIP3   OH241863   0.717   1.927   6.032 -0.0030  0.0660 -0.2079
 6791TIP3    H141864   0.628   1.895   6.041  0.2942 -1.2297 -1.7204
 6791TIP3    H241865   0.771   1.849   6.023  1.1928  0.8532 -0.0762
 6792TIP3   OH241866   5.342   3.497  16.349 -0.0102 -0.0638 -0.2902
 6792TIP3    H141867   5.381   3.476  16.264  3.0554 -1.5771  1.4051
 6792TIP3    H241868   5.410   3.545  16.396 -0.0787 -2.6741  2.7101
 6793TIP3   OH241869   1.594   0.603  12.300 -0.3111  0.0347 -0.1748
 6793TIP3    H141870   1.606   0.521  12.252  0.1915 -0.7713  1.3014
 6793TIP3    H241871   1.499   0.619  12.297 -0.3960 -0.5251 -0.5882
 6794TIP3   OH241872   1.879   1.922   4.382 -0.2561 -0.0398  0.4629
 6794TIP3    H141873   1.850   1.938   4.472  0.6800 -0.3272  0.8196
 6794TIP3    H241874   1.959   1.870   4.391  0.1918  0.4655 -0.5140
 6795TIP3   OH241875   0.821   1.545   0.795  0.2106 -0.0724  0.2561
 6795TIP3    H141876   0.732   1.530   0.761 -0.2308  0.2434  1.2754
 6795TIP3    H241877   0.866   1.591   0.723 -0.8967  1.1161  0.3002
 6796TIP3   OH241878   3.077   0.583  11.649 -0.2892 -0.2923 -0.6243
 6796TIP3    H141879   2.987   0.587  11.682 -0.4521 -0.4582 -1.0463
 6796TIP3    H241880   3.109   0.672  11.659 -0.1569 -0.4547  0.4814
 6797TIP3   OH241881   2.250   6.518  12.362  0.4089 -0.0170  0.1805
 6797TIP3    H141882   2.190   6.592  12.351  0.5995 -0.2486 -2.8535
 6797TIP3    H241883   2.335   6.551  12.334  0.5963 -1.2007 -0.7123
 6798TIP3   OH241884   5.567   4.611  13.489  0.0583 -0.2975  0.7293
 6798TIP3    H141885   5.595   4.520  13.479 -0.0228 -0.1024 -1.5563
 6798TIP3    H241886   5.547   4.620  13.583  0.5022 -2.4862  1.0639
 6799TIP3   OH241887   1.181   1.299  14.883  0.2835 -0.1991  0.3143
 6799TIP3    H141888   1.247   1.343  14.830 -1.4851  0.9085 -1.0254
 6799TIP3    H241889   1.112   1.274  14.822 -1.1859 -0.0909  1.8566
 6800TIP3   OH241890   2.634   3.045  16.136  0.1095 -0.5778  0.7498
 6800TIP3    H141891   2.613   3.050  16.229 -1.7436  0.0711  0.3118
 6800TIP3    H241892   2.565   2.990  16.099  1.5355 -1.8549 -0.0440
 6801TIP3   OH241893   3.140   1.009   0.339 -0.2113  0.6730 -0.2438
 6801TIP3    H141894   3.073   0.949   0.373  0.9744 -0.2340  0.5344
 6801TIP3    H241895   3.221   0.981   0.383  0.5677  2.1122 -0.7526
 6802TIP3   OH241896   5.663   0.684   0.730 -0.5221 -0.0379 -0.4572
 6802TIP3    H141897   5.620   0.632   0.662  0.2037  0.0081 -0.9626
 6802TIP3    H241898   5.688   0.765   0.685  0.0134 -0.0347 -0.1486
 6803TIP3   OH241899   6.676   5.863   5.462  0.4735  0.0550 -0.0273
 6803TIP3    H141900   6.761   5.823   5.445  2.0190  2.6039  1.2707
 6803TIP3    H241901   6.632   5.803   5.522  0.2628 -2.5517 -2.7113
 6804TIP3   OH241902   5.841   1.504   3.227 -0.7759  0.7075  0.2245
 6804TIP3    H141903   5.757   1.475   3.190 -0.8031  1.8753 -0.6421
 6804TIP3    H241904   5.889   1.423   3.242 -1.6408  0.0850 -0.3022
 6805TIP3   OH241905   0.703   0.331  16.641  0.0076  0.5391 -0.2863
 6805TIP3    H141906   0.730   0.243  16.616 -0.5117  0.2608  0.1154
 6805TIP3    H241907   0.618   0.343  16.599 -0.3145  0.5187  0.3463
 6806TIP3   OH241908   3.705   2.839  10.468  0.5313 -0.0879  0.1553
 6806TIP3    H141909   3.798   2.850  10.446  0.4439 -0.3514 -0.3443
 6806TIP3    H241910   3.659   2.896  10.407  0.3448 -0.1449  0.2418
 6807TIP3   OH241911   4.932   5.009   3.870  0.0170  0.1870 -0.1311
 6807TIP3    H141912   4.933   5.078   3.936  1.3462  0.8593 -0.8414
 6807TIP3    H241913   5.006   5.029   3.813 -2.1956  0.6680 -2.9312
 6808TIP3   OH241914   5.466   6.230   4.111 -0.1427  0.6733  0.1646
 6808TIP3    H141915   5.535   6.254   4.173  0.8801  0.3100 -0.8330
 6808TIP3    H241916   5.499   6.258   4.026 -1.1425  0.3136 -0.3521
 6809TIP3   OH241917   6.218   3.394  13.484  0.0657 -0.1033  0.3150
 6809TIP3    H141918   6.295   3.368  13.434  0.1577 -1.1921  0.9926
 6809TIP3    H241919   6.253   3.446  13.557  0.1721 -0.6475  0.6551
 6810TIP3   OH241920   5.757   0.127  11.304  0.8258 -0.0214 -0.2635
 6810TIP3    H141921   5.735   0.179  11.227 -2.3844 -0.0462  0.5641
 6810TIP3    H241922   5.739   0.185  11.378 -1.2539 -1.7413  0.6201
 6811TIP3   OH241923   6.776   2.485  16.069 -0.4576  0.0365 -0.5275
 6811TIP3    H141924   6.728   2.493  15.987  1.2758  1.1375 -1.4710
 6811TIP3    H241925   6.751   2.562  16.119 -1.1648 -0.4012 -0.2006
 6812TIP3   OH241926   2.937   4.952   6.138 -0.4515  0.2716 -0.0836
 6812TIP3    H141927   2.892   4.933   6.056 -0.7406  2.9970 -0.6161
 6812TIP3    H241928   2.937   5.048   6.144  1.8394  0.2160  1.8213
 6813TIP3   OH241929   5.910   0.847  15.024 -0.7007 -0.8113  0.3791
 6813TIP3    H141930   5.864   0.843  14.940  0.1238  1.2722 -0.1789
 6813TIP3    H241931   5.843   0.875  15.086 -0.4948  1.0495 -0.2189
 6814TIP3   OH241932   2.290   1.939  17.062  0.1657  0.0643  0.1862
 6814TIP3    H141933   2.316   2.005  16.999  1.6860  0.2764  1.0111
 6814TIP3    H241934   2.199   1.919  17.040  1.3820 -1.6725 -3.6312
 6815TIP3   OH241935   6.404   1.640   2.716  0.1716 -0.5523  0.5573
 6815TIP3    H141936   6.428   1.621   2.806 -0.0931 -0.7854  0.5788
 6815TIP3    H241937   6.404   1.735   2.710  1.9016 -0.5425  0.3505
 6816TIP3   OH241938   5.955   5.287   4.478 -0.2607 -0.2758  0.2014
 6816TIP3    H141939   5.955   5.281   4.573 -2.2460 -2.0150  0.1321
 6816TIP3    H241940   5.883   5.230   4.450 -0.0229  0.5743 -2.3146
 6817TIP3   OH241941   3.847   2.312  13.233 -0.2630  0.4688 -0.1417
 6817TIP3    H141942   3.845   2.231  13.285  0.9029  1.5326  1.6089
 6817TIP3    H241943   3.759   2.349  13.243  0.2472  1.1902  1.9842
 6818TIP3   OH241944   2.591   4.005   2.510  0.2480  0.8275 -0.5777
 6818TIP3    H141945   2.521   3.947   2.482  1.0260 -1.4336  1.9002
 6818TIP3    H241946   2.648   4.013   2.434 -1.3504  0.6299 -1.8156
 6819TIP3   OH241947   6.429   4.367  15.088  0.2957 -0.3806  0.0436
 6819TIP3    H141948   6.469   4.391  15.005 -0.4418  0.4356 -0.0735
 6819TIP3    H241949   6.500   4.376  15.152  0.6742 -0.3172 -0.3809
 6820TIP3   OH241950   4.638   0.666  13.542 -0.1322  0.0133 -0.1442
 6820TIP3    H141951   4.616   0.731  13.475  2.1003 -0.9057 -1.8536
 6820TIP3    H241952   4.567   0.603  13.538 -1.3192  1.2975  0.1595
 6821TIP3   OH241953   3.591   1.764   6.238  0.0354 -0.0094 -0.4261
 6821TIP3    H141954   3.556   1.676   6.250 -1.8276  0.3525 -2.7374
 6821TIP3    H241955   3.564   1.812   6.316 -1.1234 -0.8417 -0.3046
 6822TIP3   OH241956   5.149   5.850   3.496  0.2608  0.0349  0.4384
 6822TIP3    H141957   5.133   5.802   3.577  0.5125 -1.5853 -0.4463
 6822TIP3    H241958   5.176   5.782   3.433 -0.5197  1.1786 -1.1557
 6823TIP3   OH241959   0.496   6.052  12.157 -0.2251  0.5087 -0.2399
 6823TIP3    H141960   0.433   5.980  12.148  1.3367 -1.1047  1.2308
 6823TIP3    H241961   0.442   6.129  12.174 -1.8341 -0.8044  0.8071
 6824TIP3   OH241962   4.620   5.519  12.052  0.3381  0.0699  1.0599
 6824TIP3    H141963   4.599   5.433  12.088 -2.0731  0.1631 -0.0042
 6824TIP3    H241964   4.537   5.567  12.055  0.9598  1.3516 -1.1274
 6825TIP3   OH241965   6.623   3.779   5.762 -0.3376  0.1594 -0.3853
 6825TIP3    H141966   6.714   3.792   5.788  0.3756 -0.9860 -2.2397
 6825TIP3    H241967   6.588   3.867   5.751  1.2795  0.6092 -2.1243
 6826TIP3   OH241968   1.628   4.863  12.457  0.2744  0.6037 -0.4761
 6826TIP3    H141969   1.686   4.924  12.411  1.7161  0.3928  1.0145
 6826TIP3    H241970   1.577   4.822  12.388 -1.0701  3.8242 -1.4911
 6827TIP3   OH241971   2.193   1.623   5.551 -0.1581  0.3343  0.1706
 6827TIP3    H141972   2.203   1.700   5.607  0.2889  1.3778 -1.3142
 6827TIP3    H241973   2.240   1.554   5.597  2.2374  1.7627 -0.0441
 6828TIP3   OH241974   5.078   1.733   3.892  0.5491 -0.2950  0.0565
 6828TIP3    H141975   5.112   1.649   3.921 -2.3008 -1.2456  0.7981
 6828TIP3    H241976   5.010   1.711   3.829  0.2814  1.4701 -0.2926
 6829TIP3   OH241977   1.168   1.120   2.217  0.0902  0.0419  0.2235
 6829TIP3    H141978   1.209   1.196   2.258 -2.5525  0.6860  1.7504
 6829TIP3    H241979   1.129   1.154   2.137 -0.4632  0.1234  0.5322
 6830TIP3   OH241980   1.755   1.226   6.137  0.2350  0.4124  0.0924
 6830TIP3    H141981   1.799   1.212   6.220  0.4907 -1.3273 -0.3167
 6830TIP3    H241982   1.712   1.311   6.147  0.0211  0.0945  2.0962
 6831TIP3   OH241983   0.664   0.233  13.817  0.1759  0.2764 -0.6427
 6831TIP3    H141984   0.621   0.315  13.793 -0.9277 -0.1762 -0.2780
 6831TIP3    H241985   0.714   0.208  13.739 -1.2039  0.2068 -1.5414
 6832TIP3   OH241986   1.074   5.138   2.962 -0.2411 -0.1453 -0.9120
 6832TIP3    H141987   1.156   5.181   2.937  1.2625 -2.0870  0.5948
 6832TIP3    H241988   1.064   5.158   3.055  0.2096 -2.5800 -0.3105
 6833TIP3   OH241989   6.147   5.747  17.000 -0.1079  0.1612  0.3902
 6833TIP3    H141990   6.158   5.654  16.980  3.7066  0.3929  1.1170
 6833TIP3    H241991   6.112   5.784  16.919  0.5026 -1.5011 -0.6715
 6834TIP3   OH241992   0.374   3.981  15.298  0.0091  0.0259 -0.1442
 6834TIP3    H141993   0.468   3.973  15.282  0.6051  2.4329  1.7734
 6834TIP3    H241994   0.349   4.063  15.254 -0.6585  0.6723  1.4076
 6835TIP3   OH241995   0.587   2.911   5.961 -0.0188 -0.5360  0.2509
 6835TIP3    H141996   0.589   2.840   6.025 -0.3363 -0.7517  0.0265
 6835TIP3    H241997   0.522   2.973   5.996 -0.1470 -0.6242  0.1701
 6836TIP3   OH241998   5.547   2.258   6.305  0.4854 -0.0646  0.3493
 6836TIP3    H141999   5.509   2.308   6.232  0.3815  0.6365  0.8830
 6836TIP3    H242000   5.530   2.167   6.282 -2.5075  0.2656  1.0951
 6837TIP3   OH242001   6.402   2.457   6.729  0.1770 -0.1966 -0.4443
 6837TIP3    H142002   6.327   2.440   6.786  0.0165  0.7151 -0.3758
 6837TIP3    H242003   6.378   2.537   6.680  1.1633  0.1976 -0.3002
 6838TIP3   OH242004   3.007   0.311  16.780  0.0750  0.1627  0.0476
 6838TIP3    H142005   3.053   0.392  16.798  1.1004  0.5794 -4.0129
 6838TIP3    H242006   2.915   0.330  16.802  0.5174  1.9611  0.4162
 6839TIP3   OH242007   3.850   4.550   5.223  0.1722  0.0658 -0.3185
 6839TIP3    H142008   3.764   4.585   5.246 -0.7453 -1.4942 -1.2487
 6839TIP3    H242009   3.887   4.520   5.305 -0.7813 -0.5577 -0.1118
 6840TIP3   OH242010   3.921   0.906  12.763 -0.2572 -0.0284  0.4116
 6840TIP3    H142011   3.921   0.997  12.793 -0.0481 -0.4910  1.8563
 6840TIP3    H242012   3.919   0.854  12.844 -2.2381 -1.3006 -0.4355
 6841TIP3   OH242013   5.772   6.198  12.639  0.1448 -0.5153  0.1482
 6841TIP3    H142014   5.709   6.256  12.682  0.6569 -1.7310  2.6362
 6841TIP3    H242015   5.720   6.151  12.574 -1.1010 -0.0556  0.7948
 6842TIP3   OH242016   0.521   1.093   1.226  0.2189 -0.2701  0.4675
 6842TIP3    H142017   0.499   1.181   1.259 -0.1031 -0.2067  0.0786
 6842TIP3    H242018   0.602   1.106   1.177 -0.2501 -0.0536 -0.2470
 6843TIP3   OH242019   1.744   5.929  11.401 -0.6961 -0.3870  0.7181
 6843TIP3    H142020   1.775   5.975  11.323 -2.0306 -0.9041 -0.1336
 6843TIP3    H242021   1.787   5.973  11.474 -0.2673  0.7922 -0.2364
 6844TIP3   OH242022   4.045   4.513  13.844  0.1792  0.4236 -0.2602
 6844TIP3    H142023   4.010   4.575  13.908  2.2380  0.5504  0.7956
 6844TIP3    H242024   4.059   4.432  13.893 -1.6176 -0.6228 -1.4174
 6845TIP3   OH242025   1.411   1.131  12.282  0.3902 -0.0553 -0.0444
 6845TIP3    H142026   1.320   1.155  12.269  0.6205  1.3242  0.7648
 6845TIP3    H242027   1.443   1.193  12.347  2.8521  1.8516 -2.9112
 6846TIP3   OH242028   0.394   4.751   0.552  0.6729 -0.1734  0.1903
 6846TIP3    H142029   0.367   4.734   0.642  0.7422  0.9024  0.4226
 6846TIP3    H242030   0.486   4.778   0.560  0.0975  1.8646  0.0013
 6847TIP3   OH242031   2.866   6.272  15.692 -0.5893  0.1270  0.2381
 6847TIP3    H142032   2.912   6.343  15.737 -0.6320  0.0314  0.4332
 6847TIP3    H242033   2.799   6.316  15.639 -0.6802  0.2256  0.4355
 6848TIP3   OH242034   5.439   6.684   1.299  0.1525  0.3117  0.5675
 6848TIP3    H142035   5.447   6.767   1.251  0.3153 -0.3730 -0.6013
 6848TIP3    H242036   5.388   6.628   1.242  2.0553 -1.1957  0.3021
 6849TIP3   OH242037   3.890   3.854   0.947  0.2456 -0.2810 -0.3426
 6849TIP3    H142038   3.929   3.936   0.978  1.6478  0.0079 -2.7281
 6849TIP3    H242039   3.946   3.786   0.984 -0.3828 -0.1421  0.8953
 6850TIP3   OH242040   2.818   3.742  11.957 -0.4202  0.1646  0.0581
 6850TIP3    H142041   2.759   3.779  11.891 -0.3495  0.8147  0.3592
 6850TIP3    H242042   2.906   3.755  11.921 -0.3475  1.0607  0.5492
 6851TIP3   OH242043   1.350   4.863  14.946  0.5369 -0.1274  0.1338
 6851TIP3    H142044   1.409   4.849  14.872  1.9628  1.0848  0.9832
 6851TIP3    H242045   1.373   4.795  15.009 -0.6894 -1.1721 -0.5416
 6852TIP3   OH242046   4.517   4.750   5.870 -0.5952  0.4275 -0.7131
 6852TIP3    H142047   4.537   4.843   5.866  0.6373  0.2759  1.0920
 6852TIP3    H242048   4.516   4.730   5.964  0.7457 -1.6777 -1.1068
 6853TIP3   OH242049   4.606   2.407   4.945 -0.1867  0.2894  0.2491
 6853TIP3    H142050   4.699   2.387   4.935 -0.3211 -2.4758  3.6283
 6853TIP3    H242051   4.600   2.449   5.031 -1.9707  1.1777 -0.2956
 6854TIP3   OH242052   6.443   4.421  13.539 -0.3015 -0.0547 -0.7085
 6854TIP3    H142053   6.368   4.366  13.515 -0.7580 -0.0803  0.7676
 6854TIP3    H242054   6.407   4.510  13.545 -0.2928 -0.1278  0.4008
 6855TIP3   OH242055   1.684   2.043   2.810  0.0467 -0.4381  0.0754
 6855TIP3    H142056   1.668   1.953   2.840  0.5138 -0.3102  0.7314
 6855TIP3    H242057   1.629   2.053   2.733 -2.8995 -0.0414  2.1312
 6856TIP3   OH242058   0.670   1.131   0.223 -0.1418 -0.7756  0.2042
 6856TIP3    H142059   0.756   1.094   0.203  0.2631  0.5848 -0.6081
 6856TIP3    H242060   0.639   1.080   0.298  1.7060 -0.7519  1.0015
 6857TIP3   OH242061   1.371   2.128  12.963  0.2483  0.0751  0.2404
 6857TIP3    H142062   1.332   2.042  12.981  1.7304 -0.1209  2.6981
 6857TIP3    H242063   1.407   2.119  12.875  1.9280 -2.4271  1.1327
 6858TIP3   OH242064   1.400   0.056  14.752  0.4358  0.1461  0.2464
 6858TIP3    H142065   1.322   0.108  14.770  0.7057  0.1617  1.4520
 6858TIP3    H242066   1.465   0.088  14.815  1.9624  1.3125 -1.8490
 6859TIP3   OH242067   3.532   2.808  14.534 -0.1726 -0.4528  0.5409
 6859TIP3    H142068   3.450   2.853  14.512  0.1259 -0.1228  0.1061
 6859TIP3    H242069   3.600   2.861  14.494  0.2289 -0.9443  0.5699
 6860TIP3   OH242070   5.299   5.984  13.126  0.0280  0.1091  0.2654
 6860TIP3    H142071   5.241   5.937  13.066  0.2443  0.1686  0.0067
 6860TIP3    H242072   5.358   6.033  13.069 -0.3590  0.8948  0.5395
 6861TIP3   OH242073   0.601   4.092   2.876 -0.1610 -0.4248 -0.2535
 6861TIP3    H142074   0.520   4.057   2.839 -0.0523 -1.0627  0.1156
 6861TIP3    H242075   0.574   4.173   2.920 -0.3518  0.1332 -1.3844
 6862TIP3   OH242076   4.337   5.865  12.607 -0.5208  0.2974  0.1973
 6862TIP3    H142077   4.342   5.773  12.584  0.6360  0.3099  0.3831
 6862TIP3    H242078   4.331   5.867  12.702  1.9472  0.4626  0.4015
 6863TIP3   OH242079   4.309   5.296  16.306  0.1715  0.2925 -0.0704
 6863TIP3    H142080   4.238   5.286  16.243 -1.0375  0.6188  1.2285
 6863TIP3    H242081   4.331   5.389  16.303 -0.2925  0.4200  0.4178
 6864TIP3   OH242082   3.724   6.700   0.484 -0.4542  0.0066  0.1441
 6864TIP3    H142083   3.650   6.704   0.423 -0.1935 -2.0204 -0.3527
 6864TIP3    H242084   3.686   6.667   0.565 -0.0957 -1.0996 -0.1306
 6865TIP3   OH242085   1.957   5.193   4.235 -0.2340 -0.7096 -0.4017
 6865TIP3    H142086   1.953   5.098   4.231 -2.8395 -0.6184 -0.7362
 6865TIP3    H242087   1.950   5.215   4.328 -4.2274 -0.7420 -0.6179
 6866TIP3   OH242088   3.600   4.509   2.915  0.4916  0.1296 -0.0771
 6866TIP3    H142089   3.507   4.519   2.897  0.4103  0.6620  0.6141
 6866TIP3    H242090   3.619   4.576   2.981  1.4688  0.3542 -0.5763
 6867TIP3   OH242091   4.437   1.365   3.513  0.1567  0.4938 -0.1137
 6867TIP3    H142092   4.468   1.328   3.430 -0.9560  0.1172 -0.3812
 6867TIP3    H242093   4.356   1.317   3.532 -0.1484  1.2844  0.6598
 6868TIP3   OH242094   5.106   4.497   0.495 -0.0858 -0.1446  0.2729
 6868TIP3    H142095   5.181   4.448   0.462  0.4587  0.0603  1.2132
 6868TIP3    H242096   5.034   4.475   0.435  0.6081 -0.6893 -0.3521
 6869TIP3   OH242097   1.195   2.516  17.183  0.2390  0.0885  0.3261
 6869TIP3    H142098   1.106   2.498  17.151  0.7405 -0.8909 -0.5599
 6869TIP3    H242099   1.208   2.609  17.166 -0.8459  0.3872  1.0484
 6870TIP3   OH242100   3.774   4.910   4.669  0.3413 -0.3510 -0.2800
 6870TIP3    H142101   3.820   4.992   4.651 -0.2470  0.2104  0.7835
 6870TIP3    H242102   3.682   4.930   4.654  0.0513 -0.4373  1.3188
 6871TIP3   OH242103   5.515   3.679  13.900 -0.8112 -0.0302 -0.2724
 6871TIP3    H142104   5.611   3.678  13.898 -0.7241  0.4024  2.4667
 6871TIP3    H242105   5.490   3.587  13.898 -0.2371 -0.2466  1.7526
 6872TIP3   OH242106   4.530   0.734   5.977  1.0787 -0.2360 -0.4321
 6872TIP3    H142107   4.624   0.752   5.984  0.4979  2.3664  1.3873
 6872TIP3    H242108   4.496   0.746   6.066 -1.2423  0.4352 -1.3692
 6873TIP3   OH242109   2.360   2.259   1.469  0.0152  0.0396  0.2735
 6873TIP3    H142110   2.266   2.252   1.485 -0.2443  0.8753 -0.8795
 6873TIP3    H242111   2.370   2.335   1.412  1.3006 -0.5752 -0.3501
 6874TIP3   OH242112   5.104   0.339  14.336  0.7224  0.8919 -0.6916
 6874TIP3    H142113   5.084   0.371  14.424 -0.6598 -0.6909 -0.3863
 6874TIP3    H242114   5.176   0.278  14.349 -0.0838 -0.0342 -0.5076
 6875TIP3   OH242115   5.142   5.353   2.492 -0.1962  0.0075  0.2266
 6875TIP3    H142116   5.237   5.343   2.488 -0.2267 -0.6575  1.0461
 6875TIP3    H242117   5.113   5.280   2.546 -0.9027  1.7744  2.2973
 6876TIP3   OH242118   1.743   0.892   3.222  0.2412  0.3466 -0.0928
 6876TIP3    H142119   1.652   0.863   3.226  0.7215 -1.1909  0.3415
 6876TIP3    H242120   1.739   0.986   3.207 -1.4161  0.4029  0.6960
 6877TIP3   OH242121   1.072   6.062   1.035 -0.3033 -0.2026  0.3842
 6877TIP3    H142122   1.149   6.094   1.083 -1.6933  1.8712  1.2951
 6877TIP3    H242123   1.083   6.095   0.946  1.3886 -2.5542 -0.3268
 6878TIP3   OH242124   5.008   3.743   1.869  0.6402 -0.3591 -0.1431
 6878TIP3    H142125   5.036   3.670   1.814  2.5040  1.3351 -1.4761
 6878TIP3    H242126   4.942   3.789   1.817  2.3423  1.1945 -0.9508
 6879TIP3   OH242127   5.111   4.646   5.851 -0.1605 -0.6129 -0.7922
 6879TIP3    H142128   5.170   4.706   5.805  0.1344 -1.0238 -0.9563
 6879TIP3    H242129   5.031   4.646   5.800 -0.4824  0.3309 -0.2938
 6880TIP3   OH242130   3.054   0.946  17.264 -0.2266  0.0088  0.5045
 6880TIP3    H142131   3.139   0.986  17.251  0.7054 -2.4922 -1.6760
 6880TIP3    H242132   3.048   0.932  17.359  1.5881  0.5822  0.7235
 6881TIP3   OH242133   4.044   3.899  10.662 -0.2368  0.0073 -0.3883
 6881TIP3    H142134   4.087   3.826  10.618  2.3766  1.3653 -0.2426
 6881TIP3    H242135   4.082   3.977  10.620 -0.5224  1.2902  1.6512
 6882TIP3   OH242136   4.102   2.211  14.390  0.3070 -0.5119 -0.5722
 6882TIP3    H142137   4.093   2.180  14.481  1.6404 -1.3301 -0.6998
 6882TIP3    H242138   4.148   2.295  14.398 -2.8884  1.2975 -0.2555
 6883TIP3   OH242139   6.694   6.084   5.633  0.3298 -0.6245 -0.1708
 6883TIP3    H142140   6.783   6.052   5.616 -0.1337 -1.9600 -0.1310
 6883TIP3    H242141   6.638   6.027   5.580 -0.7164 -1.5539  1.8782
 6884TIP3   OH242142   1.568   5.107  14.952  0.4562 -0.1438 -0.1947
 6884TIP3    H142143   1.610   5.031  14.991  0.6049  1.0248  1.9806
 6884TIP3    H242144   1.515   5.145  15.023 -1.1708  0.6549 -1.7827
 6885TIP3   OH242145   1.452   6.430   6.566  0.2038 -0.0619  0.4405
 6885TIP3    H142146   1.458   6.386   6.650  0.7453  0.6296  0.7661
 6885TIP3    H242147   1.542   6.429   6.532 -0.0970 -0.7714 -0.3484
 6886TIP3   OH242148   1.882   1.333  14.995 -0.0929  0.3726  0.1695
 6886TIP3    H142149   1.881   1.287  15.079  0.3981  0.1573  0.0600
 6886TIP3    H242150   1.860   1.424  15.018 -0.7260  0.1598  0.4255
 6887TIP3   OH242151   0.998   1.570  14.633  0.3264 -0.4107  0.0638
 6887TIP3    H142152   1.031   1.496  14.582  1.7353 -0.2880  0.7613
 6887TIP3    H242153   1.055   1.643  14.608  0.6628 -0.2180  1.3863
 6888TIP3   OH242154   1.893   3.382   0.936  0.3011 -0.2447  0.0620
 6888TIP3    H142155   1.915   3.372   0.843  1.8503 -0.6447  0.4505
 6888TIP3    H242156   1.967   3.342   0.982 -0.6607 -0.4238  1.4632
 6889TIP3   OH242157   5.074   5.641   4.157 -0.5350 -0.2248  0.6673
 6889TIP3    H142158   5.167   5.653   4.175 -0.5866  0.0773  0.7445
 6889TIP3    H242159   5.051   5.561   4.204 -0.7918  0.8531  2.4375
 6890TIP3   OH242160   6.133   2.315   2.040  0.0420  0.6410  0.1457
 6890TIP3    H142161   6.204   2.307   2.104 -0.2865 -2.1707  0.2157
 6890TIP3    H242162   6.163   2.266   1.964 -0.4541  2.2232 -1.0948
 6891TIP3   OH242163   2.209   1.077  14.947  0.4618  0.4130 -0.2175
 6891TIP3    H142164   2.157   1.156  14.964  0.5573  0.5534 -0.5624
 6891TIP3    H242165   2.194   1.021  15.023  0.3306  0.7320 -0.0078
 6892TIP3   OH242166   4.814   6.310   1.354 -0.3821  0.3109 -0.2572
 6892TIP3    H142167   4.736   6.355   1.385 -0.1218  0.0787  0.7295
 6892TIP3    H242168   4.845   6.260   1.429  1.4491  1.4092 -0.2538
 6893TIP3   OH242169   3.418   5.365  15.346  0.3065  0.3597  0.6260
 6893TIP3    H142170   3.439   5.438  15.289  0.6017 -0.2920 -0.1171
 6893TIP3    H242171   3.346   5.319  15.301 -1.0087  1.1205  1.8915
 6894TIP3   OH242172   1.992   0.375   0.667 -0.2053 -0.0577  0.4079
 6894TIP3    H142173   2.013   0.315   0.596  0.8370  0.7871 -0.0051
 6894TIP3    H242174   1.996   0.320   0.746  3.1181 -0.0775  0.3080
 6895TIP3   OH242175   3.466   3.774   1.311 -0.0225  0.5787 -0.5945
 6895TIP3    H142176   3.439   3.751   1.223  1.2550 -2.4401 -0.2571
 6895TIP3    H242177   3.559   3.751   1.315 -0.7074 -2.0969  2.3608
 6896TIP3   OH242178   2.763   5.552  16.430  0.0908 -0.0239 -0.1287
 6896TIP3    H142179   2.738   5.479  16.485 -0.6341  0.4918  0.2401
 6896TIP3    H242180   2.814   5.513  16.359 -1.1427 -1.0039 -0.4920
 6897TIP3   OH242181   0.005   4.981   4.366 -0.2428  0.0916 -0.6162
 6897TIP3    H142182  -0.060   5.051   4.371  0.7368  1.1136 -1.8779
 6897TIP3    H242183  -0.043   4.903   4.394 -1.2391  1.3110  1.2720
 6898TIP3   OH242184   5.570   4.583   4.952 -0.4390 -0.4244 -0.3992
 6898TIP3    H142185   5.572   4.517   5.021 -1.3681 -1.3209 -1.2169
 6898TIP3    H242186   5.639   4.556   4.891  1.0125  0.8872  0.6369
 6899TIP3   OH242187   4.888   0.439  15.177  0.1852 -0.3485  0.5187
 6899TIP3    H142188   4.908   0.451  15.084  0.5051 -0.6953  0.5396
 6899TIP3    H242189   4.839   0.518  15.201 -1.7123 -1.1833 -0.4476
 6900TIP3   OH242190   1.329   2.031   3.560  0.3727  0.8265 -0.5477
 6900TIP3    H142191   1.256   1.990   3.515  0.2318  0.9250 -0.4109
 6900TIP3    H242192   1.310   2.125   3.557  0.2887  0.8261 -0.1670
 6901TIP3   OH242193   0.062   2.183  16.055  0.0023  0.3129 -0.3521
 6901TIP3    H142194   0.066   2.196  15.960 -1.1886  0.1203 -0.4422
 6901TIP3    H242195   0.035   2.092  16.066  3.6489 -0.7484  0.2258
 6902TIP3   OH242196   2.664   4.915   6.491  0.1727 -0.5072 -1.0005
 6902TIP3    H142197   2.666   4.980   6.421  0.3450  1.5112  0.8275
 6902TIP3    H242198   2.753   4.880   6.494  0.5594  0.4856 -0.8066
 6903TIP3   OH242199   2.482   0.833   4.280 -0.3025  0.4814  0.1839
 6903TIP3    H142200   2.555   0.894   4.269 -0.6689  0.8632 -0.1594
 6903TIP3    H242201   2.481   0.782   4.199  1.7128 -1.8683  1.5729
 6904TIP3   OH242202   1.381   0.058   1.945 -0.3410 -0.4548 -0.3574
 6904TIP3    H142203   1.445   0.115   1.987 -1.1254  0.0254  0.1884
 6904TIP3    H242204   1.431   0.014   1.875  1.2871 -2.1722  1.7951
 6905TIP3   OH242205   5.435   3.781  11.080 -0.3762  0.0222 -0.9488
 6905TIP3    H142206   5.528   3.759  11.079 -0.1315  1.0703 -1.4594
 6905TIP3    H242207   5.395   3.720  11.018 -0.3614 -1.8216  0.7990
 6906TIP3   OH242208   5.612   5.249   5.932 -0.0187  0.0253  0.5772
 6906TIP3    H142209   5.681   5.276   5.871  0.3713  0.5277  1.2253
 6906TIP3    H242210   5.547   5.204   5.877  0.0901  0.8896 -0.2771
 6907TIP3   OH242211   3.192   5.467  14.904 -0.5326  0.0275  0.0315
 6907TIP3    H142212   3.133   5.442  14.834  0.7993 -1.3341 -0.6406
 6907TIP3    H242213   3.254   5.527  14.863 -1.9289  2.1336  0.9353
 6908TIP3   OH242214   6.146   5.559   4.476  0.1482  0.1787  0.0857
 6908TIP3    H142215   6.200   5.480   4.474  0.4789  0.4237 -0.5409
 6908TIP3    H242216   6.147   5.591   4.386 -1.4491 -0.0967 -0.0403
 6909TIP3   OH242217   3.471   3.548  14.554  0.2159 -0.0871 -0.2367
 6909TIP3    H142218   3.389   3.529  14.599  0.0664 -0.1284 -0.5221
 6909TIP3    H242219   3.509   3.462  14.537 -0.3337 -0.1349 -1.2964
 6910TIP3   OH242220   0.115   3.646  16.699 -0.7490 -0.3616 -0.3536
 6910TIP3    H142221   0.048   3.587  16.668 -2.6249  0.2955  2.2441
 6910TIP3    H242222   0.190   3.590  16.719 -1.5773 -1.4987 -0.4433
 6911TIP3   OH242223   4.156   3.013  10.740 -0.6022 -0.1229  0.2658
 6911TIP3    H142224   4.142   3.101  10.773 -0.4955  0.1156 -0.3149
 6911TIP3    H242225   4.125   2.955  10.810  0.7775  0.3501  1.2885
 6912TIP3   OH242226   5.763   3.446  14.912 -0.7941 -0.3783  0.0455
 6912TIP3    H142227   5.763   3.509  14.984 -0.2785  0.6075 -0.7981
 6912TIP3    H242228   5.855   3.423  14.900 -0.8250 -0.2171 -0.5580
 6913TIP3   OH242229   4.810   1.797   3.105 -0.5811  0.1484  0.2075
 6913TIP3    H142230   4.849   1.884   3.114 -0.1331  0.1384 -1.4478
 6913TIP3    H242231   4.724   1.813   3.066 -1.3361 -0.0168  1.7398
 6914TIP3   OH242232   2.263   3.542  15.199 -0.1962 -0.9294  0.4847
 6914TIP3    H142233   2.251   3.603  15.272 -0.5118  0.0685 -0.3877
 6914TIP3    H242234   2.323   3.588  15.139 -0.3153 -1.5402 -0.1003
 6915TIP3   OH242235   4.803   1.338   6.411  0.1423 -0.0978 -0.8464
 6915TIP3    H142236   4.763   1.424   6.419 -0.7712 -0.5365 -0.5215
 6915TIP3    H242237   4.790   1.297   6.497 -1.0769 -1.2311 -1.5408
 6916TIP3   OH242238   6.020   4.788   0.097 -0.1332 -0.4735 -0.2053
 6916TIP3    H142239   6.019   4.798   0.002 -1.1270 -1.4006 -0.3009
 6916TIP3    H242240   6.021   4.694   0.112  0.5499 -0.3291  0.7034
 6917TIP3   OH242241   6.106   3.695  10.669  0.8735  0.4812  0.0271
 6917TIP3    H142242   6.148   3.772  10.631  0.3424 -0.5815 -2.8003
 6917TIP3    H242243   6.013   3.708  10.651  0.7043 -0.4876  0.1846
 6918TIP3   OH242244   3.883   6.341  16.213  0.1979  0.1535 -0.0629
 6918TIP3    H142245   3.854   6.397  16.286  0.2482  0.4123 -0.2401
 6918TIP3    H242246   3.914   6.261  16.256 -2.2698 -0.7923  0.0514
 6919TIP3   OH242247   2.511   1.288  15.907 -0.2943  0.1469 -0.4278
 6919TIP3    H142248   2.497   1.218  15.971 -0.1240  0.8776  0.4246
 6919TIP3    H242249   2.483   1.368  15.952  2.4073  1.0627 -0.2289
 6920TIP3   OH242250   6.551   1.924  14.931 -0.0043 -0.1928  0.6218
 6920TIP3    H142251   6.556   1.828  14.927 -1.5666 -0.2526 -1.2688
 6920TIP3    H242252   6.524   1.943  15.020 -0.4030 -1.5900  0.8186
 6921TIP3   OH242253   6.283   3.531   0.091 -0.1173 -0.6514  0.7423
 6921TIP3    H142254   6.307   3.443   0.121  1.3787 -0.1539  1.0219
 6921TIP3    H242255   6.334   3.590   0.147  0.2026  0.3532 -0.6049
 6922TIP3   OH242256   2.626   0.321   5.536 -0.2865 -0.3855  0.5170
 6922TIP3    H142257   2.560   0.390   5.543 -1.0835 -0.8834 -1.5275
 6922TIP3    H242258   2.593   0.250   5.590 -0.8940 -0.2162  0.3731
 6923TIP3   OH242259   6.102   1.048   3.194 -0.2045  0.1505 -0.3982
 6923TIP3    H142260   6.049   0.981   3.238 -1.6023 -0.5334 -2.9895
 6923TIP3    H242261   6.192   1.028   3.218 -0.8837 -0.6070  1.5632
 6924TIP3   OH242262   5.527   6.016  11.980  0.6350  0.0581 -0.0899
 6924TIP3    H142263   5.481   5.937  12.009  1.3761 -0.8183 -1.2715
 6924TIP3    H242264   5.457   6.071  11.943  0.1450 -0.1307  0.5439
 6925TIP3   OH242265   4.569   3.990  11.112  0.3073 -0.0746  0.5265
 6925TIP3    H142266   4.524   4.071  11.135  0.7072  0.1560  0.4979
 6925TIP3    H242267   4.541   3.971  11.023  0.8439  0.4703  0.2389
 6926TIP3   OH242268   3.067   0.408  15.183  0.2034  0.1170  0.4147
 6926TIP3    H142269   3.144   0.409  15.240 -0.0909 -0.4423  0.8332
 6926TIP3    H242270   2.993   0.406  15.244 -0.1352  0.3310  0.0127
 6927TIP3   OH242271   4.476   6.503   2.605  0.1869  0.5103  0.0714
 6927TIP3    H142272   4.457   6.436   2.671 -0.0160  1.0630  0.5746
 6927TIP3    H242273   4.458   6.586   2.648  1.0464  0.9287 -0.3478
 6928TIP3   OH242274   5.284   1.735  12.574  0.5244 -0.0659  0.1466
 6928TIP3    H142275   5.232   1.756  12.651  0.5568  0.9424 -0.0893
 6928TIP3    H242276   5.249   1.652  12.542 -0.0111 -0.0879  0.7900
 6929TIP3   OH242277   4.806   3.206  15.554 -0.0237 -0.1965  0.1762
 6929TIP3    H142278   4.827   3.149  15.480 -0.2629 -0.9644  0.6885
 6929TIP3    H242279   4.721   3.244  15.531 -1.3708 -2.4388  1.1765
 6930TIP3   OH242280   3.860   2.962   5.570 -0.1466  0.1252 -0.3098
 6930TIP3    H142281   3.953   2.937   5.564  0.1500  0.7754  1.3158
 6930TIP3    H242282   3.825   2.907   5.640 -1.1732 -0.6311 -1.4108
 6931TIP3   OH242283   5.012   0.284  13.958  0.4322 -0.0779 -0.2742
 6931TIP3    H142284   4.982   0.323  13.876 -3.3153  3.3326  2.5064
 6931TIP3    H242285   4.949   0.214  13.976  0.9844 -0.5310 -0.0794
 6932TIP3   OH242286   6.743   5.397  16.347 -0.4472  0.3318 -0.3260
 6932TIP3    H142287   6.832   5.427  16.327 -0.4026  0.9285  0.6856
 6932TIP3    H242288   6.701   5.386  16.262  0.1886  1.2928 -0.7734
 6933TIP3   OH242289   1.518   5.460  16.758 -0.3656 -0.3693  0.7754
 6933TIP3    H142290   1.520   5.526  16.827 -0.4884 -0.1990  0.6189
 6933TIP3    H242291   1.587   5.486  16.697 -0.3168 -0.4678  0.7898
 6934TIP3   OH242292   6.642   6.397   1.994  0.0708 -0.2884  0.1816
 6934TIP3    H142293   6.721   6.436   2.033 -0.1518  0.1031  0.2499
 6934TIP3    H242294   6.619   6.326   2.053 -0.7901  0.8771  1.2796
 6935TIP3   OH242295   2.488   6.058  13.587  0.3426 -0.0924  0.2419
 6935TIP3    H142296   2.409   6.099  13.551 -0.4494 -1.5361  0.2967
 6935TIP3    H242297   2.455   5.992  13.647  1.5063 -2.5418 -1.7185
 6936TIP3   OH242298   1.011   3.662  12.328 -0.6136 -0.1398  0.4834
 6936TIP3    H142299   1.068   3.592  12.358  0.4665  1.5029  2.3455
 6936TIP3    H242300   1.068   3.722  12.281 -0.8419  1.3189  2.0229
 6937TIP3   OH242301   5.284   1.502   1.919 -0.2249  0.1906 -0.0336
 6937TIP3    H142302   5.247   1.586   1.892  0.4719  0.0071 -1.5878
 6937TIP3    H242303   5.211   1.455   1.958 -1.4303  0.2224 -2.1736
 6938TIP3   OH242304   4.458   6.159  13.184  0.1850  0.4285  0.0432
 6938TIP3    H142305   4.453   6.094  13.115  0.3635  1.2081 -0.7153
 6938TIP3    H242306   4.396   6.128  13.251 -0.4608  0.0021 -0.7417
 6939TIP3   OH242307   5.576   4.182   2.112  0.2284 -0.2751  0.3948
 6939TIP3    H142308   5.669   4.204   2.114  0.2817 -0.5023  0.4375
 6939TIP3    H242309   5.567   4.110   2.175 -0.1069  0.2548  0.9657
 6940TIP3   OH242310   1.778   5.917   3.368  0.3390  0.3365  0.1587
 6940TIP3    H142311   1.734   6.001   3.352 -1.7760 -0.4433  1.6182
 6940TIP3    H242312   1.823   5.897   3.286 -0.3172  2.2141 -0.6802
 6941TIP3   OH242313   3.356   5.270   4.231  0.4967  0.5449  0.0153
 6941TIP3    H142314   3.361   5.365   4.245  1.2849  0.4558  0.3827
 6941TIP3    H242315   3.265   5.248   4.253 -0.3486  1.5512 -2.3063
 6942TIP3   OH242316   3.416   4.245   1.738 -0.6417 -0.5581 -0.3056
 6942TIP3    H142317   3.441   4.329   1.700 -0.5819 -0.1832  0.5509
 6942TIP3    H242318   3.393   4.190   1.662 -1.3482  0.4450 -0.8260
 6943TIP3   OH242319   6.523   5.109  14.862 -0.5479 -0.3397  1.0709
 6943TIP3    H142320   6.504   5.125  14.769  3.2745 -1.0070  0.0887
 6943TIP3    H242321   6.526   5.196  14.902 -0.3757  0.0693  0.1782
 6944TIP3   OH242322   1.333   6.753   0.093 -0.4050 -0.2820  0.3499
 6944TIP3    H142323   1.259   6.773   0.037  0.2139  0.7574 -0.1003
 6944TIP3    H242324   1.396   6.822   0.076  0.8069 -1.3373  0.4952
 6945TIP3   OH242325   3.601   5.557  10.786 -0.2116 -0.6267 -0.1717
 6945TIP3    H142326   3.626   5.471  10.755  1.3546 -0.6942  1.1753
 6945TIP3    H242327   3.519   5.543  10.835  1.4180 -1.8457  2.3140
 6946TIP3   OH242328   6.411   6.351  16.276  0.4809  0.2346 -0.0055
 6946TIP3    H142329   6.369   6.315  16.197  0.9026  0.7603 -0.4749
 6946TIP3    H242330   6.481   6.289  16.296  0.5968  0.2835 -0.2528
 6947TIP3   OH242331   2.817   6.704   5.500  0.2958 -0.7587 -0.1296
 6947TIP3    H142332   2.858   6.694   5.586 -2.0038  1.0388  1.2291
 6947TIP3    H242333   2.871   6.770   5.456  0.4239 -0.3211  0.6616
 6948TIP3   OH242334   5.049   5.752   3.210 -0.0229  0.1355  0.3294
 6948TIP3    H142335   5.021   5.791   3.127 -1.9315 -1.4076  0.2197
 6948TIP3    H242336   5.017   5.812   3.277  1.0911  1.1294 -0.0131
 6949TIP3   OH242337   6.669   3.665   2.547  0.2317  0.3762  0.6425
 6949TIP3    H142338   6.686   3.747   2.502  0.0385  0.3991  0.6096
 6949TIP3    H242339   6.581   3.640   2.520  0.3356  0.0956  0.5584
 6950TIP3   OH242340   2.780   3.875  11.248 -0.3188  0.4944 -0.2104
 6950TIP3    H142341   2.728   3.914  11.178  1.1335  0.9026 -1.0661
 6950TIP3    H242342   2.795   3.947  11.310 -0.1410  0.5625 -0.3316
 6951TIP3   OH242343   3.880   5.681   3.347  0.4868 -0.1301  0.2607
 6951TIP3    H142344   3.820   5.684   3.273  0.5852  0.8130  0.2101
 6951TIP3    H242345   3.935   5.759   3.336  2.3522 -1.4846 -0.2256
 6952TIP3   OH242346   0.351   5.676   5.979 -0.1532  0.1475 -0.1264
 6952TIP3    H142347   0.305   5.602   6.019 -0.1205 -1.5339 -3.1100
 6952TIP3    H242348   0.432   5.683   6.029 -0.4835 -1.3802  0.6488
 6953TIP3   OH242349   6.294   1.109   3.488 -0.0750  0.0166 -0.0147
 6953TIP3    H142350   6.331   1.044   3.429 -0.5814  0.0319 -0.3468
 6953TIP3    H242351   6.341   1.190   3.467  0.3014 -0.1536  0.1527
 6954TIP3   OH242352   3.874   0.979   3.790  0.0958  0.8694  0.4822
 6954TIP3    H142353   3.920   1.022   3.863  0.2536  0.3978  0.6645
 6954TIP3    H242354   3.942   0.929   3.745 -0.3032 -0.0953  0.9483
 6955TIP3   OH242355   2.580   0.535   3.453 -0.5247 -0.7318 -0.4726
 6955TIP3    H142356   2.500   0.584   3.470  0.8342  1.1594  0.6143
 6955TIP3    H242357   2.587   0.475   3.528 -0.4046 -0.2170 -0.0710
 6956TIP3   OH242358   1.323   1.327  15.964 -0.3129 -0.3414 -0.1880
 6956TIP3    H142359   1.297   1.410  15.924  1.0433 -0.3667 -1.1887
 6956TIP3    H242360   1.408   1.346  16.004 -0.0706 -1.1966 -0.2811
 6957TIP3   OH242361   2.159   5.527  13.219  0.2946 -0.5419 -0.2976
 6957TIP3    H142362   2.186   5.561  13.134 -0.3915  1.5004  0.2628
 6957TIP3    H242363   2.237   5.481  13.252  1.6262  1.3793 -0.6581
 6958TIP3   OH242364   0.517   0.807  12.246  0.4475 -0.3365 -0.5398
 6958TIP3    H142365   0.580   0.792  12.316 -0.7891  1.9204  1.1506
 6958TIP3    H242366   0.558   0.874  12.191  0.3527 -0.2409 -0.4969
 6959TIP3   OH242367   0.647   2.458  16.199  0.2849  0.3278  0.0568
 6959TIP3    H142368   0.728   2.509  16.208  0.6725 -0.1187 -0.8133
 6959TIP3    H242369   0.577   2.521  16.218  0.8249  0.7666  0.6202
 6960TIP3   OH242370   6.692   4.373  10.837 -0.0637  0.1687  0.5167
 6960TIP3    H142371   6.660   4.301  10.891  1.6274  0.3152  1.7811
 6960TIP3    H242372   6.717   4.441  10.900  2.1950  0.2357 -0.3941
 6961TIP3   OH242373   5.839   5.033  12.698 -0.0676  0.3437 -0.4872
 6961TIP3    H142374   5.893   4.967  12.741  0.2861  1.0526  0.1703
 6961TIP3    H242375   5.880   5.117  12.722 -1.0207  0.8459 -0.6005
 6962TIP3   OH242376   5.247   1.219   4.714 -0.8290  0.3524  0.5804
 6962TIP3    H142377   5.257   1.302   4.668 -0.4731  0.8242  1.4877
 6962TIP3    H242378   5.152   1.203   4.716 -0.8948  0.7318  0.3860
 6963TIP3   OH242379   0.098   2.966  13.021 -0.0995  0.4314 -0.2200
 6963TIP3    H142380   0.017   2.923  12.993  0.9553 -1.1476 -0.9801
 6963TIP3    H242381   0.166   2.899  13.008  1.3957  1.8709 -0.0349
 6964TIP3   OH242382   0.002   4.745   0.536  0.1325 -0.0944 -0.5282
 6964TIP3    H142383   0.012   4.700   0.452 -0.0875  1.7016 -1.5571
 6964TIP3    H242384  -0.093   4.760   0.543 -0.1941 -2.6793  1.3967
 6965TIP3   OH242385   1.317   5.146   2.035 -0.0997 -0.4391 -0.0661
 6965TIP3    H142386   1.392   5.202   2.014  0.1140 -1.1886 -1.4179
 6965TIP3    H242387   1.241   5.197   2.006  0.0655 -0.6670 -0.9232
 6966TIP3   OH242388   1.094   4.978   3.955  0.5948  0.6236  0.2277
 6966TIP3    H142389   1.003   4.988   3.984 -0.0632 -1.2406 -1.1066
 6966TIP3    H242390   1.137   4.932   4.028  0.1512  0.3742  0.3373
 6967TIP3   OH242391   2.935   4.090   5.358 -0.4628 -0.0134  0.2703
 6967TIP3    H142392   2.872   4.066   5.291 -1.8917 -2.8511  2.5283
 6967TIP3    H242393   2.996   4.016   5.362  2.0839  1.9483 -0.7237
 6968TIP3   OH242394   5.299   3.480  12.922  0.1630  0.6313 -0.0480
 6968TIP3    H142395   5.368   3.521  12.870  0.8388 -0.2732  0.1188
 6968TIP3    H242396   5.345   3.443  12.998 -0.5804  0.4900  0.3426
 6969TIP3   OH242397   6.436   4.768   1.229  0.2455  0.0323  0.3481
 6969TIP3    H142398   6.343   4.782   1.211  0.5796 -1.4799 -2.9035
 6969TIP3    H242399   6.438   4.703   1.299 -1.1212 -0.2730  0.0989
 6970TIP3   OH242400   2.045   4.912   5.834  0.0991 -0.4994 -0.7070
 6970TIP3    H142401   1.951   4.915   5.814 -0.0799 -1.4025 -0.0332
 6970TIP3    H242402   2.067   5.002   5.857 -0.7210 -0.3789 -0.3572
 6971TIP3   OH242403   2.801   3.161  12.551 -0.6295  0.3065  0.5395
 6971TIP3    H142404   2.732   3.099  12.572  1.8872 -2.0607  2.1618
 6971TIP3    H242405   2.823   3.143  12.460 -1.0507 -0.0168  0.4989
 6972TIP3   OH242406   3.086   5.009  11.634 -0.1272 -0.3178 -0.4744
 6972TIP3    H142407   3.130   5.090  11.662 -0.8733 -0.1314  0.1727
 6972TIP3    H242408   3.041   5.034  11.553  0.3062 -0.3040 -0.7150
 6973TIP3   OH242409   6.717   2.389  14.012 -0.5517  0.0868  0.4183
 6973TIP3    H142410   6.678   2.407  14.098 -1.0223  0.2466  0.1761
 6973TIP3    H242411   6.779   2.460  13.998 -1.5422  0.8734 -0.0138
 6974TIP3   OH242412   0.508   5.919   2.589 -0.0565 -0.5138 -0.6309
 6974TIP3    H142413   0.455   5.954   2.518  0.6546 -1.7002 -1.7882
 6974TIP3    H242414   0.598   5.930   2.558  0.3354  0.4161  0.7982
 6975TIP3   OH242415   4.997   6.745  14.988  0.2685 -0.4153 -0.1351
 6975TIP3    H142416   4.902   6.736  14.991  0.0266  1.3345 -1.5672
 6975TIP3    H242417   5.027   6.668  14.940 -0.8088  0.8449 -2.9938
 6976TIP3   OH242418   1.860   2.264   4.702  0.2845 -0.0811  0.7592
 6976TIP3    H142419   1.768   2.273   4.679  0.5023 -2.1397 -1.1948
 6976TIP3    H242420   1.902   2.342   4.666 -1.0345  2.1409  3.9119
 6977TIP3   OH242421   5.741   3.330   0.893 -0.4199 -0.2095  0.1534
 6977TIP3    H142422   5.745   3.404   0.831  0.3060  0.7825  1.3658
 6977TIP3    H242423   5.660   3.344   0.941  1.4754  1.9179  2.9214
 6978TIP3   OH242424   3.232   0.063  15.313  0.2938  0.1414  0.1032
 6978TIP3    H142425   3.187   0.079  15.231 -0.6072 -0.0790  0.5538
 6978TIP3    H242426   3.271  -0.024  15.302 -2.2902 -1.1723  0.9934
 6979TIP3   OH242427   5.796   0.121  16.140 -0.5909 -0.0431 -0.6648
 6979TIP3    H142428   5.731   0.189  16.125  0.3183  0.8869 -0.4146
 6979TIP3    H242429   5.758   0.067  16.210 -1.8844 -0.5578 -1.7493
 6980TIP3   OH242430   4.599   5.233  15.195 -0.2900  0.8914 -0.2878
 6980TIP3    H142431   4.689   5.251  15.167 -0.7576  0.8445 -1.8776
 6980TIP3    H242432   4.590   5.138  15.187 -0.2433  0.8086  0.6163
 6981TIP3   OH242433   5.458   3.951   5.847 -0.1357 -0.0204  0.1576
 6981TIP3    H142434   5.419   3.951   5.760  0.4080  0.5063 -0.0924
 6981TIP3    H242435   5.479   3.860   5.864  1.1252  0.0614 -0.8986
 6982TIP3   OH242436   2.308   5.054  12.814 -0.1388  0.6822  0.2172
 6982TIP3    H142437   2.396   5.025  12.836  0.1294  0.6819 -0.8384
 6982TIP3    H242438   2.282   5.000  12.739 -0.8890  0.9312  0.2885
 6983TIP3   OH242439   0.137   6.544  12.402 -0.6137 -0.7163 -0.1258
 6983TIP3    H142440   0.090   6.462  12.417  0.9616 -1.4099  1.1282
 6983TIP3    H242441   0.157   6.577  12.489  2.3632 -1.1165 -0.6009
 6984TIP3   OH242442   2.248   1.840   4.705 -0.5497 -0.0592 -0.3304
 6984TIP3    H142443   2.261   1.896   4.629  2.5212 -0.2238  0.0153
 6984TIP3    H242444   2.244   1.901   4.779 -2.1372  0.0062 -0.4570
 6985TIP3   OH242445   4.231   1.655   1.072  0.5070  0.3238 -0.9530
 6985TIP3    H142446   4.175   1.593   1.025  0.0354  0.2906 -0.3540
 6985TIP3    H242447   4.170   1.721   1.106  0.7315 -0.1229  0.3419
 6986TIP3   OH242448   2.437   4.598   5.522 -0.3759  0.3919 -0.3919
 6986TIP3    H142449   2.391   4.667   5.473 -0.8228  0.3950  0.0304
 6986TIP3    H242450   2.528   4.608   5.497 -0.3075  1.7174  0.3280
 6987TIP3   OH242451   4.698   2.781  13.506  0.1352 -0.2845  0.2289
 6987TIP3    H142452   4.624   2.753  13.452  0.6830 -1.2557 -0.0410
 6987TIP3    H242453   4.757   2.825  13.444  0.4662 -0.8323  0.1475
 6988TIP3   OH242454   4.096   4.005   1.040 -0.3116 -0.0540  0.0674
 6988TIP3    H142455   4.093   3.955   1.121 -0.0777  0.8269  0.6363
 6988TIP3    H242456   4.133   4.090   1.067  1.4463 -0.3593 -1.2689
 6989TIP3   OH242457   4.628   0.589  15.583 -0.5642  0.4315  0.1816
 6989TIP3    H142458   4.546   0.634  15.603 -0.6832 -0.3243  1.4249
 6989TIP3    H242459   4.608   0.496  15.593  0.1900  0.1991 -0.4488
 6990TIP3   OH242460   1.552   1.231  15.146 -0.1292 -0.0176  0.1309
 6990TIP3    H142461   1.547   1.304  15.083  0.2412 -1.0092 -1.0545
 6990TIP3    H242462   1.637   1.192  15.130  0.4870  0.4645  2.1068
 6991TIP3   OH242463   4.307   6.520   1.356  0.2261  0.3389  0.1574
 6991TIP3    H142464   4.303   6.442   1.412 -0.5913  1.2938  1.4429
 6991TIP3    H242465   4.274   6.591   1.410  0.2231  1.4565 -1.2656
 6992TIP3   OH242466   4.878   0.059   3.832  0.1738 -0.3222 -0.2076
 6992TIP3    H142467   4.813  -0.007   3.857 -0.2722  0.7170  1.4532
 6992TIP3    H242468   4.927   0.075   3.913 -1.0361  2.8305 -0.0392
 6993TIP3   OH242469   5.670   2.527  13.970 -0.0406  0.0903  0.4507
 6993TIP3    H142470   5.646   2.434  13.966  0.0629  0.0373  0.9950
 6993TIP3    H242471   5.765   2.527  13.962 -0.1561  0.2635 -1.1379
 6994TIP3   OH242472   0.336   5.517   0.406  0.2710  0.4346 -0.3643
 6994TIP3    H142473   0.424   5.514   0.444 -1.1956  2.2658  3.4359
 6994TIP3    H242474   0.307   5.607   0.419 -2.7981 -0.5466  0.0043
 6995TIP3   OH242475   2.270   3.017  15.261  0.4711  0.5013 -0.0066
 6995TIP3    H142476   2.261   3.112  15.273 -1.8290  0.1662  1.2369
 6995TIP3    H242477   2.364   3.002  15.259  0.8740  2.8757 -0.7496
 6996TIP3   OH242478   4.330   3.339  17.139 -0.1274 -0.0321  0.5337
 6996TIP3    H142479   4.278   3.277  17.089  1.3878 -0.3897 -0.6317
 6996TIP3    H242480   4.361   3.403  17.075  1.0904  0.0097  1.1371
 6997TIP3   OH242481   4.608   0.434   0.617 -0.0784 -0.0281  0.3726
 6997TIP3    H142482   4.610   0.457   0.709  0.5858 -1.3025  0.6769
 6997TIP3    H242483   4.591   0.517   0.572  2.5838  1.1305  1.4321
 6998TIP3   OH242484   4.797   5.507   3.470  0.6521  0.3056 -0.3908
 6998TIP3    H142485   4.877   5.461   3.444  0.5817  0.5553 -1.0637
 6998TIP3    H242486   4.800   5.589   3.420 -0.8860 -0.4496 -1.7705
 6999TIP3   OH242487   5.408   6.747   4.034 -0.2362  0.4751 -0.1980
 6999TIP3    H142488   5.435   6.838   4.044  2.3163 -0.2219 -0.4482
 6999TIP3    H242489   5.418   6.730   3.940  0.5186 -0.4177  0.0375
 7000TIP3   OH242490   0.844   0.919  15.299 -0.2605  0.3542  0.0300
 7000TIP3    H142491   0.936   0.929  15.321 -0.3170  0.9739 -0.0245
 7000TIP3    H242492   0.811   1.008  15.287 -1.0578  0.1837  0.8473
 7001TIP3   OH242493   4.645   1.938   1.064 -0.5338 -0.4198 -0.0877
 7001TIP3    H142494   4.677   1.953   0.975 -0.4351 -0.4132 -0.0514
 7001TIP3    H242495   4.683   1.853   1.089 -0.0147 -0.1057  0.1954
 7002TIP3   OH242496   6.705   3.492   4.618  0.1225 -0.1046  0.0235
 7002TIP3    H142497   6.662   3.428   4.561 -1.1594 -1.4141  2.4102
 7002TIP3    H242498   6.785   3.449   4.647  0.8509  0.6208 -0.8553
 7003TIP3   OH242499   0.965   1.335   5.978  0.0794 -0.3309  0.0750
 7003TIP3    H142500   0.958   1.290   6.063 -1.5910 -1.9861 -0.8836
 7003TIP3    H242501   0.919   1.418   5.991  0.2382 -0.3749  0.9336
 7004TIP3   OH242502   1.697   5.766  16.936  0.0314 -0.0489  0.5378
 7004TIP3    H142503   1.711   5.858  16.916 -1.1290  0.2877  1.2089
 7004TIP3    H242504   1.604   5.751  16.918 -0.0049 -0.8484  1.3228
 7005TIP3   OH242505   4.111   4.014   5.811 -0.0860  0.5087  0.4532
 7005TIP3    H142506   4.075   4.102   5.815 -0.5024  0.3101  1.0600
 7005TIP3    H242507   4.058   3.970   5.744 -0.0658  0.6271  0.3590
 7006TIP3   OH242508   3.592   6.069  10.864  0.4113 -0.3776 -0.0510
 7006TIP3    H142509   3.639   6.007  10.807 -0.3265  0.1234 -1.2320
 7006TIP3    H242510   3.659   6.132  10.890  1.1891 -1.7305  1.2479
 7007TIP3   OH242511   3.775   5.599  11.005 -0.0385 -0.3278 -0.2189
 7007TIP3    H142512   3.742   5.614  10.917  1.9654  0.8866 -0.8060
 7007TIP3    H242513   3.809   5.509  11.003 -1.2451 -0.7888 -0.2561
 7008TIP3   OH242514   1.371   5.905  15.040 -0.0925  0.4206  0.4013
 7008TIP3    H142515   1.447   5.848  15.037 -0.8036 -0.5692  0.7483
 7008TIP3    H242516   1.337   5.896  15.129 -0.2870  1.2863  0.4195
 7009TIP3   OH242517   4.148   5.517  13.342 -0.3637  0.2841  0.3477
 7009TIP3    H142518   4.119   5.608  13.348 -1.7681 -0.1952  1.1518
 7009TIP3    H242519   4.214   5.517  13.272 -1.3737  1.6700 -0.6340
 7010TIP3   OH242520   4.989   3.269   2.805 -0.0955  0.0392  0.6940
 7010TIP3    H142521   5.056   3.257   2.738 -1.5378 -0.6572 -0.6751
 7010TIP3    H242522   5.023   3.339   2.861  0.6842  1.3786 -1.3822
 7011TIP3   OH242523   0.700   4.863  14.356 -0.4428 -0.2808 -0.5414
 7011TIP3    H142524   0.719   4.949  14.394  0.4822 -0.7011 -0.0320
 7011TIP3    H242525   0.743   4.801  14.415 -0.4750 -1.0523 -1.3203
 7012TIP3   OH242526   6.596   2.491  15.100 -0.2176 -0.1122 -0.4354
 7012TIP3    H142527   6.556   2.418  15.054  0.7081 -0.9042  0.0057
 7012TIP3    H242528   6.534   2.563  15.089 -0.1617 -0.3669 -2.6349
 7013TIP3   OH242529   0.551   4.770   2.529  0.4987  0.6694  0.0039
 7013TIP3    H142530   0.639   4.807   2.536 -0.0660  1.5142  3.9737
 7013TIP3    H242531   0.561   4.679   2.559 -0.2944  1.4289  2.7578
 7014TIP3   OH242532   0.568   3.206  14.524  0.4498  0.6749 -0.7534
 7014TIP3    H142533   0.566   3.139  14.592  3.1569 -0.0025 -1.2912
 7014TIP3    H242534   0.506   3.175  14.457 -0.1096 -0.0488  0.0899
 7015TIP3   OH242535   2.015   2.134   1.662  0.0344  0.0379 -0.1053
 7015TIP3    H142536   1.923   2.138   1.690 -0.1484 -0.6763 -0.5896
 7015TIP3    H242537   2.015   2.071   1.589  0.9267 -0.0676 -0.0168
 7016TIP3   OH242538   4.020   2.461   4.530  0.2715  0.7321 -0.1241
 7016TIP3    H142539   4.109   2.430   4.548 -0.3820 -1.1208 -0.0386
 7016TIP3    H242540   4.011   2.540   4.584  0.9794 -0.5165  1.8774
 7017TIP3   OH242541   0.630   4.281  12.675 -0.3162  0.1467  0.3465
 7017TIP3    H142542   0.559   4.259  12.734 -0.8488  0.5705 -0.1312
 7017TIP3    H242543   0.646   4.374  12.689 -0.8304  0.3828 -0.5796
 7018TIP3   OH242544   1.934   6.407   1.508 -0.0676  0.3719  0.1896
 7018TIP3    H142545   1.991   6.429   1.434 -1.2588 -0.1174 -0.8897
 7018TIP3    H242546   1.938   6.311   1.513  0.3211  0.4335  1.0082
 7019TIP3   OH242547   2.191   0.341   4.263 -0.7151  0.1097  0.1012
 7019TIP3    H142548   2.138   0.370   4.337 -0.9588  1.1462 -0.4732
 7019TIP3    H242549   2.138   0.274   4.219 -2.6452  2.8240 -1.8769
 7020TIP3   OH242550   3.787   2.551   3.594  0.6743 -0.3332 -0.4110
 7020TIP3    H142551   3.703   2.530   3.554  0.2444 -0.9117  0.7809
 7020TIP3    H242552   3.824   2.466   3.618  1.4250 -0.0558 -0.5642
 7021TIP3   OH242553   4.518   6.723  14.851 -0.5267 -0.4073  0.1429
 7021TIP3    H142554   4.483   6.721  14.762 -0.6661 -0.3711  0.1972
 7021TIP3    H242555   4.450   6.681  14.904 -1.1186  0.9469  0.4737
 7022TIP3   OH242556   2.660   3.140   0.837 -0.2948 -0.5578  0.5777
 7022TIP3    H142557   2.573   3.173   0.861  0.8663  2.8406  0.3456
 7022TIP3    H242558   2.721   3.189   0.892  1.7375  0.2478 -2.2793
 7023TIP3   OH242559   3.510   4.983   4.917  0.4809 -0.9321  0.3544
 7023TIP3    H142560   3.598   4.952   4.896  0.4210 -0.9215  0.0971
 7023TIP3    H242561   3.523   5.072   4.949  0.3886 -0.3542 -1.2174
 7024TIP3   OH242562   3.032   6.785   3.235 -0.1364  0.1135  0.5604
 7024TIP3    H142563   3.020   6.706   3.182  0.2474  0.8209 -0.6017
 7024TIP3    H242564   3.111   6.768   3.286 -0.3446 -0.4628  0.6943
 7025TIP3   OH242565   2.319   0.616  12.696 -0.3670  0.2465  0.2979
 7025TIP3    H142566   2.379   0.592  12.767 -0.3914 -0.0183  0.2300
 7025TIP3    H242567   2.355   0.572  12.618  1.5543  3.2189 -0.5681
 7026TIP3   OH242568   4.215   2.382  14.072 -0.4612 -0.1697  0.2064
 7026TIP3    H142569   4.282   2.319  14.096 -0.5327 -0.9389 -1.5240
 7026TIP3    H242570   4.223   2.391  13.977  0.7326  3.7892  0.5900
 7027TIP3   OH242571   4.905   0.036   0.839  0.0841  0.0795 -0.7687
 7027TIP3    H142572   4.968  -0.020   0.794 -0.4280 -1.9211  0.9349
 7027TIP3    H242573   4.836   0.051   0.774  0.8917 -0.1347 -1.6876
 7028TIP3   OH242574   2.714   4.552  14.505 -0.4013  0.2884 -0.2135
 7028TIP3    H142575   2.654   4.614  14.544 -2.8101 -1.8497 -0.3571
 7028TIP3    H242576   2.754   4.507  14.580  0.7263  1.4137 -0.1249
 7029TIP3   OH242577   2.588   6.372   1.557  0.2609  0.3289 -0.1142
 7029TIP3    H142578   2.657   6.376   1.490  0.5818  0.2822  0.2098
 7029TIP3    H242579   2.583   6.461   1.592 -0.6567  0.6080 -0.9459
 7030TIP3   OH242580   1.839   2.924  14.690 -0.2351  0.5148  0.3418
 7030TIP3    H142581   1.808   2.994  14.634 -1.4674  1.0669  1.6851
 7030TIP3    H242582   1.778   2.924  14.765 -0.3234 -2.0350  0.3076
 7031TIP3   OH242583   5.240   4.323  12.376 -0.0228  0.1912  0.6616
 7031TIP3    H142584   5.158   4.331  12.425  1.0098  0.3893  2.3987
 7031TIP3    H242585   5.277   4.411  12.379 -0.1765  0.3161 -0.9109
 7032TIP3   OH242586   3.177   5.542   4.407 -0.0364 -0.4843  0.1018
 7032TIP3    H142587   3.107   5.591   4.364  0.5814 -0.1487 -0.5368
 7032TIP3    H242588   3.170   5.567   4.499 -0.0351  0.4300 -0.1430
 7033TIP3   OH242589   2.654   3.013  12.248  0.3342 -0.2980  0.3075
 7033TIP3    H142590   2.700   3.093  12.221 -0.4530 -0.3341 -1.2026
 7033TIP3    H242591   2.651   2.959  12.169 -0.4700 -1.1792  0.9280
 7034TIP3   OH242592   4.654   5.860   5.660 -0.0232 -0.1411 -0.0708
 7034TIP3    H142593   4.715   5.799   5.700 -0.9748 -0.6941  0.5443
 7034TIP3    H242594   4.572   5.847   5.707 -1.4881 -1.5707 -2.8816
 7035TIP3   OH242595   2.703   4.433  13.175  0.3719  0.0853 -1.0947
 7035TIP3    H142596   2.698   4.488  13.253  0.8247 -1.7638  0.2714
 7035TIP3    H242597   2.618   4.442  13.133 -1.9588 -3.1534  2.5831
 7036TIP3   OH242598   3.971   2.423   4.960  0.2509  0.1116  0.1901
 7036TIP3    H142599   4.015   2.341   4.938 -0.4285  0.1536 -1.3621
 7036TIP3    H242600   3.944   2.460   4.876 -0.3187  1.4468  0.9379
 7037TIP3   OH242601   0.876   5.842   1.965 -0.4120 -0.3838  0.1657
 7037TIP3    H142602   0.824   5.835   1.885 -0.0568 -0.1333 -0.0839
 7037TIP3    H242603   0.953   5.893   1.940 -1.6057  2.0339  1.3138
 7038TIP3   OH242604   0.893   0.475   3.990  0.2030 -0.0595  0.3284
 7038TIP3    H142605   0.965   0.512   3.939  1.5219 -1.0375  1.4487
 7038TIP3    H242606   0.896   0.381   3.970  0.1064 -0.3003  1.4388
 7039TIP3   OH242607   6.602   4.050   6.117  0.0938  0.1909 -0.3188
 7039TIP3    H142608   6.669   4.116   6.100  1.1729 -1.1338 -1.3100
 7039TIP3    H242609   6.530   4.073   6.058 -0.1991  1.4432  0.5289
 7040TIP3   OH242610   1.522   6.335   3.226 -0.6750  0.3521 -0.0577
 7040TIP3    H142611   1.561   6.409   3.271  0.2941 -0.3842  0.3359
 7040TIP3    H242612   1.469   6.291   3.294 -0.6742  0.2817 -0.1016
 7041TIP3   OH242613   1.098   5.485   4.246  0.0267 -0.1102  0.8637
 7041TIP3    H142614   1.011   5.491   4.286 -0.4987 -0.8512 -0.1462
 7041TIP3    H242615   1.151   5.439   4.310 -0.8003 -1.2652  0.7468
 7042TIP3   OH242616   6.423   4.934   4.829 -0.2920  0.2406 -0.3335
 7042TIP3    H142617   6.478   4.861   4.857  0.1462  0.4051 -0.7585
 7042TIP3    H242618   6.336   4.896   4.819 -0.5270  0.2297  1.5243
 7043TIP3   OH242619   2.411   1.756   0.198  0.0014  0.0971  0.0588
 7043TIP3    H142620   2.364   1.684   0.156  1.5211 -1.3038  0.6627
 7043TIP3    H242621   2.387   1.833   0.148 -0.8263 -1.0052 -1.2854
 7044TIP3   OH242622   4.300   4.255   3.885 -0.8139 -0.4232  0.7723
 7044TIP3    H142623   4.308   4.179   3.942  0.2985  0.6556  2.0745
 7044TIP3    H242624   4.366   4.242   3.817 -0.4090 -0.4534  1.1759
 7045TIP3   OH242625   5.526   3.672   5.689 -1.1382  0.4460  0.4069
 7045TIP3    H142626   5.527   3.706   5.779 -1.2812  0.9269  0.2286
 7045TIP3    H242627   5.504   3.579   5.699 -0.3370  0.3106  0.9253
 7046TIP3   OH242628   4.432   5.415  10.756  0.3202 -0.5075 -0.2963
 7046TIP3    H142629   4.433   5.501  10.714  0.7839 -1.2741 -1.8615
 7046TIP3    H242630   4.340   5.404  10.783  0.0979  0.1504 -0.7460
 7047TIP3   OH242631   2.118   6.443  15.003  0.1241 -0.1778  0.1107
 7047TIP3    H142632   2.196   6.434  14.949  0.7750  1.4790  0.7589
 7047TIP3    H242633   2.097   6.536  15.001 -1.6144 -0.5431  0.2638
 7048TIP3   OH242634   2.687   5.489  11.242  0.9294 -0.3384 -0.6109
 7048TIP3    H142635   2.673   5.581  11.262  1.9573 -0.4743  0.7912
 7048TIP3    H242636   2.732   5.489  11.157 -1.4585  0.3229 -1.9275
 7049TIP3   OH242637   4.033   3.641  16.987 -0.0642  0.2081 -0.5786
 7049TIP3    H142638   4.119   3.647  17.028 -0.2769 -0.6881  0.0240
 7049TIP3    H242639   3.979   3.705  17.033  0.1233  0.3481 -0.5535
 7050TIP3   OH242640   0.115   3.331   0.472  0.0489 -0.3928  0.0801
 7050TIP3    H142641   0.164   3.258   0.435  0.0826 -0.6413  0.6065
 7050TIP3    H242642   0.058   3.291   0.538 -0.6497 -0.0716 -0.3203
 7051TIP3   OH242643   5.588   6.714   4.286 -0.0521 -0.5979 -0.0400
 7051TIP3    H142644   5.497   6.685   4.281  0.2597 -1.7232  0.6334
 7051TIP3    H242645   5.594   6.786   4.224 -1.5234 -0.2070  0.2581
 7052TIP3   OH242646   1.424   5.107  14.078 -0.2074 -0.2466  0.1383
 7052TIP3    H142647   1.441   5.187  14.028  0.5253 -0.5600 -0.1319
 7052TIP3    H242648   1.461   5.037  14.024  3.1540 -0.3150  2.3664
 7053TIP3   OH242649   0.329   1.166   5.205  0.3770 -0.1302  0.0500
 7053TIP3    H142650   0.313   1.189   5.114  0.2171 -1.9753 -0.4054
 7053TIP3    H242651   0.414   1.122   5.204  0.7582  0.5565  0.9258
 7054TIP3   OH242652   2.725   3.823  14.224  1.1030 -0.1172  0.3434
 7054TIP3    H142653   2.724   3.915  14.251  1.0715  0.1952 -0.7034
 7054TIP3    H242654   2.693   3.824  14.134 -2.7615 -1.5904  1.6078
 7055TIP3   OH242655   5.533   4.331   0.837 -0.0046 -0.6543 -0.4618
 7055TIP3    H142656   5.440   4.326   0.855 -0.2302 -1.0508 -1.6505
 7055TIP3    H242657   5.563   4.410   0.881 -0.9540 -0.3891 -0.2960
 7056TIP3   OH242658   2.470   1.509   1.801  0.9304 -0.5471 -0.5285
 7056TIP3    H142659   2.501   1.580   1.745 -0.3127 -1.6315 -2.6751
 7056TIP3    H242660   2.377   1.528   1.814  1.1055 -0.5680  0.7775
 7057TIP3   OH242661   4.136   5.829  11.301 -0.4387  0.5472  0.4349
 7057TIP3    H142662   4.068   5.789  11.247 -0.7891  1.7802 -0.0723
 7057TIP3    H242663   4.091   5.899  11.349  0.3277  0.9419  0.5984
 7058TIP3   OH242664   1.729   6.463   5.100 -0.0247 -0.6495  0.0981
 7058TIP3    H142665   1.762   6.373   5.094  1.7432 -0.0894  1.0269
 7058TIP3    H242666   1.748   6.489   5.190  0.7014  1.1109 -0.5484
 7059TIP3   OH242667   2.404   5.818  15.145  0.0684 -0.3740 -0.5529
 7059TIP3    H142668   2.452   5.762  15.206 -1.0076 -0.3227  0.3596
 7059TIP3    H242669   2.473   5.861  15.094  1.1106  0.9881  1.8696
 7060TIP3   OH242670   0.985   3.613  12.799 -0.6123  0.2688 -0.5187
 7060TIP3    H142671   1.063   3.649  12.758 -1.5444 -0.4091 -3.0007
 7060TIP3    H242672   0.955   3.546  12.737 -1.5979 -1.4052  1.7019
 7061TIP3   OH242673   3.470   5.613  12.399  0.0391  0.5605 -0.4747
 7061TIP3    H142674   3.381   5.625  12.431 -0.3475  0.0885 -1.3420
 7061TIP3    H242675   3.525   5.614  12.477 -1.0657 -2.4505  0.4121
 7062TIP3   OH242676   1.388   1.063  15.889  0.1189  0.3493 -0.5509
 7062TIP3    H142677   1.349   1.137  15.936  2.5192  1.1512  0.2241
 7062TIP3    H242678   1.396   1.094  15.799 -1.9385 -0.2098 -0.9734
 7063TIP3   OH242679   3.766   0.609   3.492 -0.0406 -0.6178 -0.0910
 7063TIP3    H142680   3.715   0.531   3.514 -0.9558 -0.2974 -1.0336
 7063TIP3    H242681   3.723   0.680   3.541  0.7623 -0.7036  0.7319
 7064TIP3   OH242682   6.486   4.374  14.117  0.6468  0.5892  0.0762
 7064TIP3    H142683   6.401   4.338  14.144  0.7134  1.0830  0.9503
 7064TIP3    H242684   6.464   4.452  14.067  0.5656  0.2966 -0.3530
 7065TIP3   OH242685   1.415   2.148   5.415 -0.2686 -0.0994  0.2146
 7065TIP3    H142686   1.372   2.167   5.499 -0.3277 -0.0937  0.1833
 7065TIP3    H242687   1.356   2.185   5.349 -0.9682 -1.3960  0.0884
 7066TIP3   OH242688   6.757   3.009  12.726  0.0433  0.3091 -0.2346
 7066TIP3    H142689   6.716   2.954  12.793  0.8927 -0.5222 -0.3831
 7066TIP3    H242690   6.840   3.037  12.765  0.6454 -0.3617 -0.9968
 7067TIP3   OH242691   2.173   6.413   4.701  1.0448  0.0575 -0.3419
 7067TIP3    H142692   2.134   6.420   4.614  0.1201 -0.0467  0.0655
 7067TIP3    H242693   2.220   6.329   4.699  0.3767 -0.3167 -0.4824
 7068TIP3   OH242694   4.234   2.794  17.196 -0.3814  0.2746 -0.6833
 7068TIP3    H142695   4.243   2.880  17.237 -0.2786 -0.8773  1.7771
 7068TIP3    H242696   4.140   2.784  17.181 -0.5001  0.3313  0.0486
 7069TIP3   OH242697   6.548   4.065  15.417  0.4191 -0.3895 -0.9521
 7069TIP3    H142698   6.642   4.084  15.420  0.3208  0.5113 -2.4985
 7069TIP3    H242699   6.519   4.069  15.508  2.0144 -1.4126 -0.3793
 7070TIP3   OH242700   3.443   0.839  12.928  0.6285  0.3852  0.3671
 7070TIP3    H142701   3.361   0.882  12.906  0.2112 -0.1699  0.8258
 7070TIP3    H242702   3.505   0.870  12.862 -0.3566 -0.4739 -0.9810
 7071TIP3   OH242703   0.187   4.750  12.316 -0.2639 -0.0846 -0.0992
 7071TIP3    H142704   0.122   4.764  12.246 -2.6199 -0.2928  1.9725
 7071TIP3    H242705   0.194   4.655  12.322 -1.3220 -0.1120  1.0125
 7072TIP3   OH242706   3.099   5.906  15.734 -0.7061 -0.0583 -0.2247
 7072TIP3    H142707   3.102   5.948  15.820 -1.3150  1.4164 -0.9025
 7072TIP3    H242708   3.013   5.930  15.699 -0.2384 -0.1650 -1.4742
 7073TIP3   OH242709   6.489   0.251  13.507 -0.1992 -0.1791 -0.4408
 7073TIP3    H142710   6.522   0.324  13.455  1.7822 -1.3522 -0.8519
 7073TIP3    H242711   6.565   0.220  13.556 -1.6013 -0.3589  1.6630
 7074TIP3   OH242712   3.345   5.786  14.364 -0.1926  0.4630 -0.3491
 7074TIP3    H142713   3.313   5.703  14.328  1.4581  0.1933 -1.2828
 7074TIP3    H242714   3.339   5.848  14.292 -1.0917  1.0790  0.2447
 7075TIP3   OH242715   6.435   2.286  15.996 -0.2264 -0.1138  0.1921
 7075TIP3    H142716   6.485   2.208  15.974  0.5832  0.1351  1.0818
 7075TIP3    H242717   6.482   2.323  16.072 -1.0091  0.8314  0.2181
 7076TIP3   OH242718   5.663   4.962   6.683 -0.0361 -0.1786 -0.5170
 7076TIP3    H142719   5.708   4.877   6.685  0.1171 -0.0757  0.9249
 7076TIP3    H242720   5.602   4.959   6.756 -1.9232 -0.0345 -2.0325
 7077TIP3   OH242721   2.528   2.498  13.853  0.1657 -0.2373  0.2659
 7077TIP3    H142722   2.471   2.575  13.853  0.2011 -0.2067  0.8059
 7077TIP3    H242723   2.475   2.429  13.894  1.2564  0.3718  2.8156
 7078TIP3   OH242724   1.707   0.075  16.961  0.4692  0.4339  0.1207
 7078TIP3    H142725   1.636   0.129  16.996 -1.3564 -1.0910 -1.0677
 7078TIP3    H242726   1.759   0.051  17.038  0.7936  3.0818  0.7691
 7079TIP3   OH242727   0.342   5.869  13.190  0.0572  0.3243 -0.6246
 7079TIP3    H142728   0.265   5.839  13.239  0.8178  0.8651  0.9333
 7079TIP3    H242729   0.327   5.963  13.179  0.7706  0.5359  0.1959
 7080TIP3   OH242730   1.885   3.641   4.238 -0.6564  0.1788  0.7825
 7080TIP3    H142731   1.842   3.649   4.323 -1.9498  2.0388 -0.0076
 7080TIP3    H242732   1.888   3.731   4.204  0.0731 -0.5018 -1.0066
 7081TIP3   OH242733   3.167   2.529   5.309 -0.0402  0.0571  0.1559
 7081TIP3    H142734   3.225   2.477   5.365 -0.1968 -0.2093  0.0705
 7081TIP3    H242735   3.203   2.519   5.221 -0.0743  0.0874  0.1390
 7082TIP3   OH242736   0.839   2.921  12.998 -0.0079  0.6049  0.3167
 7082TIP3    H142737   0.916   2.868  12.975 -0.8397  0.1448 -1.5283
 7082TIP3    H242738   0.765   2.862  12.988 -0.7890  1.6166 -0.0126
 7083TIP3   OH242739   0.217   6.300   0.069 -0.4912  0.0718  0.2988
 7083TIP3    H142740   0.308   6.274   0.088  0.2466  2.0842 -0.2951
 7083TIP3    H242741   0.213   6.392   0.096 -2.5107 -0.1447  0.7826
 7084TIP3   OH242742   6.108   5.634  11.180  0.3341 -0.1184  0.2292
 7084TIP3    H142743   6.166   5.562  11.154 -0.9327 -0.6153 -1.2928
 7084TIP3    H242744   6.069   5.664  11.098  1.4032  2.8294  0.7348
 7085TIP3   OH242745   4.707   2.202   3.010 -0.1640 -0.0657 -0.1242
 7085TIP3    H142746   4.706   2.285   2.963  0.5435  0.1387  0.2176
 7085TIP3    H242747   4.694   2.136   2.942 -0.0303  0.2851 -0.4911
 7086TIP3   OH242748   5.497   0.695  11.700 -0.1618 -0.1069 -0.2428
 7086TIP3    H142749   5.429   0.631  11.679  0.5640 -1.1285  0.4541
 7086TIP3    H242750   5.449   0.771  11.734 -1.1280  0.3012 -2.4136
 7087TIP3   OH242751   6.553   3.423   6.611 -0.9973 -0.3646  0.5700
 7087TIP3    H142752   6.477   3.384   6.568  0.2912 -0.6282 -1.5571
 7087TIP3    H242753   6.628   3.386   6.565  0.3573  1.6917  1.0492
 7088TIP3   OH242754   0.090   2.481  11.734 -0.4214  0.5794  0.2960
 7088TIP3    H142755   0.059   2.392  11.716  1.0698  0.2385 -0.6570
 7088TIP3    H242756   0.134   2.508  11.654 -1.9914  2.7002  0.0880
 7089TIP3   OH242757   0.666   3.004   2.814  0.3224  0.7320 -0.2436
 7089TIP3    H142758   0.576   3.036   2.810 -0.2543 -0.8885 -0.5212
 7089TIP3    H242759   0.664   2.920   2.770  1.9083  0.5107  0.0714
 7090TIP3   OH242760   5.983   4.866  15.687  0.3078  0.6617 -0.3083
 7090TIP3    H142761   5.958   4.835  15.601  0.3882  0.4039 -0.2409
 7090TIP3    H242762   5.984   4.787  15.742 -0.8065  0.9749  0.1873
 7091TIP3   OH242763   4.552   5.590   1.803  0.3599 -0.1425 -0.2075
 7091TIP3    H142764   4.605   5.599   1.882  0.0751  1.6657 -0.2155
 7091TIP3    H242765   4.613   5.606   1.730  0.1767  0.1775 -0.2882
 7092TIP3   OH242766   0.784   5.244   1.030  0.5306  0.2772  0.0092
 7092TIP3    H142767   0.748   5.241   0.941 -1.1869  2.1654  0.5865
 7092TIP3    H242768   0.836   5.324   1.032  1.1354 -0.1233  0.5099
 7093TIP3   OH242769   4.137   3.460   0.023 -0.0045  0.2135  0.2423
 7093TIP3    H142770   4.205   3.519   0.055  0.0367 -0.0271  0.5998
 7093TIP3    H242771   4.171   3.428  -0.060  0.5696 -0.3428  0.6908
 7094TIP3   OH242772   2.049   4.557  12.939  0.0961 -0.4779  0.1122
 7094TIP3    H142773   1.982   4.489  12.946 -0.5417  0.3690  2.4815
 7094TIP3    H242774   2.006   4.626  12.888 -0.1190 -0.7604 -0.0974
 7095TIP3   OH242775   4.725   5.054   5.091 -0.2169 -0.3036 -0.2634
 7095TIP3    H142776   4.697   5.085   5.177 -2.5875  0.7425 -1.3560
 7095TIP3    H242777   4.700   5.124   5.031 -0.7264 -1.9842 -2.0895
 7096TIP3   OH242778   5.440   1.541  16.949  0.2458  0.4341 -0.6000
 7096TIP3    H142779   5.366   1.492  16.984  0.7250  0.3659  0.3121
 7096TIP3    H242780   5.481   1.583  17.025  0.9538  0.7315 -1.1345
 7097TIP3   OH242781   1.627   4.096  11.485  0.3983 -0.6799  0.5597
 7097TIP3    H142782   1.621   4.174  11.430  0.3247 -0.9883  0.1324
 7097TIP3    H242783   1.720   4.090  11.507  0.5339 -0.9473 -0.0935
 7098TIP3   OH242784   3.198   5.504   2.261 -0.8351 -0.2386 -0.3533
 7098TIP3    H142785   3.153   5.448   2.324 -0.8374 -1.2393 -1.2237
 7098TIP3    H242786   3.288   5.471   2.261 -1.0861 -0.9582 -1.6551
 7099TIP3   OH242787   3.587   2.260  11.657  0.5159  0.0706  0.2003
 7099TIP3    H142788   3.673   2.230  11.629 -0.2095 -3.3898  1.4856
 7099TIP3    H242789   3.589   2.254  11.753 -1.3723 -0.7220  0.2173
 7100TIP3   OH242790   3.474   2.588   5.170 -0.1728  0.6379  0.1528
 7100TIP3    H142791   3.498   2.669   5.124  0.9867 -0.5121 -1.3409
 7100TIP3    H242792   3.434   2.534   5.102  1.2228 -0.9540  0.5896
 7101TIP3   OH242793   0.112   2.093   6.347  0.1585 -0.4149  0.3720
 7101TIP3    H142794   0.098   2.061   6.436  0.2532 -0.1791  0.4725
 7101TIP3    H242795   0.144   2.017   6.299 -1.7323 -1.0344  0.0671
 7102TIP3   OH242796   4.729   2.614  11.664 -0.5090  0.3546 -0.4290
 7102TIP3    H142797   4.666   2.544  11.646  0.4878 -1.0044  1.1822
 7102TIP3    H242798   4.727   2.624  11.760 -1.5650  3.4497 -0.7204
 7103TIP3   OH242799   0.567   3.757   5.110 -0.1210 -0.8039  0.7064
 7103TIP3    H142800   0.472   3.754   5.096 -0.1349  0.6502  0.4197
 7103TIP3    H242801   0.578   3.757   5.205 -0.5970  2.8048  0.8414
 7104TIP3   OH242802   2.374   2.491   2.243  0.3355 -0.4746 -0.4785
 7104TIP3    H142803   2.287   2.501   2.282  0.3716 -3.0687  0.3607
 7104TIP3    H242804   2.360   2.500   2.149 -0.5231  0.9098 -0.2424
 7105TIP3   OH242805   2.105   0.043   2.941  0.0620  0.0507  0.3461
 7105TIP3    H142806   2.044   0.116   2.944  1.0405  1.0092 -1.9743
 7105TIP3    H242807   2.178   0.074   2.887  1.3516 -2.0087  0.8121
 7106TIP3   OH242808   4.247   5.370  13.523  0.3668  0.5166  0.2592
 7106TIP3    H142809   4.210   5.435  13.463  1.6621  1.9309  0.9665
 7106TIP3    H242810   4.266   5.419  13.603  1.4773 -0.7035  0.7578
 7107TIP3   OH242811   5.763   1.905   2.319  0.2129 -0.2173 -0.5593
 7107TIP3    H142812   5.858   1.891   2.327 -0.1026 -3.1919 -1.3188
 7107TIP3    H242813   5.743   1.973   2.384  2.3390 -2.0393  2.1409
 7108TIP3   OH242814   3.168   0.577   2.218  0.7499 -0.0119 -0.1775
 7108TIP3    H142815   3.222   0.613   2.289 -1.5296  0.5717  1.2989
 7108TIP3    H242816   3.184   0.483   2.222 -0.3343 -0.1500  1.9988
 7109TIP3   OH242817   5.008   4.766   4.260  0.3402  0.5898  0.2243
 7109TIP3    H142818   5.064   4.803   4.192 -1.5227 -0.8827 -2.1716
 7109TIP3    H242819   5.065   4.761   4.338  3.3219 -0.2392 -1.9246
 7110TIP3   OH242820   3.197   6.795  16.048  0.4286 -0.3340 -0.2402
 7110TIP3    H142821   3.146   6.871  16.020  0.4056  0.4163  1.7530
 7110TIP3    H242822   3.137   6.743  16.101  1.0279 -0.6920  0.1008
 7111TIP3   OH242823   5.302   5.656   0.650  0.0634 -0.4146 -0.0650
 7111TIP3    H142824   5.357   5.584   0.623 -0.6638 -0.9279 -0.1919
 7111TIP3    H242825   5.312   5.660   0.745  0.1724 -0.6190 -0.0694
 7112TIP3   OH242826   0.871   6.232  13.843  0.1313  0.3040 -0.2002
 7112TIP3    H142827   0.964   6.215  13.858  0.2649  1.6137  0.4943
 7112TIP3    H242828   0.833   6.235  13.930 -0.8278 -1.5487 -0.5185
 7113TIP3   OH242829   4.784   6.395  12.249  0.0616  0.4438  0.2253
 7113TIP3    H142830   4.857   6.338  12.226  0.6997  0.9771  0.9101
 7113TIP3    H242831   4.719   6.336  12.287 -0.5775 -0.2813 -1.9302
 7114TIP3   OH242832   5.585   5.282   3.344  0.1108 -0.0557  0.8153
 7114TIP3    H142833   5.519   5.238   3.399  2.0308 -0.7044  2.6775
 7114TIP3    H242834   5.619   5.212   3.287  0.0211  0.0124  0.6789
 7115TIP3   OH242835   4.507   2.624  16.204 -0.1385  0.4968 -0.6410
 7115TIP3    H142836   4.568   2.625  16.130 -1.2387  0.8163 -1.5671
 7115TIP3    H242837   4.555   2.664  16.276  1.6375 -1.5742 -0.6121
 7116TIP3   OH242838   1.971   1.424  11.777 -0.0137 -0.3553  0.8902
 7116TIP3    H142839   1.974   1.496  11.840 -2.7842 -0.2065  0.8942
 7116TIP3    H242840   1.983   1.467  11.692 -0.8775  0.0309  0.9580
 7117TIP3   OH242841   0.873   4.614   1.463  0.1361 -0.1178  0.0807
 7117TIP3    H142842   0.792   4.665   1.468  0.4495  0.2736  1.2548
 7117TIP3    H242843   0.849   4.537   1.412 -0.8566  0.2296  0.0093
 7118TIP3   OH242844   3.969   0.206   4.878  0.4989 -0.0288 -0.0099
 7118TIP3    H142845   4.028   0.161   4.938  0.5888 -3.5023 -2.5405
 7118TIP3    H242846   4.019   0.214   4.797 -1.5583 -0.6578 -1.3698
 7119TIP3   OH242847   0.711   1.393   0.364 -0.2112 -0.0688  0.0485
 7119TIP3    H142848   0.695   1.379   0.457  0.7535  0.8393  0.3614
 7119TIP3    H242849   0.706   1.306   0.325  0.7095 -0.6302  1.1517
 7120TIP3   OH242850   3.757   5.666  13.185  0.4199 -0.0851  0.4302
 7120TIP3    H142851   3.837   5.709  13.155  0.4727  1.1798  2.2787
 7120TIP3    H242852   3.688   5.730  13.168  0.0900 -0.3831  0.6387
 7121TIP3   OH242853   0.998   0.800  16.528  0.6640  0.8444  0.0027
 7121TIP3    H142854   1.039   0.733  16.582 -0.8070 -0.0564  0.0054
 7121TIP3    H242855   1.031   0.883  16.564  1.6832  0.1650  0.6407
 7122TIP3   OH242856   3.804   5.200   5.775  0.2374 -0.6189 -0.1423
 7122TIP3    H142857   3.861   5.194   5.852 -1.7595 -0.3475  1.4177
 7122TIP3    H242858   3.857   5.245   5.709  1.1137  1.5431  1.9547
 7123TIP3   OH242859   3.484   3.379   2.575 -0.2589 -0.2832 -0.3382
 7123TIP3    H142860   3.425   3.389   2.649 -0.1196  0.8271 -0.3657
 7123TIP3    H242861   3.522   3.292   2.586  0.7607  0.3738  1.6325
 7124TIP3   OH242862   0.031   0.754  10.773  0.4106 -0.5360  0.0463
 7124TIP3    H142863  -0.030   0.733  10.701  1.9516 -0.1231 -1.4059
 7124TIP3    H242864   0.039   0.672  10.821  1.2778 -1.5432 -1.7357
 7125TIP3   OH242865   3.623   3.206   1.809  0.1288 -0.4128  0.0854
 7125TIP3    H142866   3.547   3.167   1.852  2.2795 -0.2838  4.2034
 7125TIP3    H242867   3.674   3.131   1.779 -0.2931 -0.5519 -0.2899
 7126TIP3   OH242868   0.627   1.689  16.733  0.1223 -0.0262 -0.3423
 7126TIP3    H142869   0.657   1.715  16.646 -0.8963 -1.0514 -1.0211
 7126TIP3    H242870   0.690   1.728  16.793  1.1951  0.1740 -1.5787
 7127TIP3   OH242871   3.446   6.043  12.515  0.0323 -0.6011 -0.1980
 7127TIP3    H142872   3.362   6.057  12.557 -1.0802 -1.2827 -2.1111
 7127TIP3    H242873   3.426   6.038  12.421  2.5345  1.9364 -0.9628
 7128TIP3   OH242874   0.899   4.806   2.942  0.1618 -0.5096  0.1967
 7128TIP3    H142875   0.933   4.831   3.028 -2.0155 -0.4498  1.0785
 7128TIP3    H242876   0.881   4.889   2.898 -0.1751 -0.5301  0.2924
 7129TIP3   OH242877   1.860   3.276  12.103 -0.3338 -0.0149 -0.5201
 7129TIP3    H142878   1.766   3.266  12.112 -0.3276 -0.0007 -0.4398
 7129TIP3    H242879   1.871   3.332  12.026 -0.4512  1.3476  0.4256
 7130TIP3   OH242880   1.927   0.390   1.794 -0.0230 -0.4077 -0.0362
 7130TIP3    H142881   1.891   0.429   1.714  0.8110  1.6831  0.5765
 7130TIP3    H242882   1.919   0.459   1.860  3.6526 -0.3887  0.5057
 7131TIP3   OH242883   6.040   4.339  13.986  0.0470 -0.3881 -0.0344
 7131TIP3    H142884   6.011   4.375  14.069  0.8746 -0.9808  0.5209
 7131TIP3    H242885   6.052   4.415  13.929 -0.1962  0.0399  0.4927
 7132TIP3   OH242886   2.687   4.184   4.823 -0.6373 -0.1440  0.0844
 7132TIP3    H142887   2.742   4.215   4.751  1.1407 -0.6501  1.1900
 7132TIP3    H242888   2.719   4.096   4.842 -1.9910 -0.5350  0.5892
 7133TIP3   OH242889   5.142   2.097   3.548  0.3640  0.0955  0.6736
 7133TIP3    H142890   5.066   2.153   3.536  1.0510  1.3306  1.9591
 7133TIP3    H242891   5.127   2.054   3.632  1.2742  0.6894  1.1537
 7134TIP3   OH242892   2.031   6.290  11.893  0.8405  0.1017  0.2392
 7134TIP3    H142893   2.119   6.278  11.928  0.9816  1.1785  0.2634
 7134TIP3    H242894   1.979   6.319  11.968  0.0377 -2.3018  0.6462
 7135TIP3   OH242895   3.333   0.641   5.547  0.0085 -0.3129 -0.1160
 7135TIP3    H142896   3.272   0.578   5.585  0.4927 -1.8457 -1.7811
 7135TIP3    H242897   3.378   0.679   5.622  0.1951 -2.5018  0.9268
 7136TIP3   OH242898   5.880   2.597   1.995  0.2276  0.5227  0.5195
 7136TIP3    H142899   5.792   2.633   2.007  0.3797  1.2953 -0.6547
 7136TIP3    H242900   5.934   2.649   2.055  0.0802  0.8054  0.4100
 7137TIP3   OH242901   0.792   6.384  17.064 -0.0130  0.1049 -0.4423
 7137TIP3    H142902   0.830   6.335  17.136 -0.0527  1.1584  0.3187
 7137TIP3    H242903   0.798   6.326  16.988  2.2619 -0.0901 -0.1461
 7138TIP3   OH242904   3.047   4.302   1.508  0.0652  0.0340 -0.1920
 7138TIP3    H142905   2.952   4.308   1.499 -0.0730 -0.0442  1.0121
 7138TIP3    H242906   3.080   4.297   1.419 -1.1524 -1.2740 -0.5871
 7139TIP3   OH242907   6.584   4.892  12.497  0.1003  0.4900 -0.7759
 7139TIP3    H142908   6.602   4.976  12.540 -2.4796  0.2055  0.9808
 7139TIP3    H242909   6.527   4.915  12.423 -1.7015  0.1882  0.4865
 7140TIP3   OH242910   6.703   3.786  16.325  0.1660 -0.0881  0.4568
 7140TIP3    H142911   6.746   3.705  16.299  1.2629  1.3770 -2.6055
 7140TIP3    H242912   6.649   3.809  16.249 -1.4875  1.1449  1.9595
 7141TIP3   OH242913   0.931   0.812   6.176 -0.0223 -0.3074  0.1864
 7141TIP3    H142914   0.988   0.749   6.133  1.0934  1.1992 -0.5913
 7141TIP3    H242915   0.954   0.807   6.268  2.7973  1.6396 -0.3311
 7142TIP3   OH242916   4.471   3.478   4.823 -0.1428 -0.6251 -0.0009
 7142TIP3    H142917   4.410   3.535   4.869 -0.4656 -0.9362 -0.0452
 7142TIP3    H242918   4.553   3.485   4.872  0.6079  1.9272 -1.4879
 7143TIP3   OH242919   1.531   1.999  12.280 -0.0689  0.6931  0.1288
 7143TIP3    H142920   1.451   2.040  12.248  1.2863  2.7716 -0.6878
 7143TIP3    H242921   1.563   1.947  12.206  0.1833  1.1521 -0.0869
 7144TIP3   OH242922   5.735   6.473   4.135  0.4403 -0.2562 -0.6791
 7144TIP3    H142923   5.716   6.395   4.186 -1.6560  0.6653  0.0284
 7144TIP3    H242924   5.654   6.491   4.088  0.3833  2.3097  0.3179
 7145TIP3   OH242925   4.079   5.506  12.017 -0.5124  0.3434  0.3410
 7145TIP3    H142926   3.996   5.549  11.996 -0.4688  0.2366 -0.0644
 7145TIP3    H242927   4.057   5.413  12.020 -0.3288  0.2856 -0.1454
 7146TIP3   OH242928   5.214   3.585   1.522 -0.1832  0.0109  0.1016
 7146TIP3    H142929   5.289   3.640   1.543  0.6198 -1.2357  0.5073
 7146TIP3    H242930   5.195   3.605   1.430  0.4479  0.5527  0.0857
 7147TIP3   OH242931   5.254   5.034  13.377 -0.1677  0.0291 -0.3884
 7147TIP3    H142932   5.202   5.093  13.432 -0.2610  0.3451 -0.8133
 7147TIP3    H242933   5.192   4.966  13.350 -0.0546 -0.2765  0.1167
 7148TIP3   OH242934   3.584   1.766  15.774  0.4754  0.2705 -0.9419
 7148TIP3    H142935   3.604   1.673  15.784  0.9287  0.4483 -0.1962
 7148TIP3    H242936   3.643   1.810  15.835 -2.5368  0.7910  1.6706
 7149TIP3   OH242937   2.983   2.868  12.541 -0.2326  0.3345 -0.0190
 7149TIP3    H142938   2.957   2.792  12.593 -0.0860  0.8619  0.8289
 7149TIP3    H242939   3.022   2.928  12.604 -0.9433  1.3915 -0.5693
 7150TIP3   OH242940   3.176   3.234   2.074  0.0677  0.0965 -0.1666
 7150TIP3    H142941   3.109   3.181   2.117  0.4161  1.1440  1.7173
 7150TIP3    H242942   3.199   3.301   2.139  0.1675  2.1089 -2.2200
 7151TIP3   OH242943   4.193   2.792   2.064  0.1885 -0.2864 -0.2354
 7151TIP3    H142944   4.166   2.701   2.073 -0.0566 -0.0369  1.7083
 7151TIP3    H242945   4.132   2.841   2.118  1.1114  0.9020 -0.2446
 7152TIP3   OH242946   5.571   1.430  16.707  0.1856  0.1125  0.5183
 7152TIP3    H142947   5.649   1.459  16.755 -0.2579 -0.3552  1.5604
 7152TIP3    H242948   5.503   1.424  16.775 -1.3422  2.6433 -0.7446
 7153TIP3   OH242949   0.025   3.090   2.739 -0.5134 -0.0813 -0.6900
 7153TIP3    H142950   0.099   3.150   2.725 -1.5372  1.4528  0.2311
 7153TIP3    H242951   0.066   3.008   2.765  0.8723  0.8402  0.1492
 7154TIP3   OH242952   5.035   2.394   3.319  0.2317  0.0510  0.3140
 7154TIP3    H142953   5.043   2.482   3.282  0.8995 -0.8581 -1.8492
 7154TIP3    H242954   5.082   2.339   3.256 -2.4853 -2.2116  0.1885
 7155TIP3   OH242955   3.189   3.212  16.996 -0.5159  0.1591 -0.3166
 7155TIP3    H142956   3.094   3.202  17.002 -0.5696  1.0248  0.3651
 7155TIP3    H242957   3.223   3.131  17.035 -0.9668  0.0018 -0.2332
 7156TIP3   OH242958   5.479   2.246  11.334  0.6662 -0.4720  0.0920
 7156TIP3    H142959   5.510   2.326  11.377 -0.2270 -0.5413  0.8962
 7156TIP3    H242960   5.557   2.193  11.322  0.6783 -1.3962  3.6633
 7157TIP3   OH242961   5.314   1.735  14.750  0.5717 -0.0721 -0.7151
 7157TIP3    H142962   5.246   1.695  14.805  0.0686  3.4125  1.3368
 7157TIP3    H242963   5.280   1.728  14.661 -1.5058 -0.2496  0.0659
 7158TIP3   OH242964   6.549   4.728  11.527  0.2143  0.3083 -0.3170
 7158TIP3    H142965   6.495   4.798  11.490  0.8763  0.1526 -1.6159
 7158TIP3    H242966   6.612   4.707  11.458  2.1897  0.7349  1.3175
 7159TIP3   OH242967   3.715   6.619  12.987 -0.4692 -0.0328 -0.3169
 7159TIP3    H142968   3.691   6.671  13.064  1.2911  0.0966  0.1749
 7159TIP3    H242969   3.795   6.573  13.014  0.0331 -0.1691 -1.9864
 7160TIP3   OH242970   2.567   5.051   5.392  0.2839  0.5349 -0.1511
 7160TIP3    H142971   2.531   5.054   5.304  0.2689 -1.0193 -0.2153
 7160TIP3    H242972   2.592   4.959   5.405 -1.6056  0.2777  2.1992
 7161TIP3   OH242973   3.517   3.278  12.800 -0.0355  0.1921 -0.0751
 7161TIP3    H142974   3.463   3.339  12.850 -0.6087 -0.3553 -0.0173
 7161TIP3    H242975   3.529   3.203  12.858 -0.1648 -0.1733 -0.5112
 7162TIP3   OH242976   5.168   6.335  13.096 -0.2375 -0.0546  0.1307
 7162TIP3    H142977   5.234   6.290  13.042 -0.5054 -0.6799  0.3223
 7162TIP3    H242978   5.215   6.360  13.176  0.2279  1.1046 -0.4939
 7163TIP3   OH242979   5.241   4.817  11.819 -0.4774  0.0393  0.1060
 7163TIP3    H142980   5.254   4.747  11.755  1.1240  2.2253 -2.0633
 7163TIP3    H242981   5.152   4.849  11.804 -1.6267 -2.2214  1.8744
 7164TIP3   OH242982   1.097   1.552  14.204  0.2466 -0.0017 -0.2559
 7164TIP3    H142983   1.155   1.580  14.275 -1.0125  1.3938  0.2520
 7164TIP3    H242984   1.034   1.623  14.196 -2.0041 -1.9525 -0.1373
 7165TIP3   OH242985   1.224   3.552  16.994 -0.1541  0.2270  0.3618
 7165TIP3    H142986   1.274   3.606  16.932 -2.2230 -0.4912 -2.0240
 7165TIP3    H242987   1.144   3.603  17.010 -1.0212 -1.0103  0.0012
 7166TIP3   OH242988   3.668   3.035   2.522 -0.3100  0.2953  0.0651
 7166TIP3    H142989   3.719   3.114   2.505 -0.0090  0.4308  1.5712
 7166TIP3    H242990   3.589   3.067   2.565  1.1752 -0.4822  3.4688
 7167TIP3   OH242991   0.862   5.910   4.776  0.0842  0.6981 -0.7779
 7167TIP3    H142992   0.930   5.847   4.799  0.3015  1.4689  0.7354
 7167TIP3    H242993   0.794   5.898   4.843  0.3645  2.4371 -0.1585
 7168TIP3   OH242994   4.312   2.627  12.189  0.4242  0.2199  0.0990
 7168TIP3    H142995   4.223   2.618  12.153 -0.3750  1.4942  1.6757
 7168TIP3    H242996   4.313   2.568  12.265  0.7364  0.6764  0.4458
 7169TIP3   OH242997   6.485   2.904   5.048  0.1704  0.1034 -0.3246
 7169TIP3    H142998   6.518   2.968   5.111 -0.9309  0.7764 -0.4253
 7169TIP3    H242999   6.480   2.822   5.097 -2.3340  0.9915  0.9647
 7170TIP3   OH243000   2.886   3.153  13.846 -0.2153 -0.4460 -0.3664
 7170TIP3    H143001   2.868   3.219  13.913  1.7312  0.9626 -1.2049
 7170TIP3    H243002   2.905   3.203  13.767 -1.1631 -2.0741 -1.6415
 7171TIP3   OH243003   1.572   0.346   0.765  0.0769 -0.2042  0.4759
 7171TIP3    H143004   1.629   0.414   0.731 -1.2743  0.0644 -1.3257
 7171TIP3    H243005   1.498   0.393   0.802  0.1249 -0.6163  1.0969
 7172TIP3   OH243006   0.112   0.377   5.458  0.0871 -0.5165 -0.3068
 7172TIP3    H143007   0.154   0.327   5.528 -0.8098  0.6675  1.1030
 7172TIP3    H243008   0.073   0.452   5.503  0.4153  0.8192 -2.2366
 7173TIP3   OH243009   3.744   5.410  15.420 -0.1026 -0.3452  0.2762
 7173TIP3    H143010   3.711   5.333  15.373  0.2947  0.0826 -0.7370
 7173TIP3    H243011   3.723   5.483  15.362  0.3658  0.2017  0.7938
 7174TIP3   OH243012   0.765   2.530   3.763 -0.4971  0.2746 -0.1844
 7174TIP3    H143013   0.691   2.569   3.718 -0.4563 -0.0420 -0.5275
 7174TIP3    H243014   0.748   2.436   3.762 -1.0308  0.3315  1.4167
 7175TIP3   OH243015   5.198   2.988   0.186 -0.2592  1.1360  0.1542
 7175TIP3    H143016   5.292   2.974   0.195 -0.7726 -2.1293  1.2067
 7175TIP3    H243017   5.170   3.015   0.274 -0.9946 -2.9520  1.2965
 7176TIP3   OH243018   3.977   1.959   5.084 -0.2855 -0.7016 -0.2837
 7176TIP3    H143019   3.948   1.929   4.998  0.3552 -0.0771 -0.7201
 7176TIP3    H243020   3.969   2.054   5.079 -1.2149 -0.7159  0.6968
 7177TIP3   OH243021   1.282   0.085   5.772 -0.3563  0.2241  0.2288
 7177TIP3    H143022   1.335   0.006   5.780 -1.0791 -0.2739  0.1025
 7177TIP3    H243023   1.209   0.072   5.833  0.3187  1.4426  1.3074
 7178TIP3   OH243024   5.463   6.170  12.982 -0.4226 -0.1228  0.4488
 7178TIP3    H143025   5.527   6.233  13.015 -1.1814 -0.6409  3.0815
 7178TIP3    H243026   5.515   6.102  12.940  0.7020  0.0507  1.5198
 7179TIP3   OH243027   6.298   5.270   4.156 -0.3024 -0.5236 -0.4412
 7179TIP3    H143028   6.238   5.196   4.151 -0.0873 -0.7402  0.1871
 7179TIP3    H243029   6.303   5.302   4.066  0.1200 -1.6778 -0.8338
 7180TIP3   OH243030   6.397   0.039   5.031 -0.5358 -0.0069 -0.2046
 7180TIP3    H143031   6.445   0.108   5.075 -1.1199  1.1097 -1.3045
 7180TIP3    H243032   6.463  -0.029   5.013 -0.6034 -1.3022  3.9184
 7181TIP3   OH243033   1.225   4.249   1.487  0.2191  0.1543  0.0201
 7181TIP3    H143034   1.280   4.300   1.547  0.5160  0.6518 -0.6681
 7181TIP3    H243035   1.136   4.269   1.513  0.2794  2.6980 -1.5729
 7182TIP3   OH243036   2.129   4.586  11.295 -0.0910  0.2541  0.0566
 7182TIP3    H143037   2.072   4.578  11.219  0.9325  0.0686 -0.7119
 7182TIP3    H243038   2.070   4.601  11.368 -0.9627  3.1046 -1.1562
 7183TIP3   OH243039   4.509   6.349   5.009  0.6851  0.4228 -0.1985
 7183TIP3    H143040   4.519   6.255   5.026  0.1121  0.8812  2.9354
 7183TIP3    H243041   4.573   6.367   4.940  2.8505 -1.7529  1.1442
 7184TIP3   OH243042   2.313   0.865  15.533 -0.5136  0.1214 -0.0393
 7184TIP3    H143043   2.224   0.898  15.524  0.1995  1.9503 -0.6783
 7184TIP3    H243044   2.361   0.937  15.575  0.9964 -0.2483 -1.0745
 7185TIP3   OH243045   0.482   1.913   6.558  0.0669  0.1271  0.7309
 7185TIP3    H143046   0.553   1.962   6.516  0.9815  0.4084  2.5365
 7185TIP3    H243047   0.474   1.833   6.506  0.3747  0.9693 -0.6546
 7186TIP3   OH243048   1.720   2.511  14.301  0.3138 -0.3807 -0.2655
 7186TIP3    H143049   1.633   2.479  14.277 -0.4901  1.5709 -0.0261
 7186TIP3    H243050   1.728   2.489  14.394  0.0354 -0.4661 -0.2601
 7187TIP3   OH243051   5.265   3.861   1.829 -0.3156  0.3571  0.0218
 7187TIP3    H143052   5.185   3.809   1.834  0.4774 -0.8458  0.4325
 7187TIP3    H243053   5.315   3.822   1.758 -0.1468  1.1995 -0.3301
 7188TIP3   OH243054   6.202   5.229   1.650  0.4152  0.5283 -0.6330
 7188TIP3    H143055   6.192   5.206   1.557  2.1818  0.8192 -0.9086
 7188TIP3    H243056   6.184   5.323   1.653 -0.3851  0.3753 -0.5545
 7189TIP3   OH243057   0.494   1.156   3.617 -0.1852 -0.0440 -0.2511
 7189TIP3    H143058   0.545   1.154   3.697 -0.5231 -0.9587 -0.0434
 7189TIP3    H243059   0.516   1.239   3.575 -2.5599  2.0373  2.4476
 7190TIP3   OH243060   5.199   2.448  15.584  0.3054 -0.2108 -0.1282
 7190TIP3    H143061   5.104   2.460  15.587  0.6375  2.8100 -0.1740
 7190TIP3    H243062   5.212   2.354  15.601 -2.5728 -0.2754  2.1191
 7191TIP3   OH243063   3.235   4.101   5.883  0.3866 -0.0716  0.3441
 7191TIP3    H143064   3.281   4.140   5.957 -0.8056  0.1178  0.9856
 7191TIP3    H243065   3.149   4.077   5.918 -1.2596  2.6307 -1.6876
 7192TIP3   OH243066   5.185   5.996  14.884 -0.1844  0.3323 -0.1452
 7192TIP3    H143067   5.136   5.920  14.851  0.3823  0.2398 -0.7829
 7192TIP3    H243068   5.215   5.969  14.971 -0.7873  0.1796  0.0169
 7193TIP3   OH243069   0.001   1.492   3.263 -0.6678  0.7571  0.0099
 7193TIP3    H143070  -0.043   1.415   3.229 -0.5012  0.7602 -0.2160
 7193TIP3    H243071   0.067   1.458   3.323  0.6056  0.6298 -1.4512
 7194TIP3   OH243072   3.516   3.086   0.053  0.1659 -0.0298  0.3986
 7194TIP3    H143073   3.576   3.110   0.124  0.2738  1.1467 -0.0807
 7194TIP3    H243074   3.560   3.114  -0.026 -0.2306 -0.7914 -0.0999
 7195TIP3   OH243075   0.911   3.550   5.154  0.4010  0.1392 -0.4584
 7195TIP3    H143076   0.844   3.606   5.193  0.1008 -0.7768  0.3808
 7195TIP3    H243077   0.971   3.530   5.225  1.8615  1.3632 -1.3326
 7196TIP3   OH243078   1.432   0.807   2.967 -0.3440  0.0861 -0.3322
 7196TIP3    H143079   1.362   0.799   2.902 -0.3245 -1.5581 -0.1836
 7196TIP3    H243080   1.388   0.794   3.051 -0.0516  0.1991 -0.1604
 7197TIP3   OH243081   0.384   0.864  13.368  0.3867  0.1277  0.4547
 7197TIP3    H143082   0.375   0.781  13.321  3.4647 -0.6971  1.2221
 7197TIP3    H243083   0.298   0.878  13.408 -1.0851 -1.1167 -2.1646
 7198TIP3   OH243084   3.976   5.689  15.646 -0.4733  0.2388  0.2851
 7198TIP3    H143085   3.905   5.711  15.706 -0.7151  0.3879 -0.0546
 7198TIP3    H243086   3.953   5.733  15.564  0.0652  0.3798  0.2080
 7199TIP3   OH243087   2.182   5.017   1.196 -0.0598 -0.1031 -0.0968
 7199TIP3    H143088   2.106   4.977   1.154  0.2757 -0.1500 -0.6755
 7199TIP3    H243089   2.208   4.954   1.263  0.4162 -0.8299 -0.9491
 7200TIP3   OH243090   6.203   4.442   1.364  0.0878 -0.4913 -0.6342
 7200TIP3    H143091   6.235   4.458   1.452 -1.7030  3.5199 -0.6212
 7200TIP3    H243092   6.281   4.444   1.309  1.2006 -2.9024  0.7423
 7201TIP3   OH243093   2.115   0.460   4.920 -0.1404 -0.2224 -0.4550
 7201TIP3    H143094   2.191   0.501   4.879 -0.6367 -0.0288 -1.1931
 7201TIP3    H243095   2.041   0.486   4.865 -0.3161 -3.0122 -1.6370
 7202TIP3   OH243096   5.736   4.276  14.186 -0.3426  0.8321 -0.7546
 7202TIP3    H143097   5.742   4.181  14.174 -0.1842  0.9286 -1.4403
 7202TIP3    H243098   5.647   4.291  14.219 -0.0668  0.3555  0.2326
 7203TIP3   OH243099   0.395   6.413  13.244 -0.2769  0.3442  0.4087
 7203TIP3    H143100   0.350   6.497  13.244 -1.1879 -0.0943  2.4270
 7203TIP3    H243101   0.432   6.405  13.332 -1.8709 -2.1579  0.9412
 7204TIP3   OH243102   5.201   6.767   4.343 -0.1503  0.4124  0.5671
 7204TIP3    H143103   5.221   6.770   4.436  0.9401 -0.9694  0.3924
 7204TIP3    H243104   5.218   6.856   4.312  1.6971  0.3129  1.2482
 7205TIP3   OH243105   3.134   2.183   1.004  0.4724  0.5487  0.2487
 7205TIP3    H143106   3.051   2.229   1.013 -1.4585 -2.7904  0.2025
 7205TIP3    H243107   3.145   2.170   0.910  0.0390 -0.6767  0.3488
 7206TIP3   OH243108   5.516   4.312   1.341 -0.3426  0.0550  0.2308
 7206TIP3    H143109   5.433   4.283   1.305  0.2642  0.6297 -1.6827
 7206TIP3    H243110   5.500   4.401   1.372 -0.6937 -0.1900  0.7449
 7207TIP3   OH243111   3.096   4.187  16.208  0.8569 -0.1889 -0.5357
 7207TIP3    H143112   3.167   4.218  16.151  0.6416  2.4737  0.5824
 7207TIP3    H243113   3.064   4.266  16.252 -0.7780 -1.8028  1.2689
 7208TIP3   OH243114   3.503   4.165  15.314 -0.2296 -0.9709 -0.5153
 7208TIP3    H143115   3.557   4.218  15.373 -0.4132 -0.8915 -0.4188
 7208TIP3    H243116   3.475   4.091  15.367 -0.0877 -1.0920 -0.6115
 7209TIP3   OH243117   6.375   1.510  15.501 -0.2221 -0.0477  0.1290
 7209TIP3    H143118   6.332   1.595  15.502 -0.6942 -0.2913  0.3194
 7209TIP3    H243119   6.306   1.447  15.519 -0.1864 -0.6113 -1.6241
 7210TIP3   OH243120   4.708   5.922  11.996 -0.1480 -0.2571  0.3803
 7210TIP3    H143121   4.662   5.851  11.951 -1.6039 -0.4954  2.2022
 7210TIP3    H243122   4.671   6.002  11.959 -2.2474 -0.4462  2.0147
 7211TIP3   OH243123   3.277   1.023  14.120  0.4186  0.5921 -0.5553
 7211TIP3    H143124   3.237   0.950  14.073  0.8516  0.4093 -0.6401
 7211TIP3    H243125   3.353   1.047  14.066  2.1169 -0.9425  1.0895
 7212TIP3   OH243126   1.423   1.416  17.227 -1.3462 -0.1808  0.3626
 7212TIP3    H143127   1.494   1.351  17.220 -0.2577  0.9809  0.4018
 7212TIP3    H243128   1.424   1.442  17.319 -1.2018  0.5184  0.1678
 7213TIP3   OH243129   3.689   5.994  14.381 -0.4211  0.3420  0.6691
 7213TIP3    H143130   3.697   5.899  14.389  1.3294  0.6061  2.5186
 7213TIP3    H243131   3.615   6.017  14.437 -1.0087  0.0577  0.0183
 7214TIP3   OH243132   5.916   1.565  14.668 -0.2548 -0.4817  0.2545
 7214TIP3    H143133   5.895   1.480  14.629 -0.4759  0.0010 -0.6850
 7214TIP3    H243134   5.833   1.612  14.669 -0.2168 -0.4287  1.1557
 7215TIP3   OH243135   3.972   0.650  14.184 -0.2832  0.8020 -0.1591
 7215TIP3    H143136   3.962   0.580  14.247 -0.8239  0.8833 -0.1597
 7215TIP3    H243137   4.023   0.611  14.113 -1.2718  0.1854 -0.5276
 7216TIP3   OH243138   4.506   0.909   5.485  0.2269  0.2061  0.1818
 7216TIP3    H143139   4.504   0.926   5.391 -1.2363 -1.1330 -0.0555
 7216TIP3    H243140   4.599   0.904   5.506  0.5915  1.8392 -0.9351
 7217TIP3   OH243141   6.627   6.615  15.737 -0.1055  0.1693 -0.4790
 7217TIP3    H143142   6.624   6.574  15.824 -0.0948  0.3160 -0.4098
 7217TIP3    H243143   6.536   6.636  15.718  0.1114  1.9318  0.3556
 7218TIP3   OH243144   2.920   4.680   1.440  0.4926 -0.6521  0.0604
 7218TIP3    H143145   3.005   4.679   1.484 -0.1747 -2.7897  1.3738
 7218TIP3    H243146   2.872   4.605   1.477 -1.4659 -0.3008 -1.6312
 7219TIP3   OH243147   0.261   5.939   5.279 -0.1306  0.2987 -0.7939
 7219TIP3    H143148   0.346   5.908   5.246  0.4836  0.2730  0.7642
 7219TIP3    H243149   0.267   6.035   5.274  0.3897  0.3233  0.2869
 7220TIP3   OH243150   0.893   4.695  12.095  0.1456  0.7418 -0.4877
 7220TIP3    H143151   0.870   4.742  12.175  2.8953 -0.6310  1.1760
 7220TIP3    H243152   0.815   4.643  12.075 -0.3480  0.6313  1.6377
 7221TIP3   OH243153   2.347   3.470  16.224 -0.7600  0.7963 -0.1016
 7221TIP3    H143154   2.352   3.538  16.291  0.4456  0.6002  0.0149
 7221TIP3    H243155   2.398   3.504  16.151  1.6319 -0.8667  0.7487
 7222TIP3   OH243156   5.251   4.119   5.621 -0.0341  0.2802  0.1521
 7222TIP3    H143157   5.235   4.176   5.696  0.2186  2.2696 -1.2789
 7222TIP3    H243158   5.187   4.049   5.631 -0.7808  1.1332  1.5993
 7223TIP3   OH243159   1.104   6.093   4.397  0.3659  0.0424 -0.1589
 7223TIP3    H143160   1.172   6.122   4.458  0.8903 -0.7841 -0.3540
 7223TIP3    H243161   1.138   6.116   4.310 -0.5618  1.5962 -0.1294
 7224TIP3   OH243162   6.188   4.375   0.522 -0.2982 -0.2510 -0.4877
 7224TIP3    H143163   6.215   4.310   0.458  0.3863  0.9953 -1.4784
 7224TIP3    H243164   6.153   4.323   0.595  1.7995 -1.7792 -0.5166
 7225TIP3   OH243165   0.822   1.494   0.045 -0.0895 -0.2070  0.2109
 7225TIP3    H143166   0.850   1.485   0.136 -1.4594  1.8578  0.8799
 7225TIP3    H243167   0.885   1.554   0.006  0.1813 -0.6684 -0.0710
 7226TIP3   OH243168   2.339   4.929   1.435 -0.2314  0.3269  1.2321
 7226TIP3    H143169   2.300   4.986   1.502  0.3119  0.9102  1.0661
 7226TIP3    H243170   2.315   4.841   1.462 -0.4616  0.5893  1.9167
 7227TIP3   OH243171   1.372   0.824   0.091  0.4126  0.0356 -0.0806
 7227TIP3    H143172   1.332   0.911   0.086  0.5646  0.2266  1.6473
 7227TIP3    H243173   1.462   0.838   0.059 -0.0182  0.1855 -1.2553
 7228TIP3   OH243174   6.425   2.696  12.795  0.0028 -0.4616 -0.1993
 7228TIP3    H143175   6.438   2.789  12.811  1.7401 -0.9300  1.2984
 7228TIP3    H243176   6.438   2.686  12.701  0.8517  0.6550 -0.2075
 7229TIP3   OH243177   1.178   6.310   4.072 -0.4378 -0.5523  0.8005
 7229TIP3    H143178   1.216   6.224   4.087 -1.6313 -1.3326 -0.5633
 7229TIP3    H243179   1.088   6.293   4.044 -0.2167  1.0511 -1.0662
 7230TIP3   OH243180   2.011   4.345   2.486 -0.0576 -0.1878  0.2168
 7230TIP3    H143181   2.102   4.321   2.503  0.0219 -0.6299 -0.7755
 7230TIP3    H243182   1.966   4.261   2.472 -0.5599  0.0436  0.4204
 7231TIP3   OH243183   0.614   5.642  15.047 -0.0745 -0.1289 -0.0499
 7231TIP3    H143184   0.678   5.591  14.997 -1.2063 -1.2616 -0.3943
 7231TIP3    H243185   0.664   5.714  15.084  1.6450 -1.6512  0.6855
 7232TIP3   OH243186   4.452   1.835  11.462  0.0665 -0.0315 -0.1644
 7232TIP3    H143187   4.476   1.922  11.492  0.9686 -0.9794  1.8945
 7232TIP3    H243188   4.360   1.844  11.436 -0.7942  0.8154  2.9648
 7233TIP3   OH243189   6.532   3.518  14.264  0.6298  0.3421  0.0184
 7233TIP3    H143190   6.615   3.483  14.231  0.1242  0.7985 -1.8004
 7233TIP3    H243191   6.488   3.444  14.304  0.6978 -0.5429 -1.5071
 7234TIP3   OH243192   6.677   5.484   2.320 -0.2998 -0.0461 -0.1568
 7234TIP3    H143193   6.723   5.523   2.395  0.1689 -1.1930  0.1566
 7234TIP3    H243194   6.745   5.434   2.274 -0.5924  0.6224 -1.3364
 7235TIP3   OH243195   6.245   6.817   5.525  0.3220  0.1361 -0.1769
 7235TIP3    H143196   6.230   6.733   5.570 -1.9949 -0.1350 -1.3832
 7235TIP3    H243197   6.294   6.794   5.447 -2.3335 -0.4726 -1.7269
 7236TIP3   OH243198   2.837   0.152  11.954 -0.1119 -0.1972 -0.0983
 7236TIP3    H143199   2.754   0.159  11.908 -0.4687  0.9577  0.7210
 7236TIP3    H243200   2.821   0.085  12.022 -0.2587 -0.2370 -0.1720
 7237TIP3   OH243201   4.643   0.323  13.280  0.5443  0.2292 -0.1407
 7237TIP3    H143202   4.592   0.385  13.332  2.0720  0.8036  0.6962
 7237TIP3    H243203   4.579   0.283  13.221 -1.3262 -0.7571  2.4636
 7238TIP3   OH243204   3.636   0.790  13.957 -0.1907 -0.5698 -0.3764
 7238TIP3    H143205   3.600   0.823  13.875 -0.5389 -0.7768 -0.3086
 7238TIP3    H243206   3.690   0.715  13.933 -1.5374 -1.5943 -0.2665
 7239TIP3   OH243207   6.618   3.098   1.108 -0.2138 -0.3290 -0.4206
 7239TIP3    H143208   6.531   3.066   1.133 -0.3579  0.3242 -0.0804
 7239TIP3    H243209   6.653   3.139   1.187  1.0760 -2.0067 -0.1008
 7240TIP3   OH243210   0.648   1.763   6.322  0.2349  0.6304 -0.1700
 7240TIP3    H143211   0.675   1.828   6.387  0.6542 -0.1931  0.4968
 7240TIP3    H243212   0.724   1.753   6.264 -0.0573  1.1971 -0.6544
 7241TIP3   OH243213   2.750   2.967  14.028  0.0696 -0.4977  0.6501
 7241TIP3    H143214   2.837   2.960  13.988 -0.9558  0.4727 -1.8174
 7241TIP3    H243215   2.723   3.057  14.013 -0.8303 -0.3924  2.6295
 7242TIP3   OH243216   5.474   2.211  12.820 -0.0623  0.0916  0.1130
 7242TIP3    H143217   5.450   2.239  12.731 -0.1937  0.9936  0.4238
 7242TIP3    H243218   5.393   2.175  12.856 -0.0976  0.0549 -0.0031
 7243TIP3   OH243219   2.643   2.925   3.315  0.3161 -0.7838 -0.0803
 7243TIP3    H143220   2.693   2.852   3.279  1.5748 -0.2234  0.4870
 7243TIP3    H243221   2.675   3.002   3.268  0.2924 -0.3589  0.5958
 7244TIP3   OH243222   5.209   4.481  17.215  0.4474  0.2341  0.1541
 7244TIP3    H143223   5.214   4.447  17.304  1.6965 -0.1922 -0.0716
 7244TIP3    H243224   5.266   4.424  17.164 -0.5868  0.2214 -1.0111
 7245TIP3   OH243225   2.481   5.863   4.952 -0.7494  0.1870 -0.1486
 7245TIP3    H143226   2.551   5.869   5.017  0.6751 -0.7185 -1.5936
 7245TIP3    H243227   2.400   5.869   5.004  0.3746  0.1570  1.6356
 7246TIP3   OH243228   3.835   1.319  11.563 -0.4511  0.4515  0.2027
 7246TIP3    H143229   3.881   1.400  11.586  0.8157 -0.0675 -0.4634
 7246TIP3    H243230   3.797   1.288  11.645 -1.1034  1.8123  0.4359
 7247TIP3   OH243231   4.434   6.245   4.673  0.0474  0.2330  0.1280
 7247TIP3    H143232   4.512   6.189   4.668  0.8398  1.2836  0.4480
 7247TIP3    H243233   4.434   6.277   4.764 -2.6528 -2.4101  1.1573
 7248TIP3   OH243234   5.440   6.329  10.916 -0.4921  0.1053 -0.7431
 7248TIP3    H143235   5.466   6.421  10.914  3.0088 -0.7421  0.7468
 7248TIP3    H243236   5.462   6.297  10.829 -0.4060  0.3856 -0.8269
 7249TIP3   OH243237   4.437   4.102   5.308 -0.0305 -0.1817  0.2491
 7249TIP3    H143238   4.491   4.076   5.383  0.5741  1.8377  0.5607
 7249TIP3    H243239   4.405   4.189   5.332  1.7728  1.3738 -2.6563
 7250TIP3   OH243240   1.346   2.811   4.799 -0.2235 -0.5853  0.1447
 7250TIP3    H143241   1.423   2.866   4.783 -0.7213  0.3580  0.9739
 7250TIP3    H243242   1.378   2.742   4.857  0.6515 -1.7928 -1.7325
 7251TIP3   OH243243   0.004   0.581  11.512  0.2116 -0.3942 -0.1002
 7251TIP3    H143244   0.063   0.636  11.564 -0.2087  1.0807 -1.1591
 7251TIP3    H243245   0.061   0.541  11.447  0.0663  1.0507 -1.1393
 7252TIP3   OH243246   4.113   6.526  10.566 -0.1860  0.2413 -0.0079
 7252TIP3    H143247   4.100   6.439  10.603  0.5581 -0.5589 -1.5648
 7252TIP3    H243248   4.202   6.551  10.593 -0.2896  0.3856  0.1968
 7253TIP3   OH243249   1.689   0.955   1.038  0.2045  0.2179 -0.6623
 7253TIP3    H143250   1.681   0.871   1.083  1.4003 -0.3713 -1.5236
 7253TIP3    H243251   1.741   1.009   1.098 -3.4072  1.5214  1.4507
 7254TIP3   OH243252   3.780   0.792  13.585  0.2980 -0.0188  0.1448
 7254TIP3    H143253   3.697   0.800  13.632  1.8518  0.1201  3.0421
 7254TIP3    H243254   3.837   0.858  13.624  2.6175 -1.9582  0.2373
 7255TIP3   OH243255   4.588   2.418  14.802 -0.2843  0.4652  0.2198
 7255TIP3    H143256   4.626   2.425  14.715  1.1403 -0.2240  0.7594
 7255TIP3    H243257   4.656   2.375  14.854 -1.8585 -0.9376  1.1961
 7256TIP3   OH243258   0.529   2.719   1.277  0.1635 -0.3528  0.0363
 7256TIP3    H143259   0.555   2.806   1.309  0.7688 -1.1464  1.7547
 7256TIP3    H243260   0.464   2.737   1.209  0.5116  1.4606  0.1604
 7257TIP3   OH243261   2.412   4.580  12.901  0.0207 -0.5702  0.0875
 7257TIP3    H143262   2.324   4.568  12.867 -0.4929 -0.7304  1.4460
 7257TIP3    H243263   2.457   4.633  12.835 -0.8088 -1.2670 -1.0464
 7258TIP3   OH243264   0.266   2.723   1.893 -0.3928  0.1763  0.3455
 7258TIP3    H143265   0.185   2.720   1.842 -0.7860  0.9971  0.9082
 7258TIP3    H243266   0.332   2.755   1.832 -0.6443  0.1727  0.0739
 7259TIP3   OH243267   1.363   2.627   5.618 -0.2100 -0.2411 -0.0509
 7259TIP3    H143268   1.291   2.568   5.597  0.5986 -1.4357  0.5421
 7259TIP3    H243269   1.387   2.666   5.533 -0.1985 -1.3636 -0.5663
 7260TIP3   OH243270   4.688   3.370  11.735  0.1879  0.5214  0.2201
 7260TIP3    H143271   4.613   3.411  11.693 -0.6124 -0.7973  0.3233
 7260TIP3    H243272   4.650   3.311  11.800  1.2812 -0.5215 -0.0619
 7261TIP3   OH243273   2.272   5.603  15.018 -0.1964  0.0535 -0.6158
 7261TIP3    H143274   2.320   5.670  15.066 -1.1961  1.0077 -0.9240
 7261TIP3    H243275   2.191   5.646  14.991 -2.0778 -2.0417  1.4396
 7262TIP3   OH243276   6.518   6.425   2.601  0.1851  0.1403 -0.1285
 7262TIP3    H143277   6.498   6.446   2.510 -0.9356 -1.3599 -0.2404
 7262TIP3    H243278   6.611   6.402   2.600  0.5693  1.6822 -0.6035
 7263TIP3   OH243279   3.872   5.729   1.089 -0.0176  0.2717 -0.5521
 7263TIP3    H143280   3.830   5.647   1.115 -0.9575  0.4807 -1.3621
 7263TIP3    H243281   3.920   5.707   1.009 -0.9019  0.6757 -1.2061
 7264TIP3   OH243282   0.547   3.472  14.543  0.4274  0.7076 -0.5923
 7264TIP3    H143283   0.634   3.509  14.528  0.8466 -0.3679 -0.8350
 7264TIP3    H243284   0.557   3.379  14.527 -1.0747  0.7494 -1.8599
 7265TIP3   OH243285   1.952   4.699   4.442  0.2564 -0.2869  0.3382
 7265TIP3    H143286   1.928   4.651   4.363  0.5694  0.2583 -0.0946
 7265TIP3    H243287   2.046   4.682   4.453 -0.0499 -1.3716  1.2974
 7266TIP3   OH243288   2.755   5.393  12.599  0.8579 -0.0611  0.0727
 7266TIP3    H143289   2.695   5.339  12.650  1.0817 -1.6787 -1.3545
 7266TIP3    H243290   2.753   5.478  12.643 -2.6589 -0.0045 -0.0403
 7267TIP3   OH243291   2.545   5.280  14.974 -0.3883  0.3616 -0.6537
 7267TIP3    H143292   2.536   5.366  14.932  1.7866 -0.5374 -3.0808
 7267TIP3    H243293   2.595   5.296  15.053  0.3482  1.2730 -1.3034
 7268TIP3   OH243294   1.293   1.659   3.203 -0.4985  0.1064 -0.2141
 7268TIP3    H143295   1.376   1.648   3.156 -0.4850 -0.4139 -0.0711
 7268TIP3    H243296   1.298   1.747   3.239 -1.0446  0.9967 -2.2360
 7269TIP3   OH243297   2.377   2.811  15.119  0.5589 -0.5455  0.7533
 7269TIP3    H143298   2.359   2.762  15.200 -0.8782 -1.3466 -0.0345
 7269TIP3    H243299   2.320   2.888  15.125 -1.8324 -2.1046 -0.8376
 7270TIP3   OH243300   3.652   3.876   0.809  0.0847 -1.5253 -0.2103
 7270TIP3    H143301   3.719   3.837   0.865 -1.1588 -1.5704  1.2769
 7270TIP3    H243302   3.637   3.962   0.847 -1.0213 -1.6905 -0.2676
 7271TIP3   OH243303   6.122   1.096   1.317 -0.0161 -0.1090 -0.0678
 7271TIP3    H143304   6.120   1.138   1.231 -0.4495  0.9656  0.4511
 7271TIP3    H243305   6.126   1.002   1.299  0.5475  0.1353 -1.2591
 7272TIP3   OH243306   3.307   3.877   5.634  0.3366  0.1037  0.0542
 7272TIP3    H143307   3.264   3.803   5.676  2.9488  0.2497  3.2393
 7272TIP3    H243308   3.270   3.954   5.677 -0.8952  0.5650 -1.7995
 7273TIP3   OH243309   2.752   5.491   0.409 -0.1991 -0.2211  0.6400
 7273TIP3    H143310   2.731   5.568   0.356  0.8726 -0.5349 -0.2582
 7273TIP3    H243311   2.831   5.455   0.368 -1.1200 -2.2232  0.6006
 7274TIP3   OH243312   0.708   5.296   5.881 -0.8019 -0.5937 -0.6256
 7274TIP3    H143313   0.786   5.250   5.851 -0.7801 -0.1858 -1.1977
 7274TIP3    H243314   0.738   5.351   5.953 -0.7103 -0.9935 -0.3509
 7275TIP3   OH243315   1.829   2.830   2.307 -0.3919 -0.4548 -0.5602
 7275TIP3    H143316   1.800   2.754   2.258  0.4710 -1.6286  0.7277
 7275TIP3    H243317   1.856   2.796   2.392  0.1199  1.2586 -0.0079
 7276TIP3   OH243318   5.055   1.679  16.558 -0.2480 -0.1129  0.0206
 7276TIP3    H143319   5.136   1.677  16.610  0.4286  0.0131 -1.0130
 7276TIP3    H243320   4.992   1.724  16.614  0.3469 -0.3656  0.9095
 7277TIP3   OH243321   0.274   2.346   0.904 -0.3269 -0.3277 -0.0084
 7277TIP3    H143322   0.297   2.352   0.812  1.2886  1.6519  0.4826
 7277TIP3    H243323   0.357   2.329   0.949 -1.3216 -2.8195  0.9692
 7278TIP3   OH243324   3.793   0.881  16.090  0.6896 -0.9116  0.1763
 7278TIP3    H143325   3.858   0.948  16.109 -0.7728  1.4618 -2.7548
 7278TIP3    H243326   3.796   0.871  15.995 -0.8288 -3.2667  0.3370
 7279TIP3   OH243327   5.314   5.647  11.101 -0.0395 -0.5002  0.1192
 7279TIP3    H143328   5.239   5.599  11.135 -0.3144  0.9963  1.7232
 7279TIP3    H243329   5.283   5.689  11.021 -0.1461 -1.9473 -0.6174
 7280TIP3   OH243330   4.614   5.136  11.149  0.1790  0.3706 -0.1856
 7280TIP3    H143331   4.619   5.164  11.058 -0.7102  0.6907 -0.1404
 7280TIP3    H243332   4.672   5.196  11.196  1.1565 -0.2174 -0.6384
 7281TIP3   OH243333   1.570   2.042  14.690  0.1224 -0.0171 -0.0678
 7281TIP3    H143334   1.474   2.042  14.690  0.1116 -1.5282 -0.3127
 7281TIP3    H243335   1.595   2.062  14.600  0.0448  1.0106  0.1354
 7282TIP3   OH243336   2.916   2.771  11.177  0.1638  0.2424  0.1704
 7282TIP3    H143337   2.828   2.803  11.194  0.2896 -0.0715  1.4247
 7282TIP3    H243338   2.904   2.698  11.116 -0.3803  0.6551 -0.2227
 7283TIP3   OH243339   5.102   5.357   6.366 -0.2539  0.5088 -0.7473
 7283TIP3    H143340   5.189   5.391   6.386 -0.4915  0.7988 -0.2054
 7283TIP3    H243341   5.045   5.434   6.365 -0.7445  0.1712  0.2022
 7284TIP3   OH243342   1.998   2.529  13.334  0.2873  0.3910  0.3331
 7284TIP3    H143343   1.905   2.543  13.351  0.5504  0.5820  1.6774
 7284TIP3    H243344   2.042   2.597  13.385  1.1918 -0.0812  0.1921
 7285TIP3   OH243345   5.047   4.591   4.559 -0.2267  0.6745  0.3280
 7285TIP3    H143346   5.036   4.682   4.532  0.2004  0.7560  0.4331
 7285TIP3    H243347   5.064   4.595   4.653 -0.6387  0.4575  0.4156
 7286TIP3   OH243348   6.678   4.499   6.705 -0.1501  0.4084  0.0389
 7286TIP3    H143349   6.708   4.590   6.702 -0.4470  0.5127  0.2002
 7286TIP3    H243350   6.745   4.453   6.756 -1.0484  0.9486  1.7567
 7287TIP3   OH243351   0.049   6.026  12.760 -0.6528  0.9178 -0.3223
 7287TIP3    H143352   0.011   6.043  12.674 -2.7430 -0.0233  0.3712
 7287TIP3    H243353   0.074   5.933  12.757 -0.0803  1.0692 -0.1692
 7288TIP3   OH243354   6.167   2.560   5.166  0.0345  0.0070 -0.2163
 7288TIP3    H143355   6.122   2.631   5.212  1.2843  0.3621  0.4562
 7288TIP3    H243356   6.260   2.575   5.183  0.2275 -2.9138  1.5667
 7289TIP3   OH243357   4.451   4.239   3.132 -0.2900 -0.1434  0.0227
 7289TIP3    H143358   4.536   4.283   3.130 -0.1423 -0.3536  1.5319
 7289TIP3    H243359   4.459   4.169   3.067 -0.0348  1.1210 -1.3521
 7290TIP3   OH243360   1.685   3.067   3.491 -0.6906 -0.3710  0.6248
 7290TIP3    H143361   1.768   3.021   3.486 -0.2794  0.4058  0.1492
 7290TIP3    H243362   1.702   3.141   3.549  0.0811  2.0651 -2.5878
 7291TIP3   OH243363   2.822   3.344  14.046 -0.5171  0.3642 -0.3384
 7291TIP3    H143364   2.746   3.312  14.094  0.0705  1.3636  1.2988
 7291TIP3    H243365   2.891   3.351  14.113  0.8848 -0.1007 -1.7087
 7292TIP3   OH243366   5.670   4.224  15.909  0.4081 -0.1888 -0.1545
 7292TIP3    H143367   5.656   4.297  15.970 -1.4578  0.6773 -1.5416
 7292TIP3    H243368   5.630   4.149  15.952  1.9278 -0.3052  1.0828
 7293TIP3   OH243369   4.535   4.567   3.935 -0.2761 -0.1402  0.1089
 7293TIP3    H143370   4.440   4.569   3.941 -0.4295 -1.0611 -1.4200
 7293TIP3    H243371   4.553   4.577   3.841  1.1353  0.2700  0.4101
 7294TIP3   OH243372   3.609   4.152   6.233 -0.0518  1.1505 -0.9782
 7294TIP3    H143373   3.652   4.194   6.308 -2.0397 -0.9271  1.4151
 7294TIP3    H243374   3.656   4.069   6.222 -1.0253  0.5726 -0.7802
 7295TIP3   OH243375   4.990   0.027   5.252 -0.0194 -0.5044 -0.5661
 7295TIP3    H143376   4.963  -0.062   5.273 -1.9242  0.2468  0.2622
 7295TIP3    H243377   4.915   0.066   5.207  0.1700  1.1677  0.5015
 7296TIP3   OH243378   0.272   0.319  14.806 -0.1515  0.7089 -0.3048
 7296TIP3    H143379   0.355   0.272  14.798 -0.0389  0.1718  3.3535
 7296TIP3    H243380   0.294   0.399  14.852 -2.0232 -0.6463  3.0944
 7297TIP3   OH243381   4.122   0.094  16.409  0.0818 -0.1158 -0.1704
 7297TIP3    H143382   4.181   0.048  16.349  1.1194  0.0092  0.7428
 7297TIP3    H243383   4.037   0.089  16.366  0.5969 -0.9760 -1.1360
 7298TIP3   OH243384   3.049   2.872  13.923  0.0708  0.1122 -0.0208
 7298TIP3    H143385   2.960   2.838  13.913  0.5468 -0.9113 -0.8985
 7298TIP3    H243386   3.075   2.896  13.835  0.6781  0.3908  0.2347
 7299TIP3   OH243387   2.935   1.294   4.310  0.8150 -0.6620 -0.1006
 7299TIP3    H143388   2.874   1.262   4.244  0.9498 -0.2774 -0.4094
 7299TIP3    H243389   3.022   1.270   4.277  1.1119  2.4252 -1.6770
 7300TIP3   OH243390   1.089   5.012   0.991 -0.4673 -0.1942 -0.3959
 7300TIP3    H143391   1.135   4.948   0.938  1.1498  0.6800 -0.0806
 7300TIP3    H243392   1.141   5.019   1.071 -1.4156  0.4487  0.1840
 7301TIP3   OH243393   2.786   4.025   5.809 -0.1650  0.1532  0.1067
 7301TIP3    H143394   2.697   4.044   5.839  0.0139  0.4436  0.4640
 7301TIP3    H243395   2.818   4.107   5.773  0.6653  0.6075  1.7987
 7302TIP3   OH243396   4.548   6.079   3.160  0.5743  0.4412 -0.2859
 7302TIP3    H143397   4.453   6.093   3.164  0.5003 -0.3406  1.0614
 7302TIP3    H243398   4.585   6.163   3.188  0.2776  0.5979 -0.3529
 7303TIP3   OH243399   5.206   5.015  11.555 -0.3354  0.2027  0.0717
 7303TIP3    H143400   5.144   5.086  11.573 -1.9958 -0.9092 -1.0682
 7303TIP3    H243401   5.292   5.053  11.573 -1.2991  1.9369  1.2300
 7304TIP3   OH243402   2.858   0.276   3.331 -0.0959 -0.0485  0.4834
 7304TIP3    H143403   2.852   0.223   3.252 -1.1744 -1.1613  1.2848
 7304TIP3    H243404   2.895   0.217   3.397  0.9088  0.8995  0.7840
 7305TIP3   OH243405   1.577   2.104   1.414 -0.0373  1.2877  0.1492
 7305TIP3    H143406   1.496   2.082   1.460  0.5737  1.0334  1.1134
 7305TIP3    H243407   1.558   2.085   1.322 -0.9942  1.0055  0.3995
 7306TIP3   OH243408   5.639   6.820  16.838 -0.1076 -0.9473 -0.2523
 7306TIP3    H143409   5.544   6.824  16.845 -0.0515  0.1803 -0.0623
 7306TIP3    H243410   5.656   6.773  16.756 -0.8208 -0.1927 -0.8278
 7307TIP3   OH243411   4.639   0.933   1.403  0.2471  0.8380  0.5192
 7307TIP3    H143412   4.579   0.904   1.471  1.4315 -0.3385  1.0903
 7307TIP3    H243413   4.651   0.856   1.347  1.4258  0.9769  0.5687
 7308TIP3   OH243414   0.903   6.560  13.291  0.0446 -0.4615 -0.6116
 7308TIP3    H143415   0.865   6.634  13.339  0.7731 -1.0651  0.9281
 7308TIP3    H243416   0.956   6.601  13.223 -0.0056  0.4202 -0.1307
 7309TIP3   OH243417   4.818   4.662   5.975  0.2319 -0.2278  0.6748
 7309TIP3    H143418   4.745   4.704   6.020 -2.3493 -2.2527 -1.4653
 7309TIP3    H243419   4.851   4.598   6.037 -2.0434 -1.6596  0.4359
 7310TIP3   OH243420   1.153   1.557   0.938 -0.5333 -0.1911  0.5066
 7310TIP3    H143421   1.109   1.579   0.857 -0.2461  2.3776  1.0206
 7310TIP3    H243422   1.177   1.465   0.928 -1.8614 -0.3302 -1.6582
 7311TIP3   OH243423   0.967   1.548  15.019 -0.2426  0.3252  0.2296
 7311TIP3    H143424   0.963   1.460  14.983 -0.5096  0.0695  0.8714
 7311TIP3    H243425   0.891   1.593  14.982 -0.2527  0.2068  0.1082
 7312TIP3   OH243426   4.779   3.795  13.686  0.4516  0.1730  0.3673
 7312TIP3    H143427   4.752   3.783  13.595 -0.5788 -0.9418  0.7998
 7312TIP3    H243428   4.732   3.873  13.715  0.8864  0.6081 -0.0911
 7313TIP3   OH243429   2.131   2.982  11.678  0.1727 -0.2827  0.6545
 7313TIP3    H143430   2.111   2.941  11.762  1.1872 -1.6387  0.2555
 7313TIP3    H243431   2.057   3.041  11.661 -0.1463 -0.1854  2.3698
 7314TIP3   OH243432   3.868   2.627   3.847  0.1968  0.0035 -0.3791
 7314TIP3    H143433   3.950   2.581   3.865 -0.9546 -1.7091  0.6020
 7314TIP3    H243434   3.831   2.581   3.771 -0.4250 -0.0013 -0.0762
 7315TIP3   OH243435   1.359   1.154  16.423  0.3303  0.4940  0.4972
 7315TIP3    H143436   1.423   1.148  16.494  1.0339  1.3001 -0.0480
 7315TIP3    H243437   1.406   1.120  16.347 -0.4631 -0.4901  0.4491
 7316TIP3   OH243438   1.808   4.549   2.568 -0.2379  0.5634  0.4935
 7316TIP3    H143439   1.877   4.485   2.546  0.1472  1.1483 -0.0201
 7316TIP3    H243440   1.853   4.615   2.621 -0.1393  1.5382 -0.7859
 7317TIP3   OH243441   3.274   6.351   4.635  0.2674  0.0805 -0.0404
 7317TIP3    H143442   3.305   6.436   4.663  3.0942 -1.0705  0.4409
 7317TIP3    H243443   3.353   6.303   4.609 -1.2900 -2.2582 -0.6628
 7318TIP3   OH243444   2.919   6.500  14.019  0.6567 -0.1713 -0.1755
 7318TIP3    H143445   2.984   6.555  13.974 -0.1613  0.6724 -0.3649
 7318TIP3    H243446   2.866   6.464  13.949 -0.1069  0.4775  0.0599
 7319TIP3   OH243447   1.570   6.580  12.429  0.0653  0.5924  0.3795
 7319TIP3    H143448   1.590   6.562  12.522 -0.0627 -0.5113  0.2035
 7319TIP3    H243449   1.510   6.654  12.431 -0.1832  0.3756  1.2082
 7320TIP3   OH243450   3.761   6.357  12.609 -0.0565 -0.0555 -1.1757
 7320TIP3    H143451   3.781   6.313  12.692  0.7657  0.4408 -1.1103
 7320TIP3    H243452   3.818   6.316  12.545 -1.5781 -1.3069 -1.7647
 7321TIP3   OH243453   3.358   4.569   2.827  0.4281 -0.0922  0.0992
 7321TIP3    H143454   3.274   4.538   2.861  0.5786  0.4457  0.9906
 7321TIP3    H243455   3.344   4.577   2.733 -0.0124 -1.5726  0.0238
 7322TIP3   OH243456   2.825   5.898   3.778 -0.0467 -0.3773  0.1842
 7322TIP3    H143457   2.845   5.893   3.872 -0.3222 -0.1180  0.2586
 7322TIP3    H243458   2.731   5.878   3.773 -0.4945  1.6357  0.1867
 7323TIP3   OH243459   3.554   4.425   6.149 -0.2704  0.0971  0.3053
 7323TIP3    H143460   3.549   4.487   6.222  0.5178 -0.5262  0.8826
 7323TIP3    H243461   3.574   4.341   6.189  1.8542  0.0527 -0.7620
 7324TIP3   OH243462   4.999   2.796  14.165 -0.6138 -0.0963  0.4531
 7324TIP3    H143463   5.035   2.792  14.076 -0.4701 -0.6615  0.5321
 7324TIP3    H243464   5.008   2.706  14.198  0.7721  0.4491  1.6129
 7325TIP3   OH243465   1.001   3.067   1.006 -0.7518  0.0407  0.2119
 7325TIP3    H143466   0.951   3.091   0.928  0.9461 -0.6353 -1.1119
 7325TIP3    H243467   1.033   3.150   1.040 -3.2743  0.5468  1.4471
 7326TIP3   OH243468   5.626   3.203  13.354 -0.3834  0.1399 -0.2313
 7326TIP3    H143469   5.662   3.285  13.388  0.4558 -0.2543 -0.1575
 7326TIP3    H243470   5.592   3.157  13.431  0.7935 -0.3950 -0.0271
 7327TIP3   OH243471   4.504   1.074   0.191  0.3216 -0.2739  0.0600
 7327TIP3    H143472   4.588   1.117   0.177  0.3520 -1.2086 -2.8436
 7327TIP3    H243473   4.517   0.984   0.161 -1.5275 -0.6076  0.1848
 7328TIP3   OH243474   5.189   1.099   4.418 -0.4785 -0.0687 -0.5827
 7328TIP3    H143475   5.261   1.114   4.478 -1.1718 -1.0327  0.4965
 7328TIP3    H243476   5.134   1.177   4.427 -0.4309 -0.0814 -0.1940
 7329TIP3   OH243477   5.252   4.145   0.010  0.1251 -0.0653 -0.4339
 7329TIP3    H143478   5.310   4.072   0.030 -1.2802 -1.0182  0.2830
 7329TIP3    H243479   5.222   4.176   0.095 -1.9487 -0.8807 -0.8184
 7330TIP3   OH243480   6.011   4.432   3.080  0.0523  0.2723 -0.1694
 7330TIP3    H143481   6.081   4.377   3.047  1.5445 -0.3108  3.6794
 7330TIP3    H243482   6.015   4.511   3.026  3.4723  0.0987 -0.2497
 7331TIP3   OH243483   3.465   5.581  16.461  0.2503  0.1271  0.0765
 7331TIP3    H143484   3.536   5.617  16.514  1.6592 -0.5077 -1.3450
 7331TIP3    H243485   3.464   5.636  16.383  1.0540 -1.5979 -1.1747
 7332TIP3   OH243486   1.362   3.214   1.594 -0.1359 -0.0218  0.0846
 7332TIP3    H143487   1.305   3.290   1.590  0.4784  0.3952 -0.9475
 7332TIP3    H243488   1.436   3.242   1.648  0.4118  0.3473 -0.8374
 7333TIP3   OH243489   2.650   1.414   6.308  0.0652 -0.9165  0.0734
 7333TIP3    H143490   2.738   1.440   6.281 -0.2607 -0.2974 -0.4014
 7333TIP3    H243491   2.662   1.374   6.394  0.8491 -1.1049 -0.1238
 7334TIP3   OH243492   3.172   4.349  11.522 -0.6910 -0.4605 -0.1914
 7334TIP3    H143493   3.191   4.355  11.428  1.2130 -0.5229  0.1777
 7334TIP3    H243494   3.187   4.438  11.554  1.5571 -1.0984  0.5706
 7335TIP3   OH243495   2.709   3.754   3.780  0.3546 -0.6639 -0.7210
 7335TIP3    H143496   2.770   3.828   3.782  0.8105 -1.0294 -1.1107
 7335TIP3    H243497   2.763   3.677   3.795  0.0155 -1.0059 -1.2241
 7336TIP3   OH243498   1.867   2.186   3.148 -0.2019 -0.6203  0.2082
 7336TIP3    H143499   1.794   2.230   3.103  2.6732 -0.7040 -4.8593
 7336TIP3    H243500   1.904   2.254   3.204 -1.9877  0.4800  0.1000
 7337TIP3   OH243501   6.116   5.949  15.180  0.1763 -0.4003 -0.0575
 7337TIP3    H143502   6.139   5.912  15.266 -1.3450 -1.0411  0.0837
 7337TIP3    H243503   6.196   5.939  15.129  1.0399 -0.2046  1.2253
 7338TIP3   OH243504   6.273   2.470   1.261 -0.1568 -0.1745 -0.1405
 7338TIP3    H143505   6.358   2.451   1.300 -0.7878 -1.1935  0.7596
 7338TIP3    H243506   6.293   2.528   1.186  1.5385 -2.2394 -1.3301
 7339TIP3   OH243507   5.725   1.382   4.219 -0.9034  0.0128 -0.1146
 7339TIP3    H143508   5.648   1.331   4.195 -0.8410 -1.2290  2.1844
 7339TIP3    H243509   5.763   1.334   4.293  0.3689  2.2297  0.7025
 7340TIP3   OH243510   4.263   0.812  11.607  0.0102  0.2618 -0.4628
 7340TIP3    H143511   4.180   0.837  11.649 -0.9057 -1.1890 -1.3683
 7340TIP3    H243512   4.243   0.811  11.514  1.6632  2.0532 -0.8610
 7341TIP3   OH243513   3.803   6.460   1.650  0.3909 -0.3858 -0.3411
 7341TIP3    H143514   3.883   6.424   1.612  1.6350  0.8333  1.0487
 7341TIP3    H243515   3.811   6.442   1.743 -1.7400 -1.6800 -0.3761
 7342TIP3   OH243516   2.528   1.669   0.939 -0.1921  0.2237  0.4422
 7342TIP3    H143517   2.521   1.671   0.843 -1.3751  1.1964  0.5505
 7342TIP3    H243518   2.609   1.620   0.955 -1.2895 -2.1573 -1.0033
 7343TIP3   OH243519   0.491   4.474   1.986 -0.0768  0.3205 -0.2153
 7343TIP3    H143520   0.543   4.407   1.942  2.2286 -0.5692  3.7185
 7343TIP3    H243521   0.421   4.426   2.030 -0.0783  0.7979  0.3118
 7344TIP3   OH243522   0.718   3.520  15.575 -0.2753 -0.3079  0.2651
 7344TIP3    H143523   0.729   3.596  15.517  2.0640 -1.0924 -0.3764
 7344TIP3    H243524   0.716   3.445  15.516  1.7676 -1.0900  1.1516
 7345TIP3   OH243525   3.818   5.699   5.819  0.0605  0.0028 -0.0264
 7345TIP3    H143526   3.732   5.661   5.839  0.1186  0.9043  2.0963
 7345TIP3    H243527   3.871   5.681   5.896  2.1710 -1.5698 -1.8157
 7346TIP3   OH243528   0.590   3.734   3.592 -0.0715 -0.2434 -0.4262
 7346TIP3    H143529   0.680   3.743   3.624 -1.0977 -1.8810  3.1403
 7346TIP3    H243530   0.553   3.821   3.600  1.1956  0.4675 -2.0192
 7347TIP3   OH243531   1.974   1.975   6.284  0.9984 -0.0665 -0.1739
 7347TIP3    H143532   1.998   1.945   6.197 -0.7510  0.8518 -0.9862
 7347TIP3    H243533   2.013   1.910   6.343  0.9575 -1.5058 -1.6968
 7348TIP3   OH243534   5.823   0.756  13.115  0.0727 -0.0362  0.4112
 7348TIP3    H143535   5.774   0.674  13.119  0.1231 -0.1003 -0.2891
 7348TIP3    H243536   5.756   0.825  13.116 -0.0070 -0.1082  0.1162
 7349TIP3   OH243537   5.812   3.470  14.498  0.3999  0.1574 -0.3986
 7349TIP3    H143538   5.852   3.532  14.438  0.5252  0.2382 -0.2309
 7349TIP3    H243539   5.798   3.520  14.579  0.8247 -0.1276 -0.1468
 7350TIP3   OH243540   3.255   1.291  15.320 -0.3910  0.1198  0.0831
 7350TIP3    H143541   3.296   1.282  15.406  3.2844 -1.8277 -1.7796
 7350TIP3    H243542   3.212   1.207  15.305 -1.7122  0.7400  0.3206
 7351TIP3   OH243543   0.102   5.250  15.830  0.2857 -0.0069 -0.0148
 7351TIP3    H143544   0.097   5.284  15.740  0.8134  1.1311  0.3786
 7351TIP3    H243545   0.092   5.155  15.820  0.5266  0.0887 -1.2886
 7352TIP3   OH243546   1.797   4.658   2.999 -0.1543  0.1859 -0.0839
 7352TIP3    H143547   1.792   4.726   3.066  1.5479  0.1480  0.1070
 7352TIP3    H243548   1.843   4.586   3.041 -1.9642 -1.1063 -0.2866
 7353TIP3   OH243549   1.926   4.212  14.528  0.1181  0.1382 -0.4134
 7353TIP3    H143550   1.997   4.273  14.549 -0.3467 -0.3861  3.0984
 7353TIP3    H243551   1.969   4.135  14.493  1.1340  0.5652 -0.1196
 7354TIP3   OH243552   1.354   3.095  14.424  0.2558 -0.2014  0.0995
 7354TIP3    H143553   1.302   3.067  14.499 -1.6180  0.5467 -0.8684
 7354TIP3    H243554   1.385   3.182  14.447 -0.5869  0.1606 -0.0981
 7355TIP3   OH243555   6.514   0.266   5.206  0.2240  0.2517 -0.4402
 7355TIP3    H143556   6.603   0.254   5.173  1.3221 -0.9184  2.7639
 7355TIP3    H243557   6.521   0.255   5.301 -3.2896  0.4504 -0.0649
 7356TIP3   OH243558   1.379   4.494  16.420 -0.0432 -0.0379 -0.2268
 7356TIP3    H143559   1.413   4.468  16.334 -0.0088 -0.9243  0.0420
 7356TIP3    H243560   1.289   4.521  16.402  0.2593  0.6901 -0.6844
 7357TIP3   OH243561   1.339   5.037  15.166  0.2543 -0.1755  0.4718
 7357TIP3    H143562   1.359   4.983  15.089  1.1669 -1.6906  1.7468
 7357TIP3    H243563   1.280   5.105  15.133  0.2035 -1.1265 -1.4510
 7358TIP3   OH243564   2.060   3.998  12.892 -0.3932 -0.1991 -0.1369
 7358TIP3    H143565   2.037   3.956  12.809  1.8005 -0.4564 -0.6370
 7358TIP3    H243566   1.976   4.010  12.937 -1.6705  0.4701 -2.6296
 7359TIP3   OH243567   5.284   3.990  15.068 -0.0143 -0.1626 -0.2993
 7359TIP3    H143568   5.310   3.911  15.021  0.7003  0.5995 -1.2084
 7359TIP3    H243569   5.279   3.963  15.160 -1.9024 -1.7902 -0.8536
 7360TIP3   OH243570   4.336   3.328  11.994  0.0410 -0.1984 -0.3527
 7360TIP3    H143571   4.365   3.405  11.945 -1.0585  1.4947  1.5712
 7360TIP3    H243572   4.388   3.330  12.074 -0.8128 -0.8081  0.2223
 7361TIP3   OH243573   5.767   1.034  11.349 -0.0789 -0.6351  0.7531
 7361TIP3    H143574   5.687   1.065  11.306  0.1862 -0.9803 -0.0126
 7361TIP3    H243575   5.811   0.981  11.282  1.0785  0.0329  0.9673
 7362TIP3   OH243576   0.600   3.118   5.437  0.2105  0.9908 -0.0780
 7362TIP3    H143577   0.688   3.081   5.426 -0.6665 -0.9273 -0.8429
 7362TIP3    H243578   0.577   3.096   5.527 -0.6873 -1.2412 -0.8185
 7363TIP3   OH243579   2.706   2.069   2.936 -0.7029  0.1875 -0.3485
 7363TIP3    H143580   2.759   2.137   2.894  1.9152 -0.5146  1.6630
 7363TIP3    H243581   2.695   2.001   2.870 -0.4292  1.0600 -1.2882
 7364TIP3   OH243582   5.698   5.697  11.444 -0.2505  0.3267  0.3368
 7364TIP3    H143583   5.660   5.780  11.475  0.1443  0.3127  0.8618
 7364TIP3    H243584   5.701   5.642  11.522 -1.0931 -0.4092 -0.1456
 7365TIP3   OH243585   2.660   5.159   1.927 -0.3447 -0.1559  0.5162
 7365TIP3    H143586   2.742   5.181   1.972 -0.2908 -0.2205  0.4496
 7365TIP3    H243587   2.604   5.236   1.940 -0.0480  0.1446  0.0162
 7366TIP3   OH243588   3.480   5.253  14.869  0.0773  0.4066 -0.3301
 7366TIP3    H143589   3.532   5.176  14.892 -0.6244  0.4166  1.3111
 7366TIP3    H243590   3.425   5.225  14.796 -2.1605 -1.4927  2.0147
 7367TIP3   OH243591   3.880   3.537  16.369  0.0693  0.4037  0.0970
 7367TIP3    H143592   3.868   3.630  16.389  1.1446  0.8154 -1.1342
 7367TIP3    H243593   3.904   3.497  16.453 -1.0737  1.1124  0.7693
 7368TIP3   OH243594   1.843   3.745  17.083  0.3967  0.1240  0.4381
 7368TIP3    H143595   1.862   3.828  17.127 -1.5506 -0.0840  1.7334
 7368TIP3    H243596   1.892   3.680  17.135  0.0141  0.1683  0.8540
 7369TIP3   OH243597   4.605   6.026   4.148 -0.1941  0.2504  0.0092
 7369TIP3    H143598   4.635   5.935   4.157  3.0037  1.1901 -0.6399
 7369TIP3    H243599   4.628   6.067   4.231 -1.2350  0.6140  0.1313
 7370TIP3   OH243600   3.657   3.603   2.529  0.0559  0.4900  0.1403
 7370TIP3    H143601   3.614   3.681   2.494  0.0608  0.6905  0.5789
 7370TIP3    H243602   3.586   3.545   2.554  0.0460 -0.5483 -2.1630
 7371TIP3   OH243603   3.946   1.905  16.611  0.0748  0.5903  0.1091
 7371TIP3    H143604   3.898   1.961  16.550  0.5674  0.9299  0.0283
 7371TIP3    H243605   3.908   1.818  16.600  0.1921  0.6434 -0.7147
 7372TIP3   OH243606   3.094   4.736   2.290 -0.6102  0.1172  0.0534
 7372TIP3    H143607   3.178   4.758   2.248 -0.0110  0.0551  1.1930
 7372TIP3    H243608   3.042   4.816   2.284 -0.0081  0.5411  0.4452
 7373TIP3   OH243609   6.057   3.213   5.203  0.6047  0.0010 -0.4813
 7373TIP3    H143610   6.079   3.197   5.295 -2.1949 -1.1334  0.0261
 7373TIP3    H243611   6.088   3.136   5.157  1.0391  0.0846 -0.3299
 7374TIP3   OH243612   0.944   1.166  11.695  0.4964 -0.0418  0.8640
 7374TIP3    H143613   0.876   1.127  11.640 -0.2431  2.4243 -0.0115
 7374TIP3    H243614   0.928   1.131  11.783 -0.1370 -1.6788  0.1052
 7375TIP3   OH243615   5.054   3.584   3.964 -0.5348  0.7035  0.2502
 7375TIP3    H143616   5.065   3.651   4.031 -0.1258  2.6795 -1.7590
 7375TIP3    H243617   5.143   3.567   3.932 -0.5862 -1.0917  1.0131
 7376TIP3   OH243618   3.610   2.525   2.176 -0.2137  0.0903  0.2526
 7376TIP3    H143619   3.570   2.536   2.262 -1.7378  0.9591 -0.5401
 7376TIP3    H243620   3.608   2.612   2.137  1.8128  0.0044 -0.1094
 7377TIP3   OH243621   0.580   2.305  14.403 -0.5716  0.0129 -0.1556
 7377TIP3    H143622   0.569   2.210  14.409  0.4431 -0.0790  0.2535
 7377TIP3    H243623   0.616   2.331  14.488  2.4620  0.3164 -1.4994
 7378TIP3   OH243624   3.771   2.300  16.996 -0.1893 -0.3419  0.7484
 7378TIP3    H143625   3.679   2.312  17.018 -0.4491  1.5109 -1.1885
 7378TIP3    H243626   3.770   2.249  16.914  0.5013 -0.1133  0.5910
 7379TIP3   OH243627   3.774   2.354  12.323 -0.1484  0.5161 -0.6709
 7379TIP3    H143628   3.736   2.429  12.278 -0.6941  0.7578  0.1750
 7379TIP3    H243629   3.847   2.326  12.267 -1.3035  0.3113 -2.1001
 7380TIP3   OH243630   3.218   5.436   0.619 -0.1013 -0.3665  0.2832
 7380TIP3    H143631   3.286   5.498   0.645  0.0234 -0.5825  0.4708
 7380TIP3    H243632   3.139   5.490   0.610 -0.4572 -0.4829  2.3776
 7381TIP3   OH243633   6.468   5.085   2.915  0.7774  0.5952  0.4828
 7381TIP3    H143634   6.457   5.151   2.984  2.7325  2.2181 -0.6888
 7381TIP3    H243635   6.427   5.124   2.838 -0.7104 -0.8736  0.5073
 7382TIP3   OH243636   6.659   1.446   2.603  0.1162 -0.6760  0.3542
 7382TIP3    H143637   6.583   1.502   2.614  0.6159 -0.0757  0.7626
 7382TIP3    H243638   6.673   1.407   2.689  0.6732 -0.2769  0.4428
 7383TIP3   OH243639   3.940   0.760   4.952 -0.2767  0.0687  0.3298
 7383TIP3    H143640   3.963   0.853   4.951  1.3085 -0.2955  1.0938
 7383TIP3    H243641   3.981   0.724   4.874 -1.7703  0.1859 -0.5365
 7384TIP3   OH243642   4.462   2.550   1.649  0.1065  0.3955 -0.3863
 7384TIP3    H143643   4.400   2.493   1.602  1.4602 -0.6591 -0.9433
 7384TIP3    H243644   4.456   2.634   1.604  0.5673 -0.2895 -1.7530
 7385TIP3   OH243645   2.497   3.943  12.412 -0.3910  0.0766  0.5634
 7385TIP3    H143646   2.443   3.867  12.389  0.8932 -0.7682  0.2588
 7385TIP3    H243647   2.581   3.905  12.439 -0.0084  1.3519  1.1980
 7386TIP3   OH243648   3.744   3.206  11.030 -0.2779 -0.1957 -0.3012
 7386TIP3    H143649   3.716   3.133  10.975  0.1025  0.1977 -1.0234
 7386TIP3    H243650   3.734   3.173  11.119  0.7246 -1.4517 -0.6237
 7387TIP3   OH243651   5.692   2.458   5.213  0.0477  0.1037 -0.2100
 7387TIP3    H143652   5.752   2.491   5.280 -0.7589  0.0124  0.5580
 7387TIP3    H243653   5.749   2.416   5.148  0.7534 -0.5901  0.8608
 7388TIP3   OH243654   6.132   1.038   0.473 -0.2578  0.4668  0.0837
 7388TIP3    H143655   6.081   0.961   0.498  0.1875 -0.2218 -1.1533
 7388TIP3    H243656   6.222   1.007   0.467  0.0037  1.2095  0.1219
 7389TIP3   OH243657   3.988   5.566  15.271  0.0953 -0.0672  0.1301
 7389TIP3    H143658   3.948   5.509  15.336 -2.5611  0.1194 -1.3001
 7389TIP3    H243659   3.979   5.654  15.308  0.2231 -0.1242  0.3026
 7390TIP3   OH243660   5.826   4.724   6.267  0.3754  0.2782 -0.1829
 7390TIP3    H143661   5.882   4.775   6.326 -0.3265  1.1665 -0.2746
 7390TIP3    H243662   5.888   4.680   6.209  0.9982  1.0659 -0.1335
 7391TIP3   OH243663   2.353   1.888  15.223 -0.0767  0.3789 -0.7392
 7391TIP3    H143664   2.360   1.806  15.173  0.7978  1.4009 -2.3371
 7391TIP3    H243665   2.306   1.863  15.302 -1.4235 -1.3099 -2.0211
 7392TIP3   OH243666   0.463   5.435   1.585 -0.1110 -0.7014  0.0564
 7392TIP3    H143667   0.392   5.371   1.580 -1.9282  1.3937 -2.2890
 7392TIP3    H243668   0.538   5.393   1.543 -0.5024 -2.2302  0.8687
 7393TIP3   OH243669   5.099   0.828   2.206  0.0653 -0.8447  0.4081
 7393TIP3    H143670   5.048   0.749   2.227  2.6674 -2.0066  2.7057
 7393TIP3    H243671   5.178   0.794   2.164  0.3533  0.6973 -0.3153
 7394TIP3   OH243672   3.500   3.809  11.508  0.0478 -0.6871 -0.3659
 7394TIP3    H143673   3.515   3.761  11.426 -1.2389 -1.3299 -0.2413
 7394TIP3    H243674   3.582   3.856  11.524  0.2130 -0.3093 -2.1864
 7395TIP3   OH243675   1.096   3.653   0.096  0.0353  0.1384 -0.2252
 7395TIP3    H143676   1.083   3.724   0.159  0.9618 -0.4707  0.6613
 7395TIP3    H243677   1.055   3.577   0.136  2.8234 -0.8666  0.8583
 7396TIP3   OH243678   0.933   5.062   6.064 -0.0788  0.3321 -0.1136
 7396TIP3    H143679   0.979   5.142   6.037 -1.0228  1.0257  0.2814
 7396TIP3    H243680   0.893   5.086   6.148 -0.8861 -0.3608 -0.3026
 7397TIP3   OH243681   1.152   6.054  16.838 -0.2183 -0.2368 -0.7494
 7397TIP3    H143682   1.135   5.959  16.836  0.6876 -0.3957 -2.1635
 7397TIP3    H243683   1.232   6.064  16.786 -0.8154  1.4014 -1.3741
 7398TIP3   OH243684   2.051   0.681  10.398 -0.4095 -0.1470  0.1431
 7398TIP3    H143685   1.968   0.705  10.438  0.5821  1.4352  1.3275
 7398TIP3    H243686   2.103   0.762  10.401  1.3379 -1.2379 -0.1171
 7399TIP3   OH243687   0.123   6.702  15.025  0.1709  0.4363 -0.0947
 7399TIP3    H143688   0.137   6.784  14.978  2.0738 -0.1358 -0.5654
 7399TIP3    H243689   0.141   6.634  14.960 -0.4905 -0.3741  0.5520
 7400TIP3   OH243690   3.979   0.730  13.351  0.4789  0.0741  0.3591
 7400TIP3    H143691   3.892   0.700  13.379 -1.2414 -0.3527 -4.8571
 7400TIP3    H243692   3.973   0.826  13.354  0.3022  0.0299  1.3807
 7401TIP3   OH243693   6.108   2.860   3.105  0.5923 -0.1209  0.3268
 7401TIP3    H143694   6.078   2.946   3.132  1.0162  0.5679 -1.3304
 7401TIP3    H243695   6.076   2.850   3.015 -0.4741 -2.1948  0.8895
 7402TIP3   OH243696   4.272   1.993  13.865  0.4941 -0.2518  0.2622
 7402TIP3    H143697   4.310   2.067  13.818 -0.4875  0.2466  0.2471
 7402TIP3    H243698   4.344   1.960  13.919  0.7102  1.2626  0.9401
 7403TIP3   OH243699   4.083   3.972   2.675 -0.2303 -0.1307  0.6978
 7403TIP3    H143700   4.010   4.034   2.664 -0.8691 -1.1289 -0.9855
 7403TIP3    H243701   4.140   3.990   2.600 -2.1315 -3.7794 -1.7846
 7404TIP3   OH243702   4.010   2.962   2.949  0.0903  0.0867 -0.5224
 7404TIP3    H143703   4.023   2.951   3.043 -0.1294 -1.1455 -0.6358
 7404TIP3    H243704   3.965   3.046   2.941 -0.4718 -0.1072  0.5208
 7405TIP3   OH243705   3.068   2.039   1.497 -0.1598 -0.2067  0.4822
 7405TIP3    H143706   3.018   2.091   1.560 -0.1346 -0.6085  0.8416
 7405TIP3    H243707   3.157   2.038   1.532 -0.1536 -0.4642  0.4639
 7406TIP3   OH243708   0.484   1.715   1.805 -0.2229  0.5319  0.1719
 7406TIP3    H143709   0.563   1.692   1.757  1.0056  1.6637  1.6321
 7406TIP3    H243710   0.447   1.788   1.755  0.1882  0.6540  0.0448
 7407TIP3   OH243711   4.898   6.083   4.706 -0.3746  0.0458  0.6826
 7407TIP3    H143712   4.878   6.106   4.797  0.3856 -0.1348  0.9026
 7407TIP3    H243713   4.963   6.014   4.713  0.8350  1.0890 -0.0053
 7408TIP3   OH243714   5.228   6.586   1.153 -0.1618  1.1983  0.1582
 7408TIP3    H143715   5.167   6.516   1.130  0.1886  0.3345  1.7655
 7408TIP3    H243716   5.175   6.647   1.206  0.1084  0.9758  0.6859
 7409TIP3   OH243717   3.881   6.154  15.561 -0.8136 -0.1196 -0.3053
 7409TIP3    H143718   3.833   6.096  15.503 -0.0851  0.6395 -1.7041
 7409TIP3    H243719   3.829   6.235  15.564 -1.4711 -0.5727  1.0845
 7410TIP3   OH243720   0.056   6.457   5.062  0.1442  0.2048  0.4166
 7410TIP3    H143721   0.017   6.410   4.988  0.0051 -0.0244  0.6340
 7410TIP3    H243722   0.134   6.498   5.026 -1.0624  1.8724 -0.3941
 7411TIP3   OH243723   6.141   5.127  15.590 -0.0628 -0.7098  0.0499
 7411TIP3    H143724   6.080   5.185  15.635  0.1744 -0.7088  0.3674
 7411TIP3    H243725   6.105   5.039  15.605  0.4964 -0.7836  0.9879
 7412TIP3   OH243726   0.754   6.671  16.483 -0.0791 -0.5617  0.0363
 7412TIP3    H143727   0.771   6.598  16.543  0.1641 -0.7417 -0.2398
 7412TIP3    H243728   0.661   6.664  16.462 -0.1586 -0.5076  0.3829
 7413TIP3   OH243729   2.821   2.308  15.779  0.4197 -0.2999  0.9933
 7413TIP3    H143730   2.747   2.262  15.739 -0.3972  1.6734  0.1823
 7413TIP3    H243731   2.885   2.239  15.797  0.0202 -1.5099 -1.9557
 7414TIP3   OH243732   1.274   5.373  14.439  0.3470  0.2375  0.1606
 7414TIP3    H143733   1.261   5.348  14.347  2.6429 -1.7275  0.3231
 7414TIP3    H243734   1.314   5.459  14.435 -1.3322  0.9903 -0.6235
 7415TIP3   OH243735   5.595   5.919   3.238  0.1292  0.0734 -0.3665
 7415TIP3    H143736   5.613   6.012   3.228  0.6218 -0.1840 -2.1051
 7415TIP3    H243737   5.609   5.901   3.331  1.7117  1.3630 -0.3453
 7416TIP3   OH243738   2.998   5.019   5.528 -0.1386  0.0891  0.2570
 7416TIP3    H143739   3.026   4.954   5.593  0.6650  0.4456  0.2728
 7416TIP3    H243740   2.922   5.061   5.567 -1.4105 -1.6791 -0.2670
 7417TIP3   OH243741   0.793   1.208  15.341 -0.2828 -0.0472 -0.0505
 7417TIP3    H143742   0.843   1.277  15.297  0.8183 -0.5118  0.4515
 7417TIP3    H243743   0.724   1.256  15.388 -0.4307  0.5840 -0.8972
 7418TIP3   OH243744   0.710   4.382   4.251  0.4559 -0.1182  0.4937
 7418TIP3    H143745   0.702   4.355   4.160  2.5232 -1.1690  0.5952
 7418TIP3    H243746   0.681   4.473   4.251  2.3522  0.5189 -1.5818
 7419TIP3   OH243747   5.633   6.143  11.292 -0.3401 -0.1349 -0.6122
 7419TIP3    H143748   5.689   6.178  11.223 -0.2434  1.0797  0.0822
 7419TIP3    H243749   5.545   6.143  11.254 -0.1710 -0.2053 -1.0044
 7420TIP3   OH243750   1.858   4.307  16.008  0.5094 -0.0101  0.2712
 7420TIP3    H143751   1.949   4.333  16.018  0.9816 -1.3418 -0.4571
 7420TIP3    H243752   1.814   4.386  15.974  1.2978  0.7484  1.0088
 7421TIP3   OH243753   5.708   1.248  11.158 -0.1156 -0.5720  0.0034
 7421TIP3    H143754   5.803   1.258  11.150 -0.3938  1.0540 -1.4104
 7421TIP3    H243755   5.685   1.181  11.094 -0.1912  0.5861 -1.1930
 7422TIP3   OH243756   0.747   2.107   3.237  0.9044 -0.1516  0.2061
 7422TIP3    H143757   0.793   2.027   3.213  1.1828 -0.2046  0.8967
 7422TIP3    H243758   0.720   2.146   3.153 -0.4957 -1.6912 -0.0826
 7423TIP3   OH243759   0.280   6.777   6.033  0.7368 -0.3577  0.5192
 7423TIP3    H143760   0.248   6.717   6.101  1.1021 -0.3685  0.6823
 7423TIP3    H243761   0.230   6.753   5.955 -1.5180  1.3515  1.3943
 7424TIP3   OH243762   0.096   1.106  13.233  0.6046 -0.3893 -0.1237
 7424TIP3    H143763   0.117   1.014  13.221  1.0645 -0.0937 -1.7077
 7424TIP3    H243764   0.073   1.138  13.146  2.5967  1.5092 -0.0185
 7425TIP3   OH243765   1.220   6.384   2.692  0.6377  0.1019  0.5396
 7425TIP3    H143766   1.313   6.406   2.680  0.4804  0.1441 -0.6176
 7425TIP3    H243767   1.221   6.302   2.742  1.3094 -0.4036 -0.3002
 7426TIP3   OH243768   3.409   0.367  14.065  0.2164  0.5015 -0.1971
 7426TIP3    H143769   3.398   0.413  14.149 -1.3689 -2.2657  1.1718
 7426TIP3    H243770   3.497   0.330  14.070  0.2279  0.5682  0.1519
 7427TIP3   OH243771   0.450   4.607  17.127 -0.3181 -0.1793 -0.0364
 7427TIP3    H143772   0.443   4.603  17.223 -0.0575  0.5300  0.0173
 7427TIP3    H243773   0.359   4.614  17.097 -0.5472 -2.4185  0.0399
 7428TIP3   OH243774   6.769   0.357   4.571  0.0909  0.3887 -0.2360
 7428TIP3    H143775   6.825   0.378   4.496  1.4087  0.7092  0.8386
 7428TIP3    H243776   6.705   0.429   4.573  0.5741  0.8285 -0.5389
 7429TIP3   OH243777   1.450   1.203   0.263  0.0167  0.3494 -0.3771
 7429TIP3    H143778   1.522   1.151   0.300  0.1125  1.6472  1.3243
 7429TIP3    H243779   1.418   1.151   0.189  2.3959 -0.4774 -0.8814
 7430TIP3   OH243780   4.138   6.798   0.104  0.0067  0.0622  0.0073
 7430TIP3    H143781   4.143   6.892   0.084 -1.1684  0.3988  1.2102
 7430TIP3    H243782   4.176   6.790   0.192 -0.1299 -0.5491  0.0116
 7431TIP3   OH243783   5.572   6.670   0.721 -0.3291  0.0441 -0.2577
 7431TIP3    H143784   5.632   6.715   0.781 -0.2834  1.4020 -1.2873
 7431TIP3    H243785   5.494   6.653   0.773  0.5666 -0.8275  0.8153
 7432TIP3   OH243786   6.491   3.589   2.342  1.2236 -0.5063  0.3429
 7432TIP3    H143787   6.534   3.661   2.296  0.8192 -0.2559  0.3544
 7432TIP3    H243788   6.540   3.511   2.316  0.7507 -0.4218 -0.8363
 7433TIP3   OH243789   0.802   1.821  17.234 -0.0551  0.0601 -0.3039
 7433TIP3    H143790   0.883   1.772  17.244  0.2878  0.5390 -0.6749
 7433TIP3    H243791   0.825   1.910  17.261 -0.5248  0.1380 -0.1609
 7434TIP3   OH243792   6.317   2.690   3.052  0.4541 -0.3183  0.1430
 7434TIP3    H143793   6.391   2.751   3.053 -0.4771  0.8104  0.6425
 7434TIP3    H243794   6.240   2.745   3.066 -0.6102 -1.3336 -1.5481
 7435TIP3   OH243795   6.213   2.947   2.208  0.5474  0.0924 -0.2146
 7435TIP3    H143796   6.198   3.021   2.267  0.4327  0.8316 -1.1623
 7435TIP3    H243797   6.280   2.894   2.252 -2.4536 -1.5944  2.6031
 7436TIP3   OH243798   1.815   3.394  11.862  0.0615  0.4088  0.7814
 7436TIP3    H143799   1.743   3.455  11.873  1.1734  1.9507 -0.2488
 7436TIP3    H243800   1.774   3.314  11.827 -0.8304  2.1733 -2.3907
 7437TIP3   OH243801   5.400   5.617  14.838 -0.1018  0.4700 -0.3252
 7437TIP3    H143802   5.411   5.678  14.911  1.0814  2.2858 -1.9721
 7437TIP3    H243803   5.473   5.555  14.848 -0.9263 -0.3233  0.9708
 7438TIP3   OH243804   3.732   3.822  14.261  0.6000 -0.7155 -0.0599
 7438TIP3    H143805   3.653   3.786  14.219 -0.3633  0.9234  0.3090
 7438TIP3    H243806   3.716   3.812  14.355  1.5002 -1.7474 -0.0094
 7439TIP3   OH243807   1.333   0.464  11.129 -0.1669  0.6911  0.8385
 7439TIP3    H143808   1.241   0.489  11.142 -0.9564 -0.3379 -2.2729
 7439TIP3    H243809   1.329   0.370  11.111  1.4810  0.7059  0.3701
 7440TIP3   OH243810   0.084   5.744   5.360 -0.3298 -0.0539  0.3631
 7440TIP3    H143811   0.133   5.814   5.316  0.4531 -0.9223 -0.1530
 7440TIP3    H243812   0.115   5.664   5.319 -0.7857 -0.7548  1.3853
 7441TIP3   OH243813   5.915   5.655  11.899 -0.0461 -0.4788  0.2500
 7441TIP3    H143814   5.978   5.685  11.833  1.3854 -2.5694  0.6182
 7441TIP3    H243815   5.884   5.736  11.940  0.1800  0.7750 -1.9322
 7442TIP3   OH243816   1.873   5.419   1.141  0.0149 -0.0096  0.3077
 7442TIP3    H143817   1.890   5.381   1.227 -1.3246  1.0654  1.0817
 7442TIP3    H243818   1.946   5.390   1.086  0.4133 -1.4354  1.5721
 7443TIP3   OH243819   4.416   5.368   1.508  0.5424  0.2101  0.3842
 7443TIP3    H143820   4.447   5.403   1.592 -0.1432  1.9175 -0.0780
 7443TIP3    H243821   4.445   5.432   1.443  1.4729 -1.3356 -0.7619
 7444TIP3   OH243822   1.548   0.037  12.091 -0.2988 -0.0508  0.4399
 7444TIP3    H143823   1.528   0.067  12.002  1.0111 -0.0750  0.1275
 7444TIP3    H243824   1.537  -0.058  12.088 -0.8509  0.0093  0.4701
 7445TIP3   OH243825   2.195   4.975  15.475 -0.1925 -0.1842 -0.4275
 7445TIP3    H143826   2.116   4.922  15.466  0.4016 -1.0147 -0.8071
 7445TIP3    H243827   2.163   5.064  15.492 -1.1823 -0.7013  0.3841
 7446TIP3   OH243828   6.662   5.414   4.774 -0.1304 -0.4416  0.5403
 7446TIP3    H143829   6.710   5.346   4.821 -0.6598 -0.6860  0.7283
 7446TIP3    H243830   6.714   5.431   4.696 -0.7172 -2.0833 -0.2295
 7447TIP3   OH243831   3.728   2.964  15.259  0.4814  0.6923  0.1048
 7447TIP3    H143832   3.824   2.957  15.261  0.4093 -0.3400  0.2260
 7447TIP3    H243833   3.711   3.057  15.243  1.5217  0.7243 -0.9077
 7448TIP3   OH243834   1.992   0.852  12.935 -0.2896  0.4130 -0.1518
 7448TIP3    H143835   1.932   0.785  12.901 -2.3771  1.4059  1.4674
 7448TIP3    H243836   2.060   0.859  12.868 -0.2102 -3.0533 -0.5301
 7449TIP3   OH243837   5.045   0.094  12.116  0.8427  0.6023  1.0598
 7449TIP3    H143838   5.094   0.055  12.189  0.8556 -0.7510  0.3458
 7449TIP3    H243839   5.111   0.146  12.069  1.0031  0.8865  1.5994
 7450TIP3   OH243840   5.934   2.429  15.050 -0.7713 -0.6728 -0.2722
 7450TIP3    H143841   5.889   2.344  15.052 -2.4450  0.2051  0.0327
 7450TIP3    H243842   5.925   2.463  15.139 -1.8744  0.7199 -0.8914
 7451TIP3   OH243843   4.452   0.364  16.750  0.1527  0.1993  0.2374
 7451TIP3    H143844   4.476   0.277  16.717  0.6916 -0.4232  2.2158
 7451TIP3    H243845   4.534   0.413  16.751  0.2853 -0.0454  1.4179
 7452TIP3   OH243846   6.793   1.881   1.029 -0.1051  0.0518  0.2847
 7452TIP3    H143847   6.857   1.950   1.017 -1.8407  1.6623  0.0654
 7452TIP3    H243848   6.842   1.800   1.017  1.7025  1.2641 -0.6639
 7453TIP3   OH243849   5.656   3.158  14.071 -0.3691 -0.5094  0.2547
 7453TIP3    H143850   5.573   3.204  14.061  0.7328  1.7263  1.2353
 7453TIP3    H243851   5.702   3.204  14.141  2.9883  0.1948 -2.2662
 7454TIP3   OH243852   2.495   4.294   0.299  0.5669  0.2540  0.2767
 7454TIP3    H143853   2.560   4.259   0.237  0.8522 -1.4076  1.4938
 7454TIP3    H243854   2.417   4.309   0.245  0.6713 -1.5842 -0.4267
 7455TIP3   OH243855   3.186   5.487   3.036 -0.1975  0.6164 -0.1819
 7455TIP3    H143856   3.222   5.403   3.065 -1.3123  0.6521  1.3791
 7455TIP3    H243857   3.232   5.551   3.091 -0.8201  0.8553  0.0595
 7456TIP3   OH243858   6.189   0.352  15.546  0.8776 -0.5843 -0.1808
 7456TIP3    H143859   6.231   0.388  15.624 -1.6272  1.3852  0.3128
 7456TIP3    H243860   6.195   0.421  15.481 -1.7329 -0.1377 -0.0217
 7457TIP3   OH243861   1.351   3.003  11.447 -0.4547  0.3189  0.4480
 7457TIP3    H143862   1.410   2.969  11.380  0.2919  0.2459  1.1431
 7457TIP3    H243863   1.355   3.098  11.438 -0.8639  0.2927 -0.0434
 7458TIP3   OH243864   5.841   1.603   2.352 -0.3531  0.4898 -0.6390
 7458TIP3    H143865   5.818   1.598   2.259 -2.7817 -2.2875  0.0347
 7458TIP3    H243866   5.936   1.590   2.354 -0.3010  0.4140 -2.7101
 7459TIP3   OH243867   1.709   2.701  13.134 -0.4936 -0.1644 -0.3753
 7459TIP3    H143868   1.766   2.640  13.087  1.3862  1.5399 -0.4186
 7459TIP3    H243869   1.718   2.676  13.226  0.7976  0.4153 -0.3222
 7460TIP3   OH243870   0.861   5.895   1.533 -0.0932 -0.0919  0.2137
 7460TIP3    H143871   0.873   5.951   1.457  1.4002  1.9033  1.8590
 7460TIP3    H243872   0.923   5.823   1.520 -0.6616 -0.3804 -0.9772
 7461TIP3   OH243873   1.911   4.791  12.849 -0.2362 -0.1758 -0.0407
 7461TIP3    H143874   1.905   4.756  12.761 -0.2745 -1.3787  0.4377
 7461TIP3    H243875   1.939   4.882  12.837  3.4323 -1.3671 -1.1114
 7462TIP3   OH243876   2.167   0.844   1.049  0.4439 -0.2884 -0.4203
 7462TIP3    H143877   2.131   0.811   0.967  1.9427 -1.6801 -0.5436
 7462TIP3    H243878   2.217   0.922   1.024 -2.1152  1.4457 -0.2930
 7463TIP3   OH243879   4.347   5.709  14.980  0.5468 -0.6976  0.7607
 7463TIP3    H143880   4.349   5.803  14.959  1.0005 -0.7388  0.6045
 7463TIP3    H243881   4.260   5.695  15.018 -0.0657 -0.4939 -0.5258
 7464TIP3   OH243882   5.539   4.708   3.206  0.2685  0.1508 -0.0636
 7464TIP3    H143883   5.509   4.794   3.177  1.9760  0.8642  0.2191
 7464TIP3    H243884   5.633   4.718   3.216  0.4132 -1.6193  0.4752
 7465TIP3   OH243885   3.367   0.610   2.469 -0.1461 -0.0079  0.0340
 7465TIP3    H143886   3.289   0.660   2.493 -1.9107 -2.5751 -0.2064
 7465TIP3    H243887   3.404   0.582   2.552 -1.6603 -1.9905  0.0793
 7466TIP3   OH243888   6.239   3.750  11.964  0.5903 -0.3117 -0.3673
 7466TIP3    H143889   6.194   3.667  11.981  0.6410  0.1033  1.9415
 7466TIP3    H243890   6.316   3.748  12.022 -0.7132  2.3863  1.5461
 7467TIP3   OH243891   1.789   4.595  11.217 -0.4040 -0.0424  0.2430
 7467TIP3    H143892   1.709   4.625  11.175 -0.8965 -0.9643  0.5148
 7467TIP3    H243893   1.853   4.591  11.146 -0.4735  1.1008  0.1004
 7468TIP3   OH243894   4.456   6.817   5.472 -0.3030 -0.3572 -0.0211
 7468TIP3    H143895   4.494   6.786   5.554 -0.9752 -1.2700 -0.0436
 7468TIP3    H243896   4.495   6.903   5.458 -0.2148 -0.1765  1.2815
 7469TIP3   OH243897   2.134   6.560   2.138 -0.3114 -0.5690  0.0748
 7469TIP3    H143898   2.195   6.488   2.122  0.6145 -0.0515  1.2142
 7469TIP3    H243899   2.169   6.604   2.215 -1.8318  0.0588  0.4223
 7470TIP3   OH243900   4.022   5.019  15.815 -0.1190 -0.1466  0.9256
 7470TIP3    H143901   3.948   5.029  15.755  2.5489 -1.9311 -2.8484
 7470TIP3    H243902   3.992   4.956  15.881 -2.0352 -0.6590 -0.4018
 7471TIP3   OH243903   3.102   0.303   3.536 -0.0286  0.3296  0.7138
 7471TIP3    H143904   3.041   0.376   3.548  0.5189  0.6757  1.4220
 7471TIP3    H243905   3.120   0.271   3.624  1.6569  0.9535  0.6242
 7472TIP3   OH243906   6.013   3.946   1.490 -0.1475 -0.1637  0.1550
 7472TIP3    H143907   5.996   3.924   1.398 -2.7665 -0.4046  0.6728
 7472TIP3    H243908   5.980   4.035   1.500 -2.8928 -1.3166  1.6459
 7473TIP3   OH243909   3.990   6.650   5.470 -0.1184  0.5637 -0.0390
 7473TIP3    H143910   4.065   6.624   5.417  1.5239  1.2141  1.8979
 7473TIP3    H243911   3.954   6.726   5.425  0.3467  0.2131 -1.0157
 7474TIP3   OH243912   5.851   5.266   3.088  0.0551 -0.5386 -0.5378
 7474TIP3    H143913   5.785   5.200   3.108 -0.2410 -0.1566 -0.2536
 7474TIP3    H243914   5.839   5.334   3.154  1.8186 -1.2311  0.5141
 7475TIP3   OH243915   6.194   3.832  15.707  0.4627 -0.1118  0.1844
 7475TIP3    H143916   6.251   3.837  15.630 -0.2785  0.4949 -0.3349
 7475TIP3    H243917   6.121   3.776  15.680 -0.2998  0.8942  0.1075
 7476TIP3   OH243918   0.437   5.123   2.015  0.1646 -0.2632 -0.0474
 7476TIP3    H143919   0.373   5.052   2.002  0.6049 -0.8354  0.8955
 7476TIP3    H243920   0.479   5.132   1.929 -0.0588 -0.9933 -0.2409
 7477TIP3   OH243921   3.422   2.115   0.466 -0.0750  0.3144  0.1647
 7477TIP3    H143922   3.393   2.142   0.378  1.0166  1.6245  0.2025
 7477TIP3    H243923   3.514   2.091   0.455  0.4806  1.8880  1.2318
 7478TIP3   OH243924   5.568   5.966  12.825 -0.2408  0.0940 -0.1101
 7478TIP3    H143925   5.514   6.009  12.759 -0.3336 -0.7166 -0.5797
 7478TIP3    H243926   5.653   5.955  12.782 -0.6753 -1.6192 -0.5978
 7479TIP3   OH243927   4.003   5.695  12.605  0.5579  0.0572 -0.2316
 7479TIP3    H143928   3.978   5.718  12.515 -1.2932 -1.1092 -0.0556
 7479TIP3    H243929   4.016   5.600  12.603  0.0237 -0.0494  0.8337
 7480TIP3   OH243930   4.707   5.317   5.190 -0.1681 -0.4565 -0.4788
 7480TIP3    H143931   4.732   5.388   5.249 -0.0489 -1.2565  0.4573
 7480TIP3    H243932   4.675   5.248   5.249 -2.4262 -0.3295 -1.5004
 7481TIP3   OH243933   5.886   5.681  12.558  0.4328  0.0992 -0.0539
 7481TIP3    H143934   5.845   5.691  12.472 -0.2769  0.0893  0.2777
 7481TIP3    H243935   5.980   5.691  12.542  0.4481 -1.5274 -1.0902
 7482TIP3   OH243936   0.097   0.041  11.556  0.1461 -0.2207 -0.9628
 7482TIP3    H143937   0.140   0.104  11.613  0.4584 -0.4401 -0.9530
 7482TIP3    H243938   0.145  -0.041  11.570 -0.1056 -0.4020 -1.1500
 7483TIP3   OH243939   2.238   1.913   1.802 -0.7781  0.5176 -0.3589
 7483TIP3    H143940   2.229   1.914   1.706 -0.8490  0.9427 -0.3489
 7483TIP3    H243941   2.322   1.956   1.818 -0.2144 -0.5886 -0.2862
 7484TIP3   OH243942   4.581   5.514   5.573  0.1665  0.0279 -0.0320
 7484TIP3    H143943   4.534   5.431   5.581 -0.5982  0.4709  0.0752
 7484TIP3    H243944   4.644   5.499   5.502 -0.9057 -0.2123 -0.9558
 7485TIP3   OH243945   6.809   5.545   1.678  0.1794 -0.4769 -0.2055
 7485TIP3    H143946   6.758   5.464   1.665 -1.0265  0.2325  0.0025
 7485TIP3    H243947   6.877   5.521   1.741  0.3670 -1.5537 -0.8003
 7486TIP3   OH243948   1.586   5.334   5.494 -0.3275 -0.1429  0.0774
 7486TIP3    H143949   1.589   5.260   5.434 -0.7698  0.5380 -0.7955
 7486TIP3    H243950   1.505   5.380   5.472  0.6262  1.3757 -0.3077
 7487TIP3   OH243951   5.161   6.103  16.100 -0.3054 -0.0353  0.2819
 7487TIP3    H143952   5.119   6.175  16.053 -0.7128 -0.2082  0.3760
 7487TIP3    H243953   5.254   6.114  16.083 -0.3777  0.4405  0.1912
 7488TIP3   OH243954   3.363   1.010  11.585 -0.2600 -0.4194  0.1392
 7488TIP3    H143955   3.293   1.073  11.566 -0.7002 -0.7621  0.6031
 7488TIP3    H243956   3.397   0.986  11.499 -1.3734 -0.9896 -0.1619
 7489TIP3   OH243957   4.440   5.067   4.893  0.5179  0.1186  0.3437
 7489TIP3    H143958   4.530   5.041   4.878  0.7607  1.0615  0.1613
 7489TIP3    H243959   4.428   5.058   4.988  1.2338  1.3587  0.5612
 7490TIP3   OH243960   0.958   5.886  14.119  0.0840  0.4345 -0.3153
 7490TIP3    H143961   0.876   5.931  14.099 -1.3278 -1.6265  0.6971
 7490TIP3    H243962   0.986   5.849  14.035 -0.1139  0.9224 -0.6037
 7491TIP3   OH243963   2.925   1.506   1.536 -0.1936 -0.5386 -0.2150
 7491TIP3    H143964   2.999   1.465   1.493 -0.0825  0.0952 -0.6420
 7491TIP3    H243965   2.941   1.600   1.527 -1.0086 -0.3938 -0.2531
 7492TIP3   OH243966   3.151   1.766  16.292 -0.3484 -0.2096 -0.3078
 7492TIP3    H143967   3.156   1.791  16.200 -0.5841  2.8481  0.4804
 7492TIP3    H243968   3.058   1.772  16.313 -0.2283 -0.3832  0.2762
 7493TIP3   OH243969   3.932   1.581  14.543  0.0689 -0.0249  1.2820
 7493TIP3    H143970   3.923   1.508  14.481  2.1500  1.2140 -0.5403
 7493TIP3    H243971   3.957   1.539  14.625  2.2314 -1.3519 -0.0006
 7494TIP3   OH243972   4.453   6.728   3.406 -0.0365 -0.3582 -0.1311
 7494TIP3    H143973   4.432   6.725   3.499 -0.0637  1.6410 -0.0447
 7494TIP3    H243974   4.380   6.684   3.363 -0.2764 -0.8376  0.7578
 7495TIP3   OH243975   2.317   5.157  15.095 -0.1165 -0.7981  0.5892
 7495TIP3    H143976   2.386   5.192  15.039 -0.3984  0.2708  0.9107
 7495TIP3    H243977   2.240   5.152  15.039  0.3350 -2.4744  0.0866
 7496TIP3   OH243978   6.220   4.697  16.651 -0.0534  0.3342 -0.3878
 7496TIP3    H143979   6.219   4.716  16.557  1.5040 -0.3681 -0.5663
 7496TIP3    H243980   6.199   4.780  16.693  1.1135  1.1067 -1.3137
 7497TIP3   OH243981   1.843   4.208  14.088  0.1320  0.0700  0.0620
 7497TIP3    H143982   1.847   4.244  13.999  1.7276  0.5615  0.3056
 7497TIP3    H243983   1.933   4.215  14.120 -0.4928  0.1830  1.8353
 7498TIP3   OH243984   1.613   1.878  16.865  0.0543  0.6892 -0.0041
 7498TIP3    H143985   1.609   1.943  16.935 -1.0808  0.9348 -0.2869
 7498TIP3    H243986   1.683   1.910  16.808 -0.2926  1.5181  0.0157
 7499TIP3   OH243987   2.377   3.138  13.365  0.2220  0.4103 -0.3882
 7499TIP3    H143988   2.320   3.202  13.409 -0.9710 -1.1406  0.3808
 7499TIP3    H243989   2.462   3.180  13.362 -0.3876  1.7861  0.7124
 7500TIP3   OH243990   1.572   6.246  14.139  0.1427  0.0938  0.7183
 7500TIP3    H143991   1.537   6.169  14.184  1.5088 -0.1065  1.4772
 7500TIP3    H243992   1.626   6.290  14.205  0.1342  1.1940  0.0130
 7501TIP3   OH243993   3.138   4.954  12.565 -0.3882 -0.1919  0.3615
 7501TIP3    H143994   3.176   5.005  12.494  2.6228  0.9443  2.6873
 7501TIP3    H243995   3.070   5.011  12.602  1.4749  1.3326  1.5484
 7502TIP3   OH243996   4.827   6.025   1.268 -0.5841 -0.1593 -0.3302
 7502TIP3    H143997   4.921   6.006   1.270 -0.1483  1.7772 -1.0631
 7502TIP3    H243998   4.807   6.054   1.357 -0.1072  1.1104 -0.6318
 7503TIP3   OH243999   1.648   1.641  12.167  0.0590  0.3541  0.0243
 7503TIP3    H144000   1.648   1.732  12.136 -2.1261  0.9335  1.6211
 7503TIP3    H244001   1.563   1.606  12.140  0.4430 -0.8948  0.3765
 7504TIP3   OH244002   0.080   6.185   2.815 -0.5289  0.0177  0.2918
 7504TIP3    H144003   0.141   6.257   2.802  0.2302 -0.8966 -1.4021
 7504TIP3    H244004   0.071   6.145   2.729 -1.5632 -1.4243  1.0355
 7505TIP3   OH244005   6.776   3.543   1.934 -0.1659 -0.7628 -0.4454
 7505TIP3    H144006   6.846   3.606   1.949  0.1233 -1.4666  1.2475
 7505TIP3    H244007   6.742   3.565   1.847  0.0190  1.6054  0.0556
 7506TIP3   OH244008   5.690   3.231   1.460  0.2482 -0.4877  0.3036
 7506TIP3    H144009   5.728   3.240   1.547  2.7498 -0.3276 -0.7522
 7506TIP3    H244010   5.756   3.268   1.401 -1.3045 -0.7721 -1.6832
 7507TIP3   OH244011   3.811   0.698  11.029 -0.5693  0.0702  0.0820
 7507TIP3    H144012   3.864   0.738  10.960  3.1564 -1.0732  2.1355
 7507TIP3    H244013   3.833   0.605  11.025 -1.2497 -0.1962  1.9627
 7508TIP3   OH244014   5.524   1.946  12.643 -0.3030 -0.4009  0.2723
 7508TIP3    H144015   5.597   2.007  12.647 -0.5668 -0.0763  0.2148
 7508TIP3    H244016   5.564   1.859  12.647  0.0482 -0.2170  0.6775
 7509TIP3   OH244017   1.543   0.509   2.718 -0.0068 -0.8251 -0.6243
 7509TIP3    H144018   1.576   0.599   2.713 -0.1882 -0.7787 -1.0636
 7509TIP3    H244019   1.448   0.518   2.706  0.0176 -1.1079 -1.0494
 7510TIP3   OH244020   5.501   2.259   4.641  0.1709  0.3482 -0.3112
 7510TIP3    H144021   5.577   2.238   4.696  0.0727  0.0744 -0.2765
 7510TIP3    H244022   5.467   2.341   4.676  1.0994  1.0390 -1.0127
 7511TIP3   OH244023   4.340   0.638   3.944 -0.6563 -0.0226 -0.2904
 7511TIP3    H144024   4.411   0.593   3.898 -0.6252 -0.2304 -0.0415
 7511TIP3    H244025   4.316   0.710   3.887 -0.1151  0.1597 -0.2900
 7512TIP3   OH244026   2.645   0.061   4.789 -0.2419  0.2961 -0.1639
 7512TIP3    H144027   2.727   0.034   4.831  0.8959  1.1215 -1.8532
 7512TIP3    H244028   2.606   0.124   4.850  0.5397  0.1645  0.4717
 7513TIP3   OH244029   1.083   1.973   3.426 -0.4943  0.0229  0.5028
 7513TIP3    H144030   1.070   2.049   3.482 -0.4936 -0.6167  1.3948
 7513TIP3    H244031   1.004   1.921   3.437  1.1190 -2.0520  3.0505
 7514TIP3   OH244032   0.051   1.912   2.911  0.4573 -0.5622 -0.2172
 7514TIP3    H144033   0.033   1.908   3.005 -1.4354 -1.7745 -0.6048
 7514TIP3    H244034   0.040   2.005   2.889 -1.8418 -0.6916  0.2624
 7515TIP3   OH244035   4.710   3.877  11.335  0.0574 -0.1394  0.1319
 7515TIP3    H144036   4.667   3.926  11.264 -0.9907 -0.9506  0.1894
 7515TIP3    H244037   4.801   3.906  11.333 -0.0701  0.1857 -1.2555
 7516TIP3   OH244038   2.621   4.087  14.238  0.5961 -0.3844  0.2337
 7516TIP3    H144039   2.584   4.176  14.243 -0.1947 -0.3565 -4.2015
 7516TIP3    H244040   2.716   4.100  14.242  0.4387  0.4566  1.5150
 7517TIP3   OH244041   3.175   3.093  12.354 -1.0341 -0.7786  0.2676
 7517TIP3    H144042   3.222   3.137  12.283 -0.4711 -0.7698  0.6400
 7517TIP3    H244043   3.106   3.044  12.310 -1.9634  0.8407 -0.1095
 7518TIP3   OH244044   2.727   2.452  15.542  0.0781 -0.0035 -0.1802
 7518TIP3    H144045   2.751   2.410  15.624  0.6468  1.7553  0.5662
 7518TIP3    H244046   2.680   2.383  15.493  0.0766 -1.1767  1.4243
 7519TIP3   OH244047   1.409   0.784  16.663 -0.0669  0.6116 -0.0998
 7519TIP3    H144048   1.414   0.789  16.568  1.2241 -0.5592 -0.1265
 7519TIP3    H244049   1.476   0.845  16.694  0.8643 -0.4495  0.0033
 7520TIP3   OH244050   2.813   6.711  13.667 -0.6358 -0.1347 -0.7731
 7520TIP3    H144051   2.753   6.768  13.716 -1.6474 -1.0414 -0.9311
 7520TIP3    H244052   2.756   6.645  13.628  0.4507 -0.8506 -1.1571
 7521TIP3   OH244053   2.862   6.428  13.465 -0.4022  0.2796 -0.1969
 7521TIP3    H144054   2.938   6.413  13.521  0.1202  1.6367 -0.5221
 7521TIP3    H244055   2.791   6.381  13.508 -0.2835  2.2088  2.2177
 7522TIP3   OH244056   4.629   5.412  16.124  1.2621  0.2321 -0.0302
 7522TIP3    H144057   4.566   5.455  16.181  0.8008 -1.5646  0.8482
 7522TIP3    H244058   4.650   5.477  16.057  0.9077  1.9472  1.5068
 7523TIP3   OH244059   4.105   3.696   5.616  0.0054  0.6605 -0.3693
 7523TIP3    H144060   4.112   3.638   5.541 -1.9302 -0.3146  0.1544
 7523TIP3    H244061   4.168   3.662   5.680  0.2096  0.2613 -0.7843
 7524TIP3   OH244062   0.958   2.425  13.228  1.0210  0.3664  0.6245
 7524TIP3    H144063   0.869   2.422  13.261  0.4022  0.0275 -1.0502
 7524TIP3    H244064   1.012   2.445  13.305 -0.4544  0.2562  1.6904
 7525TIP3   OH244065   4.575   0.377   5.155 -0.4036  0.5976  0.4105
 7525TIP3    H144066   4.537   0.464   5.162 -2.3541 -0.1203 -0.9537
 7525TIP3    H244067   4.561   0.338   5.242  0.2392  1.5231  0.9412
 7526TIP3   OH244068   1.340   3.692   2.828 -0.3246  0.0668 -0.1658
 7526TIP3    H144069   1.319   3.782   2.851  1.1651  0.6222 -0.9555
 7526TIP3    H244070   1.307   3.681   2.739  0.7116  0.2687 -0.5861
 7527TIP3   OH244071   6.301   4.520   0.112 -0.2265  0.1477 -0.3566
 7527TIP3    H144072   6.324   4.509   0.020 -0.7520 -0.3066 -0.4376
 7527TIP3    H244073   6.206   4.513   0.114 -0.3029  1.1875  0.0869
 7528TIP3   OH244074   0.117   3.367   4.687 -0.0096  0.1049 -0.3660
 7528TIP3    H144075   0.209   3.361   4.713  0.2131  2.1664 -0.6093
 7528TIP3    H244076   0.070   3.319   4.756  1.2404 -1.2476 -0.4181
 7529TIP3   OH244077   2.173   2.058   4.488 -0.5597  0.4348  0.4941
 7529TIP3    H144078   2.105   2.118   4.455 -0.0595  0.9104  0.3154
 7529TIP3    H244079   2.234   2.116   4.533 -0.7673 -0.1109  1.4670
 7530TIP3   OH244080   4.029   4.721  16.404  0.2735 -0.3664 -0.0300
 7530TIP3    H144081   3.978   4.733  16.484 -1.1492  1.0998 -1.1144
 7530TIP3    H244082   4.092   4.794  16.405  0.4993 -0.5623 -0.0617
 7531TIP3   OH244083   3.924   1.864  11.878 -0.2135  0.0519  0.2948
 7531TIP3    H144084   3.962   1.854  11.791 -1.2030  1.3215 -0.2923
 7531TIP3    H244085   3.924   1.775  11.914  1.5297 -0.2650 -0.4142
 7532TIP3   OH244086   4.240   1.020  12.187 -0.1725 -0.1694 -0.3071
 7532TIP3    H144087   4.314   1.007  12.246  0.4359 -0.7533 -1.1960
 7532TIP3    H244088   4.179   0.949  12.210 -0.4186  0.2422  0.3423
 7533TIP3   OH244089   6.329   4.510   2.884 -0.4067 -0.0808 -0.1744
 7533TIP3    H144090   6.383   4.587   2.869 -0.6875  0.1140 -0.2027
 7533TIP3    H244091   6.390   4.436   2.883 -0.2845  0.0322 -1.1940
 7534TIP3   OH244092   4.739   2.495  14.259 -0.1002 -0.0234 -0.5885
 7534TIP3    H144093   4.738   2.406  14.294 -1.7969  0.2469  0.0697
 7534TIP3    H244094   4.832   2.516  14.249  0.3050 -1.8952 -0.8224
 7535TIP3   OH244095   0.860   0.849  14.062 -0.5703  0.1896 -0.0334
 7535TIP3    H144096   0.921   0.922  14.048 -1.5855  1.3045  1.1805
 7535TIP3    H244097   0.774   0.887  14.048 -1.0442 -1.1960 -0.9869
 7536TIP3   OH244098   5.399   0.445  14.218  0.1018 -0.4847 -0.2090
 7536TIP3    H144099   5.389   0.477  14.307  0.3836  0.0482 -0.3609
 7536TIP3    H244100   5.353   0.510  14.164 -0.4979 -1.0734 -0.4038
 7537TIP3   OH244101   3.079   3.382   4.931  0.5650  0.8425 -0.7689
 7537TIP3    H144102   3.128   3.299   4.934  0.0700  0.5769  0.0976
 7537TIP3    H244103   3.056   3.392   4.839  0.4823 -0.0721 -0.8589
 7538TIP3   OH244104   0.960   0.687  14.488  0.2276  0.0629  0.8472
 7538TIP3    H144105   0.963   0.754  14.557  0.6645 -0.7244  1.5961
 7538TIP3    H244106   1.025   0.622  14.514  0.2792 -0.3241 -0.2294
 7539TIP3   OH244107   3.648   1.853  14.676 -0.0412  0.0299 -0.8212
 7539TIP3    H144108   3.600   1.875  14.596  0.1912 -1.5277 -1.4182
 7539TIP3    H244109   3.617   1.765  14.699  1.0458 -0.1763 -0.0747
 7540TIP3   OH244110   2.868   6.476  11.792  0.1082  0.0816  0.1697
 7540TIP3    H144111   2.842   6.385  11.774  3.0765 -0.4490 -1.7686
 7540TIP3    H244112   2.807   6.529  11.739 -1.9721 -0.6934  1.7093
 7541TIP3   OH244113   1.822   6.491   0.654 -0.0323  0.0029 -0.0709
 7541TIP3    H144114   1.741   6.493   0.603 -0.6055  1.5608  0.8660
 7541TIP3    H244115   1.891   6.481   0.589 -1.0756 -3.3915 -0.7397
 7542TIP3   OH244116   2.534   4.293  15.481  0.7145  0.8755 -0.7141
 7542TIP3    H144117   2.521   4.251  15.567  0.2416  0.4598 -0.9840
 7542TIP3    H244118   2.603   4.357  15.496  0.6800  0.7600 -0.0321
 7543TIP3   OH244119   0.726   0.985  16.136 -0.0753 -0.3594  0.1512
 7543TIP3    H144120   0.779   1.055  16.098  0.6699 -1.2884 -0.5703
 7543TIP3    H244121   0.788   0.931  16.184 -1.0294  0.8365  2.7862
 7544TIP3   OH244122   3.129   4.151   4.792 -0.2439 -0.7662 -0.7635
 7544TIP3    H144123   3.136   4.068   4.745 -0.4159  0.9828 -4.0025
 7544TIP3    H244124   3.198   4.205   4.754 -0.5368  0.7879  0.8848
 7545TIP3   OH244125   2.331   5.307  12.414 -0.2685 -0.2389  0.2358
 7545TIP3    H144126   2.401   5.278  12.472 -1.3367 -0.6155  1.3576
 7545TIP3    H244127   2.294   5.227  12.379  0.9148  0.0078 -1.6634
 7546TIP3   OH244128   3.578   0.100   3.768  0.1168  0.5454  0.1629
 7546TIP3    H144129   3.590   0.005   3.768  0.1427  0.5373 -0.7588
 7546TIP3    H244130   3.495   0.114   3.812 -0.5263 -0.0085 -0.8404
 7547TIP3   OH244131   2.909   5.681  15.279  0.1497 -0.1283 -0.3422
 7547TIP3    H144132   2.994   5.664  15.240  0.2767  1.8000 -0.9761
 7547TIP3    H244133   2.851   5.699  15.205 -0.5254 -0.2177  0.1510
 7548TIP3   OH244134   3.334   6.665   4.566 -0.1653  0.1516  0.7622
 7548TIP3    H144135   3.249   6.683   4.607 -0.2485 -1.5854  1.4256
 7548TIP3    H244136   3.398   6.680   4.636  0.2564  3.1572 -0.2222
 7549TIP3   OH244137   6.169   5.110   4.527  0.4189  0.0569  0.9963
 7549TIP3    H144138   6.107   5.181   4.515  2.2145  1.6226  0.8267
 7549TIP3    H244139   6.141   5.065   4.607 -0.1284  1.5731  1.6557
 7550TIP3   OH244140   1.609   2.126  16.535 -0.6211  0.5037 -0.1444
 7550TIP3    H144141   1.553   2.188  16.489 -0.4167  0.5177 -0.3728
 7550TIP3    H244142   1.663   2.087  16.467 -0.5422  0.2903  0.0408
 7551TIP3   OH244143   0.243   2.483  11.507 -0.0881 -0.1181  0.1231
 7551TIP3    H144144   0.314   2.453  11.563  0.5614 -0.0290 -0.6409
 7551TIP3    H244145   0.249   2.579  11.510  1.6671 -0.0932 -2.1991
 7552TIP3   OH244146   2.276   3.644  12.620  0.1430  0.1114 -0.5188
 7552TIP3    H144147   2.355   3.655  12.567  0.2401 -0.1113 -0.4222
 7552TIP3    H244148   2.225   3.577  12.574 -0.3427  0.7999 -0.9863
 7553TIP3   OH244149   1.099   6.568  12.989  0.3371 -0.1132  0.4452
 7553TIP3    H144150   1.126   6.644  13.041  1.3841  0.6612 -1.1828
 7553TIP3    H244151   1.182   6.525  12.965 -0.2551 -2.0171  1.6807
 7554TIP3   OH244152   5.247   1.404   4.459  0.0412 -0.1173 -0.3681
 7554TIP3    H144153   5.261   1.443   4.372  0.0149  0.5608 -0.0719
 7554TIP3    H244154   5.312   1.334   4.465  0.7377  0.5122 -0.5232
 7555TIP3   OH244155   1.184   1.485   0.647  0.2857  0.3787  0.1935
 7555TIP3    H144156   1.103   1.481   0.596 -0.5200 -1.0015  1.5395
 7555TIP3    H244157   1.248   1.436   0.596  0.0754  0.8488 -0.5223
 7556TIP3   OH244158   0.911   2.306  14.764 -0.0845  0.4770 -0.4741
 7556TIP3    H144159   0.830   2.306  14.814  0.2705  1.1978  0.1198
 7556TIP3    H244160   0.900   2.376  14.700  0.2243  0.8400 -0.1319
 7557TIP3   OH244161   2.195   1.437  13.088 -0.6764  0.1366  0.2411
 7557TIP3    H144162   2.113   1.406  13.126 -0.4157 -1.1508 -0.2442
 7557TIP3    H244163   2.260   1.423  13.157 -0.7593  0.6462  0.4234
 7558TIP3   OH244164   5.252   3.289   0.314  0.4398  0.2442  0.2301
 7558TIP3    H144165   5.170   3.242   0.333  0.5372  0.5560  1.4522
 7558TIP3    H244166   5.224   3.378   0.293  0.5022  0.5549  1.4029
 7559TIP3   OH244167   4.670   5.639  12.910  0.0109 -0.0716  0.7279
 7559TIP3    H144168   4.723   5.714  12.936 -0.6339  0.4657  0.5159
 7559TIP3    H244169   4.660   5.648  12.815  0.6434 -0.8943  0.5802
 7560TIP3   OH244170   3.077   1.046  11.880 -0.1003  0.4538  0.2419
 7560TIP3    H144171   3.107   1.135  11.897 -1.2894  1.0298 -0.5891
 7560TIP3    H244172   2.988   1.043  11.916 -0.4984 -0.0252 -0.7513
 7561TIP3   OH244173   0.413   4.477  11.703 -0.0802  0.1286 -0.9482
 7561TIP3    H144174   0.373   4.549  11.655  0.5567  0.4549 -1.0065
 7561TIP3    H244175   0.428   4.512  11.791 -1.1900 -0.4474 -0.5240
 7562TIP3   OH244176   5.794   6.682   1.077 -0.1315  0.1974 -0.1923
 7562TIP3    H144177   5.753   6.615   1.022 -1.8631  1.6001 -0.6483
 7562TIP3    H244178   5.883   6.650   1.092  0.1732 -0.5215 -3.2632
 7563TIP3   OH244179   1.527   3.457   1.301 -0.3599  0.4347  0.1358
 7563TIP3    H144180   1.579   3.447   1.221 -1.1166 -3.5940  0.0492
 7563TIP3    H244181   1.502   3.550   1.301  1.8229  1.1131 -2.9166
 7564TIP3   OH244182   0.251   2.575   2.303  0.5211  0.3477  0.1260
 7564TIP3    H144183   0.229   2.491   2.263  0.8650  0.1782  0.2831
 7564TIP3    H244184   0.183   2.590   2.368  0.6402  0.0281  0.3255
 7565TIP3   OH244185   1.807   3.373  15.742  0.0099  0.5596 -0.2125
 7565TIP3    H144186   1.844   3.314  15.808 -0.2808 -0.7576 -1.1975
 7565TIP3    H244187   1.715   3.381  15.767 -0.4130 -1.0341 -1.2271
 7566TIP3   OH244188   5.841   3.723   1.045  0.3741 -0.0593  0.5378
 7566TIP3    H144189   5.762   3.672   1.058  1.0822 -0.7159  2.4238
 7566TIP3    H244190   5.897   3.666   0.991 -0.3074  0.2821 -0.5382
 7567TIP3   OH244191   0.729   5.940  11.359 -0.3068  0.4002  0.1926
 7567TIP3    H144192   0.645   5.894  11.356 -0.7771  1.1647  1.3105
 7567TIP3    H244193   0.780   5.891  11.424  0.0865 -0.0041 -0.4154
 7568TIP3   OH244194   4.569   0.193  13.974  0.1129 -0.2601 -0.4836
 7568TIP3    H144195   4.582   0.285  13.953  0.6209 -0.1584  0.2560
 7568TIP3    H244196   4.587   0.147  13.892  3.4104  0.0318 -0.0002
 7569TIP3   OH244197   5.537   1.178   4.183 -0.2818 -0.3935 -0.3838
 7569TIP3    H144198   5.485   1.099   4.197 -0.8846 -0.1818 -1.3178
 7569TIP3    H244199   5.486   1.228   4.118  0.2892  0.5657 -0.1043
 7570TIP3   OH244200   3.563   3.624  11.286  0.4866 -0.5212  0.0735
 7570TIP3    H144201   3.520   3.541  11.308  1.0012 -0.6216  0.7364
 7570TIP3    H244202   3.657   3.606  11.298  0.8580 -0.8091 -3.0429
 7571TIP3   OH244203   1.131   6.328  14.574 -0.0823  0.2592  0.5477
 7571TIP3    H144204   1.223   6.314  14.550 -0.5723 -0.3761 -1.0224
 7571TIP3    H244205   1.123   6.423  14.582  1.0337  0.2428  2.0886
 7572TIP3   OH244206   1.836   1.889   3.629  0.0156 -0.0649 -0.8997
 7572TIP3    H144207   1.783   1.840   3.691 -0.3755 -0.7876 -1.7986
 7572TIP3    H244208   1.789   1.971   3.615 -0.3619 -0.2925 -0.9498
 7573TIP3   OH244209   4.949   4.367  11.616  0.6584 -0.8610 -0.3117
 7573TIP3    H144210   4.854   4.363  11.605  0.6957 -1.5073 -0.3990
 7573TIP3    H244211   4.978   4.430  11.550  0.4096 -1.4696 -1.0102
 7574TIP3   OH244212   6.079   4.352  15.795 -0.6871 -0.0628  0.2192
 7574TIP3    H144213   6.115   4.264  15.792 -0.1023  0.1546  0.8125
 7574TIP3    H244214   6.131   4.398  15.861 -1.1091  0.6697  0.0565
 7575TIP3   OH244215   0.608   3.946   0.810 -0.8294 -0.4214  0.9140
 7575TIP3    H144216   0.577   3.857   0.795 -0.0149 -0.8029  1.4998
 7575TIP3    H244217   0.659   3.967   0.732 -1.7627 -0.1302  0.3673
 7576TIP3   OH244218   5.632   5.712   4.562  0.0457  0.2949 -0.1882
 7576TIP3    H144219   5.618   5.658   4.484  0.2214  1.9808 -1.4166
 7576TIP3    H244220   5.727   5.712   4.574 -0.0574 -0.8109  0.6440
 7577TIP3   OH244221   1.937   6.370  13.853  0.1571  0.7067  0.5490
 7577TIP3    H144222   1.933   6.309  13.779  1.9906  2.1855 -0.8380
 7577TIP3    H244223   2.031   6.382  13.869 -0.1978  1.8901  1.8604
 7578TIP3   OH244224   6.199   4.961  16.751 -0.2589 -0.0846 -0.4219
 7578TIP3    H144225   6.113   4.988  16.784 -0.6893 -2.0851  0.2018
 7578TIP3    H244226   6.261   4.992  16.818 -0.6970 -0.3060  0.0943
 7579TIP3   OH244227   5.708   5.202   4.917  0.1183 -0.3848 -0.1902
 7579TIP3    H144228   5.660   5.138   4.969  0.3920  0.1530  0.7320
 7579TIP3    H244229   5.641   5.243   4.862 -0.0752 -1.3718 -0.7176
 7580TIP3   OH244230   5.367   5.523   2.743 -0.6420 -0.4467  0.0157
 7580TIP3    H144231   5.376   5.434   2.778 -0.9328  0.1274  1.5584
 7580TIP3    H244232   5.290   5.559   2.787 -0.2065  0.7657 -0.2000
 7581TIP3   OH244233   1.237   2.971  13.165  0.1594  0.1230 -0.0540
 7581TIP3    H144234   1.321   2.937  13.134  0.0359 -0.3728  0.1454
 7581TIP3    H244235   1.228   2.937  13.254 -0.2696  0.1366 -0.0897
 7582TIP3   OH244236   2.447   3.767   2.491  0.3181  0.0095  0.0141
 7582TIP3    H144237   2.379   3.802   2.549 -0.1740 -0.1726 -0.4472
 7582TIP3    H244238   2.508   3.721   2.550  0.2567  0.5093  0.4718
 7583TIP3   OH244239   2.728   6.475   3.903 -0.3775 -0.0807 -0.6915
 7583TIP3    H144240   2.768   6.561   3.887 -0.4112 -0.2535 -1.8048
 7583TIP3    H244241   2.694   6.480   3.992  0.1163  0.8709 -0.5497
 7584TIP3   OH244242   5.091   6.804   0.207 -0.6261 -0.0803 -0.6258
 7584TIP3    H144243   5.031   6.738   0.171 -0.3342 -0.1876 -0.9110
 7584TIP3    H244244   5.035   6.880   0.223 -1.0982 -0.5986  0.2916
 7585TIP3   OH244245   3.467   6.700   1.943  0.0527 -0.0862 -0.2692
 7585TIP3    H144246   3.522   6.732   2.014  0.1236 -0.3180 -0.2192
 7585TIP3    H244247   3.377   6.707   1.976  0.0935 -0.3231 -0.1026
 7586TIP3   OH244248   5.515   1.703   0.856 -0.1221  0.9826 -0.2264
 7586TIP3    H144249   5.594   1.738   0.814 -1.1336  1.9038 -1.3920
 7586TIP3    H244250   5.464   1.666   0.783  0.1364 -1.4455  0.7539
 7587TIP3   OH244251   1.093   1.370   0.147  0.4828 -0.5060 -0.1146
 7587TIP3    H144252   1.100   1.351   0.054 -0.7610  0.0234 -0.3089
 7587TIP3    H244253   1.045   1.295   0.183  0.2412 -0.3064 -0.0255
 7588TIP3   OH244254   3.650   0.858   1.190  0.0405 -0.5017 -0.1584
 7588TIP3    H144255   3.745   0.843   1.184  0.0344 -1.7561  2.2702
 7588TIP3    H244256   3.642   0.953   1.200  1.1553 -0.5053  0.9821
 7589TIP3   OH244257   6.609   6.500   4.041  0.2102  0.2719 -0.6960
 7589TIP3    H144258   6.597   6.530   3.951  1.2197  1.0610 -0.5743
 7589TIP3    H244259   6.546   6.551   4.092  0.8512  1.0651 -0.7052
 7590TIP3   OH244260   5.553   2.848   2.947 -0.0509 -0.4433 -0.1243
 7590TIP3    H144261   5.621   2.781   2.944  0.1860 -0.1371 -2.1867
 7590TIP3    H244262   5.573   2.898   3.026  1.2064 -1.3019  0.1222
 7591TIP3   OH244263   1.268   2.953  12.501 -0.0608  0.5225 -0.1258
 7591TIP3    H144264   1.359   2.925  12.509 -0.0768  0.7294  0.8895
 7591TIP3    H244265   1.258   2.979  12.409  0.3089 -1.5106 -0.7652
 7592TIP3   OH244266   2.266   1.964  12.304 -0.6045 -0.0311  0.4682
 7592TIP3    H144267   2.302   1.990  12.219 -1.3396  2.0874  0.7719
 7592TIP3    H244268   2.337   1.980  12.366  0.9594 -4.2755 -0.0196
 7593TIP3   OH244269   5.087   1.976  15.361  0.0962  0.4055  0.1858
 7593TIP3    H144270   5.032   1.994  15.285  1.1659  1.0474 -0.4533
 7593TIP3    H244271   5.172   1.952  15.324  1.2610  2.8332  1.1839
 7594TIP3   OH244272   1.547   4.164  16.845 -0.3230  0.0158  0.0159
 7594TIP3    H144273   1.526   4.257  16.840 -1.2935 -0.2252 -0.4091
 7594TIP3    H244274   1.466   4.120  16.823  0.2264 -0.9369 -0.1162
 7595TIP3   OH244275   0.056   4.171  13.967 -0.4238  0.1478 -0.1529
 7595TIP3    H144276   0.124   4.118  14.007  1.0358  1.1667 -1.2371
 7595TIP3    H244277   0.049   4.248  14.024 -1.0362 -0.1923  0.2383
 7596TIP3   OH244278   3.692   2.770   4.752 -0.0196 -0.1681 -0.2384
 7596TIP3    H144279   3.598   2.760   4.740 -0.2018  0.3547  0.6904
 7596TIP3    H244280   3.702   2.858   4.788  0.5115 -1.3955  2.8137
 7597TIP3   OH244281   2.963   3.935  16.047 -0.1930 -0.3456 -0.2220
 7597TIP3    H144282   2.999   4.022  16.067 -0.2782 -0.1732 -0.8134
 7597TIP3    H244283   2.938   3.900  16.132  0.6157 -0.1348  0.1033
 7598TIP3   OH244284   4.200   3.311  11.731 -0.3017  0.4149  0.2875
 7598TIP3    H144285   4.179   3.280  11.643 -1.9833  1.0042  0.4564
 7598TIP3    H244286   4.269   3.253  11.762 -0.5437 -0.5497 -0.9622
 7599TIP3   OH244287   6.559   2.410   2.378  0.2713  0.0271  0.4763
 7599TIP3    H144288   6.530   2.478   2.438  0.4098  0.6983 -0.2005
 7599TIP3    H244289   6.653   2.404   2.392  0.4790  0.9563 -0.4295
 7600TIP3   OH244290   6.319   4.684   2.132  0.1987  0.3955  0.4792
 7600TIP3    H144291   6.330   4.768   2.087 -0.8968  1.0530  1.4412
 7600TIP3    H244292   6.370   4.693   2.212 -0.8025  0.5512  1.1073
 7601TIP3   OH244293   0.630   5.698  16.302 -0.2736  0.2673  0.3425
 7601TIP3    H144294   0.574   5.737  16.369 -1.1413  1.3847 -1.0285
 7601TIP3    H244295   0.601   5.607  16.297 -1.9825  0.8560 -0.3943
 7602TIP3   OH244296   4.050   1.915  13.510 -0.4156  0.0343 -0.2805
 7602TIP3    H144297   4.090   1.864  13.581 -0.3259  1.5493  0.7914
 7602TIP3    H244298   4.109   1.989  13.498 -1.1814  0.5375 -0.9872
 7603TIP3   OH244299   6.375   0.566   6.360  0.2718 -0.1829 -0.3108
 7603TIP3    H144300   6.406   0.592   6.273  0.3749  0.0215 -0.2138
 7603TIP3    H244301   6.327   0.643   6.392  1.0496  0.0988  0.2060
 7604TIP3   OH244302   1.627   1.861   4.915  0.2687  0.1621  0.1479
 7604TIP3    H144303   1.560   1.831   4.977 -0.9631  1.0053 -0.7565
 7604TIP3    H244304   1.644   1.952   4.940 -0.7557  0.7354 -1.1695
 7605TIP3   OH244305   2.632   5.990  15.059 -0.4586 -0.3248 -0.1387
 7605TIP3    H144306   2.624   5.976  15.154  0.9016  0.8088  0.1621
 7605TIP3    H244307   2.673   6.077  15.051 -0.7838 -0.3055 -1.7695
 7606TIP3   OH244308   6.654   3.316   2.695 -0.4972  0.4622 -0.0247
 7606TIP3    H144309   6.688   3.231   2.723  0.1601  0.6709 -0.2005
 7606TIP3    H244310   6.657   3.314   2.600  0.1788  0.9526 -0.0160
 7607TIP3   OH244311   3.998   6.178   5.459  0.0688  0.1046  0.4052
 7607TIP3    H144312   4.088   6.208   5.472  0.5798 -1.1255 -0.2179
 7607TIP3    H244313   4.006   6.084   5.441 -1.3162  0.0308  0.0936
 7608TIP3   OH244314   4.869   6.060   2.119  0.0553 -0.3859  0.3308
 7608TIP3    H144315   4.858   6.117   2.194  0.7304 -0.5546  0.5649
 7608TIP3    H244316   4.923   5.988   2.151 -2.0900 -1.9845  0.4578
 7609TIP3   OH244317   2.117   1.129  13.885 -0.2206 -0.2718 -0.3699
 7609TIP3    H144318   2.195   1.124  13.940 -1.6345 -0.8804  1.6309
 7609TIP3    H244319   2.108   1.222  13.865  1.5492 -0.3023 -1.4443
 7610TIP3   OH244320   0.625   0.176   0.579  0.6343  0.2743  0.3353
 7610TIP3    H144321   0.570   0.225   0.518  0.0026 -0.0916  0.6173
 7610TIP3    H244322   0.705   0.158   0.529 -0.2489 -0.8425 -0.7051
 7611TIP3   OH244323   2.219   2.163   3.288  0.1925 -0.3738 -0.2503
 7611TIP3    H144324   2.231   2.254   3.315 -2.0115  0.1045 -0.7543
 7611TIP3    H244325   2.210   2.167   3.193  2.3708 -1.4038 -0.5208
 7612TIP3   OH244326   6.562   6.807   1.552 -0.0512 -0.3113 -0.2908
 7612TIP3    H144327   6.618   6.826   1.628  2.3651 -3.2426 -1.2298
 7612TIP3    H244328   6.544   6.892   1.513  0.5740  1.0246  2.2504
 7613TIP3   OH244329   5.262   3.834  14.739  0.2983 -0.0611 -0.0015
 7613TIP3    H144330   5.290   3.925  14.753  0.6026 -0.1759  0.1374
 7613TIP3    H244331   5.288   3.788  14.819  0.2279 -0.2886 -0.1082
 7614TIP3   OH244332   2.587   1.031   4.572 -0.0023 -0.1482  0.3125
 7614TIP3    H144333   2.589   1.034   4.667  0.2498 -1.6815  0.3578
 7614TIP3    H244334   2.629   1.113   4.545 -0.4002  0.4619  1.5021
 7615TIP3   OH244335   4.364   1.433  14.084 -0.3882  0.3227  0.8240
 7615TIP3    H144336   4.402   1.352  14.052 -3.5672 -0.6536 -0.6911
 7615TIP3    H244337   4.338   1.414  14.174  0.6045  0.2803  1.1033
 7616TIP3   OH244338   1.583   1.593   2.156 -0.0979  0.5400  0.0461
 7616TIP3    H144339   1.617   1.515   2.199  0.4546  0.5848 -0.3041
 7616TIP3    H244340   1.505   1.564   2.109  0.2999  0.1316 -0.3608
 7617TIP3   OH244341   0.693   2.117   3.501 -0.3804  0.0571 -0.1131
 7617TIP3    H144342   0.598   2.116   3.514 -0.1941 -0.4358  1.2371
 7617TIP3    H244343   0.704   2.125   3.406 -1.7709  0.1165 -0.2742
 7618TIP3   OH244344   0.220   4.857  16.059  0.6177 -0.2379  0.5903
 7618TIP3    H144345   0.139   4.814  16.086  0.0706  0.2661 -0.2214
 7618TIP3    H244346   0.206   4.878  15.966  0.8833  1.6877  0.9761
 7619TIP3   OH244347   3.734   4.660   1.498  0.3817 -0.2786 -0.2478
 7619TIP3    H144348   3.669   4.668   1.568 -0.4419  1.2115 -1.1527
 7619TIP3    H244349   3.691   4.698   1.421  1.4179 -1.5173 -1.4713
 7620TIP3   OH244350   0.091   6.511  16.055 -0.6449  0.0011 -0.0926
 7620TIP3    H144351   0.155   6.552  15.997 -0.4978  0.5221  0.4302
 7620TIP3    H244352   0.141   6.446  16.104 -0.5857  0.1896  0.0938
 7621TIP3   OH244353   2.938   4.978  10.649 -0.2460 -0.6880  0.3043
 7621TIP3    H144354   2.995   4.923  10.596  1.0916 -0.2740  1.2577
 7621TIP3    H244355   2.999   5.025  10.707 -1.4886  0.5895  0.5800
 7622TIP3   OH244356   0.135   1.469  14.498 -0.2932  0.3556 -0.2809
 7622TIP3    H144357   0.116   1.480  14.405  2.4018 -1.2754 -1.0498
 7622TIP3    H244358   0.155   1.558  14.529 -0.7007  0.8282 -1.3647
 7623TIP3   OH244359   4.722   1.809  15.643 -0.6564 -0.4430 -0.1428
 7623TIP3    H144360   4.665   1.733  15.654  0.3773 -1.2078  0.0507
 7623TIP3    H244361   4.779   1.786  15.570  2.5902 -1.7522  2.6854
 7624TIP3   OH244362   4.586   5.603  15.872  0.2811 -0.2175  0.4420
 7624TIP3    H144363   4.640   5.665  15.920  1.6057  0.1136 -1.4091
 7624TIP3    H244364   4.498   5.639  15.877  0.3210 -0.3952  2.9016
 7625TIP3   OH244365   1.780   1.017  11.496  0.5556 -0.0925  0.2394
 7625TIP3    H144366   1.687   1.030  11.512  0.5110 -1.2118  0.9425
 7625TIP3    H244367   1.784   0.977  11.409  0.2350 -1.8867  1.0257
 7626TIP3   OH244368   6.041   6.512  16.304  0.3083  0.5161  0.1380
 7626TIP3    H144369   6.080   6.576  16.244  0.7115  0.9445  0.8593
 7626TIP3    H244370   6.104   6.441  16.309  0.0047  0.1978 -0.4098
 7627TIP3   OH244371   1.358   1.670   4.000 -0.2517 -0.3440 -0.1179
 7627TIP3    H144372   1.275   1.637   3.965  0.5082 -1.9799 -0.4067
 7627TIP3    H244373   1.412   1.686   3.923  0.6450 -1.8608  0.1729
 7628TIP3   OH244374   0.764   6.032  13.313  0.1108 -0.4551  0.4347
 7628TIP3    H144375   0.710   6.014  13.389 -0.8945  0.3137 -0.0924
 7628TIP3    H244376   0.840   6.078  13.348 -1.0319  1.1905  0.8018
 7629TIP3   OH244377   4.578   1.307   5.303  0.0631  0.3766 -0.1845
 7629TIP3    H144378   4.523   1.345   5.371 -1.1965  0.9402 -1.4727
 7629TIP3    H244379   4.521   1.304   5.226  0.3460 -3.4503 -0.3405
 7630TIP3   OH244380   4.536   1.814   3.030  0.3684 -0.1367 -0.0118
 7630TIP3    H144381   4.480   1.794   2.955  3.3455  0.9154 -2.6723
 7630TIP3    H244382   4.536   1.910   3.035  1.3179 -0.1479  0.3789
 7631TIP3   OH244383   2.212   5.375   6.721 -0.0798 -0.6003  0.2023
 7631TIP3    H144384   2.128   5.329   6.724  0.7694 -2.0754  2.2382
 7631TIP3    H244385   2.276   5.307   6.706  0.9298  0.3151  0.3073
 7632TIP3   OH244386   2.265   4.661   6.942  0.1336  0.1627  0.5780
 7632TIP3    H144387   2.348   4.704   6.921  1.5413 -0.5852  4.2006
 7632TIP3    H244388   2.199   4.729   6.929  1.7104  1.8059  0.9290
 7633TIP3   OH244389   6.379   1.621   2.441 -0.0355 -0.2110  0.2003
 7633TIP3    H144390   6.346   1.620   2.531  2.1665 -1.3795  1.0414
 7633TIP3    H244391   6.388   1.714   2.420 -0.5668  0.0753  1.2071
 7634TIP3   OH244392   5.368   6.334   2.485 -0.1710 -0.0422 -0.4280
 7634TIP3    H144393   5.367   6.413   2.538 -0.8549 -0.3922  0.0904
 7634TIP3    H244394   5.298   6.280   2.521  0.7329 -1.1786 -0.3240
 7635TIP3   OH244395   0.204   6.745  14.706  0.5109 -0.3662 -0.1003
 7635TIP3    H144396   0.229   6.741  14.614  0.3484 -0.3214 -0.1464
 7635TIP3    H244397   0.125   6.799  14.707  0.1020 -0.9619 -0.0257
 7636TIP3   OH244398   0.434   4.917   2.342 -0.7525  0.2013  0.0147
 7636TIP3    H144399   0.439   4.854   2.270 -1.2805  0.9306 -0.6667
 7636TIP3    H244400   0.484   4.876   2.413 -1.2616 -1.0782 -0.3462
 7637TIP3   OH244401   2.568   5.528  15.713  0.5724  0.0409  0.3825
 7637TIP3    H144402   2.648   5.481  15.734  1.0556  0.2491 -0.9756
 7637TIP3    H244403   2.565   5.531  15.618 -0.5572  0.8683  0.4250
 7638TIP3   OH244404   5.985   0.788   1.635  0.5680  0.3027 -0.1543
 7638TIP3    H144405   5.951   0.878   1.635 -0.5866 -0.1177  1.3098
 7638TIP3    H244406   5.980   0.761   1.543 -2.5966  0.4559 -0.0781
 7639TIP3   OH244407   0.175   6.443   0.434  0.5606  0.1328 -0.4408
 7639TIP3    H144408   0.200   6.393   0.512  1.3557  1.3401  0.0801
 7639TIP3    H244409   0.106   6.390   0.393 -0.0485 -0.3703  1.2158
 7640TIP3   OH244410   0.350   6.614  15.983  0.1678  0.2335 -0.4476
 7640TIP3    H144411   0.384   6.692  15.939  0.8496  0.1322 -0.1010
 7640TIP3    H244412   0.385   6.619  16.072  0.1657 -0.4377 -0.4080
 7641TIP3   OH244413   0.718   0.551   3.095 -0.0202  0.1343  0.6294
 7641TIP3    H144414   0.740   0.634   3.053 -0.4513  0.5508  1.2148
 7641TIP3    H244415   0.637   0.569   3.143 -0.7424 -0.9215 -0.1554
 7642TIP3   OH244416   4.212   1.909  16.678  0.3109  0.5484  0.0890
 7642TIP3    H144417   4.243   1.827  16.718 -0.3396 -0.0701 -0.6502
 7642TIP3    H244418   4.122   1.891  16.653  1.0753  0.4518 -2.8302
 7643TIP3   OH244419   1.443   3.191   3.045  0.0975 -0.5627 -0.1122
 7643TIP3    H144420   1.484   3.195   3.132 -0.1233  1.2207 -0.0776
 7643TIP3    H244421   1.498   3.130   2.996  0.2738 -1.5300  1.2463
 7644TIP3   OH244422   1.182   1.988   2.462  0.4651 -0.8661 -0.1997
 7644TIP3    H144423   1.216   1.902   2.438  1.6400 -0.5070  0.1446
 7644TIP3    H244424   1.260   2.044   2.469 -0.1314 -0.1696  1.1947
 7645TIP3   OH244425   4.626   2.323  16.614  0.5455  0.3665 -0.4307
 7645TIP3    H144426   4.676   2.292  16.690  0.2210 -1.3222 -0.8939
 7645TIP3    H244427   4.583   2.245  16.579 -1.4836  1.5901 -0.7542
 7646TIP3   OH244428   4.163   2.474   2.789  0.5490 -0.3783 -0.3975
 7646TIP3    H144429   4.234   2.455   2.727 -0.8493 -1.1906 -1.8038
 7646TIP3    H244430   4.142   2.389   2.827  0.6576 -0.0581  0.3798
 7647TIP3   OH244431   2.813   5.519  13.928 -0.1641  0.1589  0.5266
 7647TIP3    H144432   2.834   5.575  13.853  0.6068 -0.1311  0.5205
 7647TIP3    H244433   2.748   5.458  13.895  1.1369 -0.8164 -0.2939
 7648TIP3   OH244434   6.139   1.961   1.679 -0.2027 -0.0311  0.1634
 7648TIP3    H144435   6.052   2.001   1.688  0.6123  1.5149  1.5006
 7648TIP3    H244436   6.149   1.945   1.585 -0.8945  2.1923 -0.3108
 7649TIP3   OH244437   3.882   5.368  16.902 -0.2410  0.1662 -0.1806
 7649TIP3    H144438   3.816   5.393  16.966 -0.5981  1.3317 -0.9847
 7649TIP3    H244439   3.953   5.432  16.914  0.7120 -1.0231  0.6152
 7650TIP3   OH244440   5.234   0.822  12.300  0.1578 -0.0393 -0.7480
 7650TIP3    H144441   5.192   0.814  12.386  0.3628  1.3155 -0.5100
 7650TIP3    H244442   5.161   0.824  12.238 -0.1743  2.5305 -0.3169
 7651TIP3   OH244443   0.335   1.782  12.586 -0.6617  0.0583 -0.0137
 7651TIP3    H144444   0.413   1.799  12.533  1.4776  0.4083  3.1362
 7651TIP3    H244445   0.336   1.687  12.601  0.0227  0.2685  1.3025
 7652TIP3   OH244446   3.864   0.764  12.547  0.0021  0.0397  0.4149
 7652TIP3    H144447   3.892   0.829  12.612 -0.1756  0.0877  0.4438
 7652TIP3    H244448   3.923   0.690  12.559 -0.0028  0.0667  0.6005
 7653TIP3   OH244449   3.592   3.991   3.182  0.0616 -0.5076 -0.3791
 7653TIP3    H144450   3.555   4.035   3.258  1.5900  0.1041  0.0219
 7653TIP3    H244451   3.586   4.056   3.112 -0.5090 -0.7572 -0.5705
 7654TIP3   OH244452   5.223   5.402  11.752  0.4665 -0.3727  0.0639
 7654TIP3    H144453   5.270   5.460  11.692  0.3861 -1.2486 -0.8546
 7654TIP3    H244454   5.287   5.383  11.821 -0.3531  2.9645  1.8551
 7655TIP3   OH244455   2.727   4.616   3.349  0.4204 -0.2493  0.6229
 7655TIP3    H144456   2.688   4.690   3.302  0.0643 -0.2674  0.8913
 7655TIP3    H244457   2.821   4.636   3.351  0.7498 -1.3614 -2.0836
 7656TIP3   OH244458   5.805   6.474  15.111  0.2584  0.0652 -0.0440
 7656TIP3    H144459   5.760   6.398  15.148 -0.5635  0.3816 -0.3781
 7656TIP3    H244460   5.865   6.502  15.180 -0.3348 -0.1251  0.5531
 7657TIP3   OH244461   4.299   6.500  13.734  0.5264  0.3051  0.3920
 7657TIP3    H144462   4.352   6.553  13.793 -1.3465  1.9059  0.6956
 7657TIP3    H244463   4.305   6.544  13.649 -1.6259  1.5078  0.8109
 7658TIP3   OH244464   1.979   1.864   6.004 -0.2279 -0.6313  0.2835
 7658TIP3    H144465   2.011   1.786   5.960 -1.2109 -0.3572 -0.9552
 7658TIP3    H244466   1.888   1.873   5.974 -0.7740 -0.1607  1.9975
 7659TIP3   OH244467   5.539   4.856   5.923  0.3435  0.2062  0.1517
 7659TIP3    H144468   5.500   4.811   5.998  2.4990 -0.4565  0.9290
 7659TIP3    H244469   5.498   4.943   5.923 -2.6298 -1.1303 -0.3619
 7660TIP3   OH244470   0.373   2.146  13.461  0.0901 -0.2242  0.3401
 7660TIP3    H144471   0.354   2.153  13.554 -0.1025 -1.1393  0.3714
 7660TIP3    H244472   0.308   2.202  13.419 -0.5863 -0.7537  0.6730
 7661TIP3   OH244473   1.921   0.539  12.417 -0.4258 -0.0071  0.3332
 7661TIP3    H144474   1.936   0.453  12.376 -0.8402 -0.3271  0.8375
 7661TIP3    H244475   2.008   0.575  12.431 -0.2324 -0.5307  0.4876
 7662TIP3   OH244476   2.820   3.528  13.835 -0.0211  0.0566  0.4496
 7662TIP3    H144477   2.885   3.598  13.842  0.3941 -0.1675 -0.9897
 7662TIP3    H244478   2.832   3.476  13.914 -0.3259  1.5817  1.5414
 7663TIP3   OH244479   1.256   3.703  15.790  0.2265 -0.5971  0.6712
 7663TIP3    H144480   1.265   3.794  15.761 -1.2976 -0.4921  0.4544
 7663TIP3    H244481   1.332   3.658  15.754 -0.0773  0.1709 -0.9856
 7664TIP3   OH244482   5.471   0.063   6.327  0.3078  0.6388  0.3680
 7664TIP3    H144483   5.562   0.087   6.310 -0.1711  2.5045  0.3418
 7664TIP3    H244484   5.475   0.000   6.399  1.6869 -0.2405 -0.4498
 7665TIP3   OH244485   6.292   3.345  16.226  0.0351 -0.0174  0.2015
 7665TIP3    H144486   6.345   3.307  16.157 -1.3181 -1.2331 -0.1723
 7665TIP3    H244487   6.348   3.414  16.263  0.9924  0.2430 -1.6754
 7666TIP3   OH244488   5.592   5.218  12.345  0.3172 -0.4380  0.6096
 7666TIP3    H144489   5.595   5.124  12.324 -0.7884 -0.0976 -1.1787
 7666TIP3    H244490   5.510   5.228  12.393 -0.1296 -0.2173 -0.1846
 7667TIP3   OH244491   2.192   1.414  16.321  0.2289  0.1864  0.0286
 7667TIP3    H144492   2.279   1.455  16.314 -0.1962  1.0604 -0.1896
 7667TIP3    H244493   2.144   1.471  16.380 -0.6546  0.4799 -0.9725
 7668TIP3   OH244494   1.104   3.088  16.316  0.5470  0.2354  0.1375
 7668TIP3    H144495   1.121   3.085  16.222  0.5285  1.4900  0.0834
 7668TIP3    H244496   1.141   3.007  16.350 -0.0803 -0.5603 -1.0547
 7669TIP3   OH244497   3.807   4.747  17.021 -0.3264 -0.5029  0.1715
 7669TIP3    H144498   3.823   4.797  17.101  0.0496 -3.0002  1.7273
 7669TIP3    H244499   3.722   4.705  17.035  0.7221 -2.7084  0.2725
 7670TIP3   OH244500   4.100   5.801  13.307 -0.4821  0.6464 -0.1842
 7670TIP3    H144501   4.020   5.786  13.357 -0.0553 -3.0070 -0.3900
 7670TIP3    H244502   4.071   5.800  13.215 -0.3233 -0.1714 -0.2367
 7671TIP3   OH244503   0.598   2.104   1.673 -0.1202  0.1631  0.6285
 7671TIP3    H144504   0.513   2.121   1.715 -0.2649  0.4881  0.2068
 7671TIP3    H244505   0.624   2.018   1.706 -2.8345 -2.1557 -2.7855
 7672TIP3   OH244506   3.383   6.470  13.976 -0.0842  0.6043  0.1091
 7672TIP3    H144507   3.420   6.474  13.888 -1.2361  0.8040 -0.3726
 7672TIP3    H244508   3.383   6.377  13.998 -0.3739  0.5000 -0.3420
 7673TIP3   OH244509   5.881   3.813  17.109  0.3105 -0.1847 -0.0585
 7673TIP3    H144510   5.805   3.870  17.108  0.8155  0.4973  0.4377
 7673TIP3    H244511   5.886   3.779  17.198  1.9534  1.6268  0.5755
 7674TIP3   OH244512   3.121   5.555  16.787  0.7557 -0.2026  0.2278
 7674TIP3    H144513   3.138   5.605  16.867  1.1353 -2.3153  1.5401
 7674TIP3    H244514   3.208   5.536  16.752  0.6344 -0.2665 -0.0421
 7675TIP3   OH244515   0.929   3.368  12.403 -0.2456 -0.4504  0.5454
 7675TIP3    H144516   0.926   3.273  12.401 -0.0931 -0.4469 -1.0338
 7675TIP3    H244517   1.021   3.390  12.394 -0.5186 -0.1700 -2.2568
 7676TIP3   OH244518   5.121   0.729  14.225  0.4696  0.3291 -0.2673
 7676TIP3    H144519   5.122   0.648  14.174  2.6758  0.6035 -0.7283
 7676TIP3    H244520   5.161   0.705  14.309 -0.6183  0.5259  0.3219
 7677TIP3   OH244521   1.944   4.729  11.710  0.0761 -0.4223 -0.5284
 7677TIP3    H144522   1.937   4.824  11.725 -1.1015 -0.6593  0.5427
 7677TIP3    H244523   2.011   4.701  11.772  0.6632 -0.2320 -1.0817
 7678TIP3   OH244524   6.113   2.571  11.572  0.2337 -0.4824 -0.2252
 7678TIP3    H144525   6.157   2.608  11.496 -0.5231 -0.2036 -0.5383
 7678TIP3    H244526   6.166   2.597  11.647 -0.3696  1.3811 -0.4207
 7679TIP3   OH244527   1.704   3.793   0.721  0.4057 -0.1165  0.5003
 7679TIP3    H144528   1.658   3.779   0.639  1.5587 -1.2321  0.0166
 7679TIP3    H244529   1.659   3.736   0.784 -0.3891  0.6318  0.6114
 7680TIP3   OH244530   3.517   2.422   2.843  0.4398 -0.5047  0.2239
 7680TIP3    H144531   3.596   2.456   2.800  1.7011  0.1813  2.9704
 7680TIP3    H244532   3.548   2.348   2.896 -1.1048 -1.4708 -0.1746
 7681TIP3   OH244533   3.916   0.988  14.100 -0.4117 -0.3201 -0.1165
 7681TIP3    H144534   3.944   0.979  14.192  2.3335 -1.5511 -1.0238
 7681TIP3    H244535   3.950   1.073  14.074  0.3835 -0.7483 -0.4985
 7682TIP3   OH244536   3.889   5.279   5.279 -0.1332  0.6379  0.3512
 7682TIP3    H144537   3.929   5.358   5.242 -0.5606  0.7193  0.0582
 7682TIP3    H244538   3.954   5.246   5.341  1.3954 -0.5365 -1.8149
 7683TIP3   OH244539   0.183   0.889  13.546  0.7779  0.5522 -0.2971
 7683TIP3    H144540   0.095   0.921  13.525  0.8235  1.8457  1.3799
 7683TIP3    H244541   0.199   0.921  13.635  2.5469 -0.5450 -0.2041
 7684TIP3   OH244542   4.499   2.707   3.190 -0.8001 -0.0562 -0.2993
 7684TIP3    H144543   4.487   2.762   3.267 -2.5923 -0.9989  0.1134
 7684TIP3    H244544   4.444   2.747   3.123 -1.4606 -0.8542 -0.2416
 7685TIP3   OH244545   1.615   3.815  16.562 -0.4554  0.0184 -0.2101
 7685TIP3    H144546   1.662   3.799  16.643 -1.3739 -0.7846  0.1726
 7685TIP3    H244547   1.580   3.729  16.537  0.5531  0.0705 -1.9226
 7686TIP3   OH244548   1.230   6.709   4.252  0.3176  0.0009 -0.0550
 7686TIP3    H144549   1.196   6.795   4.230  2.4935  0.8833 -0.0526
 7686TIP3    H244550   1.231   6.661   4.170  0.9496  0.6378 -0.4196
 7687TIP3   OH244551   1.699   2.305  13.255 -0.6440 -0.1029  0.0946
 7687TIP3    H144552   1.773   2.339  13.204 -0.7715 -0.2285 -0.1710
 7687TIP3    H244553   1.684   2.217  13.220  0.2369 -0.7795  1.3495
 7688TIP3   OH244554   6.230   4.646  15.098 -0.0751  0.3227 -0.2829
 7688TIP3    H144555   6.178   4.711  15.146  1.0615  0.4894  0.7477
 7688TIP3    H244556   6.316   4.649  15.140  0.2446 -1.2127 -0.8140
 7689TIP3   OH244557   2.379   1.449  16.884 -0.7341 -0.8251  0.1174
 7689TIP3    H144558   2.358   1.498  16.804 -1.7467  1.3316  1.6695
 7689TIP3    H244559   2.402   1.516  16.948 -0.4292 -2.5033  1.8087
 7690TIP3   OH244560   0.819   1.007  11.486  0.0180  0.2649  0.1896
 7690TIP3    H144561   0.865   0.995  11.403 -0.0299 -1.2223  0.3636
 7690TIP3    H244562   0.832   0.924  11.533 -0.5398  0.8350  1.3748
 7691TIP3   OH244563   5.250   5.813  11.926  0.2133  0.2707 -0.4857
 7691TIP3    H144564   5.181   5.798  11.861  0.3813  0.4039 -0.6949
 7691TIP3    H244565   5.214   5.777  12.007 -0.0817  0.2898 -0.6053
 7692TIP3   OH244566   4.201   5.221  12.484  0.2170  0.2335 -0.5913
 7692TIP3    H144567   4.280   5.222  12.429  1.2331 -1.5824  0.7814
 7692TIP3    H244568   4.149   5.149  12.449 -0.3399  0.7483 -0.8194
 7693TIP3   OH244569   1.331   2.346   1.408 -0.1199 -0.1865  0.5069
 7693TIP3    H144570   1.352   2.267   1.458  1.9591 -0.5948 -0.9516
 7693TIP3    H244571   1.399   2.409   1.432  0.0551  0.0945 -0.6818
 7694TIP3   OH244572   4.007   4.028   4.808 -0.0548  0.6306  0.2249
 7694TIP3    H144573   3.960   4.004   4.728  0.2223 -1.5088  0.6839
 7694TIP3    H244574   4.100   4.025   4.783  0.0464 -0.3507  0.6946
 7695TIP3   OH244575   4.615   4.601   0.909  0.3149 -0.3416  0.3345
 7695TIP3    H144576   4.595   4.630   0.820 -0.9564 -3.1978 -0.3826
 7695TIP3    H244577   4.616   4.681   0.961 -0.8004  1.1832 -1.9104
 7696TIP3   OH244578   5.203   1.394   1.298 -0.0010 -0.3288  0.1124
 7696TIP3    H144579   5.277   1.338   1.320 -0.4990 -1.0997 -0.1791
 7696TIP3    H244580   5.126   1.348   1.332 -0.7375 -1.3032 -2.7539
 7697TIP3   OH244581   0.030   5.924   3.755  0.0651  0.1141  0.0415
 7697TIP3    H144582   0.005   5.924   3.662  0.7474 -0.9181 -0.1442
 7697TIP3    H244583   0.104   5.984   3.759 -0.0006  0.2039 -0.0669
 7698TIP3   OH244584   3.062   0.120   4.731  0.0824  0.4781  0.4819
 7698TIP3    H144585   3.013   0.098   4.811  0.3587 -0.4103  0.4100
 7698TIP3    H244586   3.021   0.201   4.700  0.0862  0.9242  1.6165
 7699TIP3   OH244587   2.377   0.904  12.290  0.4501 -0.4315 -0.1607
 7699TIP3    H144588   2.424   0.848  12.351  0.1378  0.0592  0.5276
 7699TIP3    H244589   2.439   0.918  12.218  0.8638 -0.8870  0.1050
 7700TIP3   OH244590   4.312   5.788   0.257 -0.1675 -0.0931 -0.0062
 7700TIP3    H144591   4.344   5.860   0.202  0.3040 -1.3241 -1.3634
 7700TIP3    H244592   4.224   5.814   0.282  0.5655  1.6807  0.8013
 7701TIP3   OH244593   0.544   1.244  13.139  0.3966  0.6563  0.7507
 7701TIP3    H144594   0.593   1.245  13.057  1.4509 -1.1635  1.3118
 7701TIP3    H244595   0.559   1.156  13.174 -3.3348  0.0016  0.9235
 7702TIP3   OH244596   6.191   5.453  16.887  0.1171  0.0359  0.5050
 7702TIP3    H144597   6.178   5.359  16.897 -1.1102  0.1241 -0.2718
 7702TIP3    H244598   6.253   5.462  16.815  0.6476 -0.1808  0.9239
 7703TIP3   OH244599   4.066   4.929   0.157  0.0183 -0.0422  0.0860
 7703TIP3    H144600   4.140   4.870   0.140 -1.0891 -1.8285  1.2948
 7703TIP3    H244601   4.100   4.993   0.219  1.1475  0.4039 -0.9867
 7704TIP3   OH244602   3.626   0.709   2.472 -0.3090  0.4296 -0.4684
 7704TIP3    H144603   3.633   0.723   2.566 -0.8606  1.7881 -0.6228
 7704TIP3    H244604   3.533   0.719   2.452 -0.3985 -1.2088 -0.9555
 7705TIP3   OH244605   0.058   2.827   2.921  0.7102  0.0503 -0.1458
 7705TIP3    H144606   0.135   2.794   2.967  0.2804 -1.3553 -0.4250
 7705TIP3    H244607  -0.015   2.810   2.980  0.6060  1.5009  0.1759
 7706TIP3   OH244608   1.813   3.226  14.812  0.0656  0.2926  0.1147
 7706TIP3    H144609   1.805   3.137  14.847  0.5609  0.2542  0.1297
 7706TIP3    H244610   1.806   3.282  14.889  0.6472  0.2282  0.2202
 7707TIP3   OH244611   1.790   6.186   3.529 -0.4506 -0.5274 -0.4278
 7707TIP3    H144612   1.714   6.243   3.521  0.1623  0.5332  1.2164
 7707TIP3    H244613   1.861   6.232   3.484  0.7545  1.3770  3.2051
 7708TIP3   OH244614   0.441   6.746   2.155  0.4966  0.4170  0.0246
 7708TIP3    H144615   0.434   6.674   2.092 -1.2590  0.2373  0.3893
 7708TIP3    H244616   0.350   6.772   2.171  0.8305 -0.2865  3.3454
 7709TIP3   OH244617   1.827   3.381  17.070  0.0835 -0.4991  0.6618
 7709TIP3    H144618   1.739   3.420  17.067 -0.8211 -2.4347  1.0563
 7709TIP3    H244619   1.836   3.350  17.160  0.6458 -1.4442  0.2912
 7710TIP3   OH244620   0.432   2.933  11.921  0.1672  0.1585  0.3212
 7710TIP3    H144621   0.376   2.922  11.844  2.3697 -2.3004 -1.0177
 7710TIP3    H244622   0.424   2.851  11.969  2.6695 -0.3042  0.0272
 7711TIP3   OH244623   2.733   0.286   0.407 -0.2203 -0.3198  0.4969
 7711TIP3    H144624   2.700   0.240   0.329  0.8471  0.1999 -0.2771
 7711TIP3    H244625   2.728   0.221   0.477  1.3232 -1.6539 -0.5880
 7712TIP3   OH244626   5.166   5.823  12.960  0.5598  0.4685 -0.2078
 7712TIP3    H144627   5.122   5.800  12.878  1.6211  0.7154 -0.8584
 7712TIP3    H244628   5.245   5.770  12.961  0.0554 -0.3012  1.1694
 7713TIP3   OH244629   0.206   6.634   4.283 -0.1865  0.2961 -0.0651
 7713TIP3    H144630   0.287   6.640   4.332  0.1235  0.8937 -0.6395
 7713TIP3    H244631   0.230   6.656   4.193 -0.7480 -0.7625 -0.4894
 7714TIP3   OH244632   0.934   5.016  14.470  0.0917 -0.5120  0.1807
 7714TIP3    H144633   0.999   5.061  14.523  1.3507 -1.2944 -0.6642
 7714TIP3    H244634   0.851   5.058  14.492  1.1776  1.9390 -0.2750
 7715TIP3   OH244635   5.055   0.516   4.480 -0.1052  0.2460 -0.3343
 7715TIP3    H144636   5.017   0.591   4.433  0.4625  1.3094  0.8583
 7715TIP3    H244637   5.070   0.549   4.569  2.4609 -0.5071 -0.4427
 7716TIP3   OH244638   4.560   3.089  12.169 -0.5437  0.4808  0.4780
 7716TIP3    H144639   4.545   3.153  12.239 -1.9418 -0.0082  0.6391
 7716TIP3    H244640   4.474   3.051  12.153  0.2019 -1.0743  0.0989
 7717TIP3   OH244641   3.672   1.713   4.612  0.1235 -0.6524  0.1936
 7717TIP3    H144642   3.626   1.794   4.635 -2.8616 -2.2923  0.2412
 7717TIP3    H244643   3.681   1.666   4.694  0.4609 -1.0663 -0.0755
 7718TIP3   OH244644   6.504   1.384   4.467  0.5070 -0.2031  0.3083
 7718TIP3    H144645   6.479   1.467   4.427 -2.9140 -2.0929 -1.6975
 7718TIP3    H244646   6.470   1.389   4.557  2.2569  1.3657  0.9183
 7719TIP3   OH244647   1.679   0.809   5.508  0.7533 -0.5228  0.4325
 7719TIP3    H144648   1.755   0.826   5.564  1.4883 -0.6603 -0.5096
 7719TIP3    H244649   1.702   0.848   5.424 -0.3579 -0.2836  0.2258
 7720TIP3   OH244650   6.359   3.297   6.143 -0.1613  0.6911 -0.0337
 7720TIP3    H144651   6.431   3.290   6.079  1.3592  0.0254  1.7283
 7720TIP3    H244652   6.369   3.385   6.179 -2.2174  1.8045 -2.0774
 7721TIP3   OH244653   4.509   3.816  16.991  0.2464 -0.1345  0.4484
 7721TIP3    H144654   4.475   3.871  17.061  0.4962 -0.1087  0.5500
 7721TIP3    H244655   4.463   3.846  16.912 -0.2280 -0.3438  0.6451
 7722TIP3   OH244656   5.955   6.793   0.700 -0.1802 -0.2084 -0.1420
 7722TIP3    H144657   5.950   6.697   0.702 -3.5905 -0.0549  0.4364
 7722TIP3    H244658   5.971   6.817   0.791  3.8580 -0.2865 -0.7294
 7723TIP3   OH244659   2.968   5.649  15.841 -0.4765 -0.5914 -0.1060
 7723TIP3    H144660   2.999   5.732  15.806  0.8901 -0.9074  0.3174
 7723TIP3    H244661   3.038   5.587  15.820  0.0827 -0.9415  2.5565
 7724TIP3   OH244662   3.224   3.700  13.475  0.2658  1.1031 -0.3393
 7724TIP3    H144663   3.263   3.774  13.430  3.0061 -0.6359 -0.9616
 7724TIP3    H244664   3.279   3.687  13.553 -0.8259  0.3978  0.3337
 7725TIP3   OH244665   5.430   1.798  16.505  0.4978  0.2011  0.4947
 7725TIP3    H144666   5.385   1.761  16.429  2.8770 -3.3825  0.7059
 7725TIP3    H244667   5.381   1.878  16.525 -2.6131 -0.8623 -2.3222
 7726TIP3   OH244668   1.171   3.430   4.516 -0.1851  0.6251  0.3305
 7726TIP3    H144669   1.161   3.467   4.603 -2.2985  0.0858  0.3471
 7726TIP3    H244670   1.143   3.501   4.457 -2.9784 -0.4561  0.3067
 7727TIP3   OH244671   5.958   3.404  16.244 -0.1317 -0.3792  0.3876
 7727TIP3    H144672   5.903   3.370  16.314 -1.7387  0.1550 -0.6012
 7727TIP3    H244673   6.010   3.473  16.286 -1.0865 -0.0555  1.0562
 7728TIP3   OH244674   5.540   3.081   4.562 -0.1523 -0.2620 -0.4695
 7728TIP3    H144675   5.445   3.081   4.575 -0.0198  0.9330  0.6642
 7728TIP3    H244676   5.559   3.166   4.523  0.2713 -1.1615 -2.2760
 7729TIP3   OH244677   1.688   4.883  13.971  0.5796 -0.0536  0.0695
 7729TIP3    H144678   1.736   4.916  14.047  0.7579 -0.8004  0.2924
 7729TIP3    H244679   1.610   4.842  14.008 -0.0480  0.8222 -0.2629
 7730TIP3   OH244680   4.050   0.813   3.651 -0.5024  0.1037 -0.2728
 7730TIP3    H144681   4.023   0.738   3.597  0.7657 -1.0304  0.6214
 7730TIP3    H244682   4.136   0.789   3.684 -0.4008  1.6476  0.6470
 7731TIP3   OH244683   6.614   0.984   3.811  0.4692  0.5768  0.0285
 7731TIP3    H144684   6.706   1.007   3.824  0.6502 -0.2257  0.1853
 7731TIP3    H244685   6.568   1.068   3.818  1.4945  1.5074 -3.2541
 7732TIP3   OH244686   2.729   0.809  10.466 -0.0002  0.2892 -0.2543
 7732TIP3    H144687   2.712   0.753  10.541  0.0617  1.0145  0.3043
 7732TIP3    H244688   2.662   0.784  10.402 -0.4553  0.1200  0.2849
 7733TIP3   OH244689   2.734   6.643   6.013 -0.1615 -0.1814  0.4933
 7733TIP3    H144690   2.655   6.641   6.068 -1.5051  0.7407 -1.3459
 7733TIP3    H244691   2.707   6.601   5.932  1.6851 -1.1487  0.3687
 7734TIP3   OH244692   0.982   0.247   5.952 -0.3637 -0.5484  0.0021
 7734TIP3    H144693   1.061   0.257   5.898 -0.5841 -2.9839 -0.8579
 7734TIP3    H244694   1.011   0.269   6.041  1.4620 -1.9514 -0.1991
 7735TIP3   OH244695   4.559   4.254  11.182 -0.3423  0.5193  0.0008
 7735TIP3    H144696   4.586   4.320  11.118  0.3557  0.5298  0.3022
 7735TIP3    H244697   4.497   4.300  11.238 -1.2390  0.4085 -0.8872
 7736TIP3   OH244698   2.349   1.281   2.830  0.3287  0.0528  0.1646
 7736TIP3    H144699   2.433   1.235   2.831  0.4216  0.2436  1.0158
 7736TIP3    H244700   2.296   1.236   2.895 -0.0159  0.3317  0.0787
 7737TIP3   OH244701   5.110   4.263  14.556  0.1724 -0.7671 -0.1629
 7737TIP3    H144702   5.015   4.269  14.549  0.3049  0.3366 -1.1051
 7737TIP3    H244703   5.125   4.199  14.626 -1.2803  1.6884  2.4804
 7738TIP3   OH244704   4.765   0.046  14.781  0.4023 -0.6937  0.1282
 7738TIP3    H144705   4.835   0.072  14.841 -0.5670 -1.8783  1.8334
 7738TIP3    H244706   4.693   0.018  14.839 -1.2551 -0.1062 -1.5767
 7739TIP3   OH244707   4.077   4.226   4.375 -0.4979 -0.2762 -0.3401
 7739TIP3    H144708   4.001   4.284   4.384 -0.8147 -0.4597 -1.7987
 7739TIP3    H244709   4.152   4.285   4.365 -0.4479 -0.0957  0.9587
 7740TIP3   OH244710   3.805   4.688  13.479 -0.2758 -0.4491  0.0416
 7740TIP3    H144711   3.887   4.734  13.492 -1.2278  1.5448 -0.8409
 7740TIP3    H244712   3.831   4.599  13.455  1.6163  0.2576 -0.5988
 7741TIP3   OH244713   1.167   4.670   5.498 -0.6320  0.1125  0.1280
 7741TIP3    H144714   1.134   4.598   5.444 -0.1208  0.6574 -0.9366
 7741TIP3    H244715   1.088   4.716   5.528 -0.9532 -0.8045  0.7093
 7742TIP3   OH244716   4.668   5.632  12.636 -0.1487  0.2755  0.3385
 7742TIP3    H144717   4.637   5.591  12.555 -0.7539 -0.4706  0.9448
 7742TIP3    H244718   4.760   5.653  12.618  0.0460 -0.9381 -0.1358
 7743TIP3   OH244719   1.880   6.694   3.273 -0.1887  0.4809 -0.4999
 7743TIP3    H144720   1.972   6.706   3.249 -0.2620 -0.3684 -1.2347
 7743TIP3    H244721   1.833   6.762   3.226 -0.2037 -0.5198 -1.9631
 7744TIP3   OH244722   5.798   3.270  16.444 -0.0098 -0.4436 -0.3337
 7744TIP3    H144723   5.736   3.300  16.511  2.3040  1.0189  1.2188
 7744TIP3    H244724   5.859   3.214  16.492  0.8325 -0.5441 -1.5093
 7745TIP3   OH244725   6.612   4.568  16.468 -0.2471 -0.0289  0.5431
 7745TIP3    H144726   6.517   4.567  16.477 -0.4743  2.1756 -1.2897
 7745TIP3    H244727   6.636   4.477  16.452 -1.9572 -0.6993  1.6224
 7746TIP3   OH244728   5.505   4.959  17.236  0.4523  0.0962 -0.5516
 7746TIP3    H144729   5.464   5.021  17.176  0.9427  0.8836 -0.0808
 7746TIP3    H244730   5.545   4.893  17.179 -0.5148 -0.0817 -1.0392
 7747TIP3   OH244731   1.689   3.059   0.866 -0.2475  0.1363 -0.0084
 7747TIP3    H144732   1.663   2.974   0.901 -0.2258 -0.3101 -1.0714
 7747TIP3    H244733   1.651   3.062   0.778  0.8267  0.6955 -0.4609
 7748TIP3   OH244734   0.828   1.462   3.967  0.1491 -0.1714 -0.5306
 7748TIP3    H144735   0.837   1.549   3.928  1.1337 -0.4417 -0.9269
 7748TIP3    H244736   0.891   1.462   4.039 -1.7114  0.3581  1.1372
 7749TIP3   OH244737   2.368   6.553  11.779 -0.5158 -0.3788 -0.0895
 7749TIP3    H144738   2.420   6.622  11.820 -2.0119  1.0248 -0.4554
 7749TIP3    H244739   2.309   6.523  11.848 -1.4357  0.3563 -0.5233
 7750TIP3   OH244740   4.147   4.739   2.286  0.3515 -0.3624 -1.1512
 7750TIP3    H144741   4.222   4.681   2.271  1.5652  1.0687 -0.7777
 7750TIP3    H244742   4.174   4.794   2.359 -1.3115 -0.2153 -0.6327
 7751TIP3   OH244743   2.799   3.620   0.255  0.4745 -0.7974 -0.3550
 7751TIP3    H144744   2.711   3.595   0.226 -0.4448  2.7598 -0.8848
 7751TIP3    H244745   2.785   3.695   0.313  3.2194  0.6452 -1.4512
 7752TIP3   OH244746   2.476   5.267  13.501  0.7181 -0.4128  0.3184
 7752TIP3    H144747   2.567   5.245  13.479  0.7419  0.0372 -0.0459
 7752TIP3    H244748   2.482   5.353  13.542  0.4299 -0.2913  0.1015
 7753TIP3   OH244749   2.028   3.077  13.768  0.4819 -0.6858  0.6248
 7753TIP3    H144750   2.092   3.038  13.709  2.8661 -0.4932  3.0307
 7753TIP3    H244751   1.997   3.154  13.721  1.8114 -0.9231 -0.6861
 7754TIP3   OH244752   6.240   5.062  11.195  0.3879 -0.4615 -0.0852
 7754TIP3    H144753   6.232   5.106  11.111 -0.0269 -0.0643  0.1555
 7754TIP3    H244754   6.331   5.033  11.199  1.0538  1.5742  0.3292
 7755TIP3   OH244755   4.224   3.759  17.181 -0.3704  0.1010  0.3949
 7755TIP3    H144756   4.179   3.780  17.263  3.1725  3.0023  1.7667
 7755TIP3    H244757   4.279   3.835  17.164  0.8202 -1.4915 -3.4106
 7756TIP3   OH244758   3.915   5.500  14.832  0.8247 -0.6579 -0.2581
 7756TIP3    H144759   3.977   5.467  14.767  0.3968  0.5205 -1.2749
 7756TIP3    H244760   3.885   5.422  14.878  0.1051 -1.6981 -2.3935
 7757TIP3   OH244761   5.231   3.992  16.565  0.1084 -0.3879  0.0961
 7757TIP3    H144762   5.294   3.952  16.506  1.8174 -0.3184  1.8190
 7757TIP3    H244763   5.239   3.942  16.646 -2.5304 -0.7971  0.1393
 7758TIP3   OH244764   1.759   3.641   5.609  0.5191 -0.0639 -0.1964
 7758TIP3    H144765   1.772   3.734   5.627 -0.0026  0.1986 -1.1647
 7758TIP3    H244766   1.704   3.638   5.531 -0.1305 -1.1752  0.2773
 7759TIP3   OH244767   0.488   6.315  14.631  0.1062 -0.2410  0.0234
 7759TIP3    H144768   0.499   6.382  14.698  1.3647  1.2108 -1.5853
 7759TIP3    H244769   0.486   6.363  14.548 -2.0419 -1.9447 -0.9743
 7760TIP3   OH244770   1.856   3.114   5.939 -0.2916  0.2747 -1.1197
 7760TIP3    H144771   1.873   3.063   6.018 -1.2949  0.8377 -0.5184
 7760TIP3    H244772   1.938   3.113   5.890  0.2689 -0.2595 -0.1653
 7761TIP3   OH244773   4.067   3.868   2.356 -0.2498  0.6428  0.5690
 7761TIP3    H144774   4.149   3.912   2.376  0.8391 -0.6857 -0.7612
 7761TIP3    H244775   4.081   3.831   2.268 -1.8677 -0.4989  0.7651
 7762TIP3   OH244776   0.893   5.915   4.398 -0.4996  0.2921  0.2184
 7762TIP3    H144777   0.969   5.970   4.417 -1.0270  0.8495  0.7351
 7762TIP3    H244778   0.818   5.968   4.424 -1.1082  0.0595 -1.0246
 7763TIP3   OH244779   4.576   3.773   3.989 -0.0538  0.4184 -0.2761
 7763TIP3    H144780   4.510   3.725   3.939 -1.6698  0.1787  1.9834
 7763TIP3    H244781   4.545   3.863   3.988 -0.4724  0.2940  0.8443
 7764TIP3   OH244782   3.090   3.970  11.654 -0.2186 -0.0645 -0.3421
 7764TIP3    H144783   3.185   3.978  11.658 -0.4627  3.4027 -0.4472
 7764TIP3    H244784   3.068   3.984  11.562 -0.9831  1.5440  0.0655
 7765TIP3   OH244785   0.739   2.159   5.675  0.6241  0.1397  0.5396
 7765TIP3    H144786   0.766   2.250   5.666 -0.6388  0.7574  2.5416
 7765TIP3    H244787   0.646   2.164   5.700  0.2753 -1.7231 -0.2760
 7766TIP3   OH244788   1.800   6.309  10.967 -0.0175 -1.1257  0.3669
 7766TIP3    H144789   1.843   6.366  11.031 -1.9451 -0.6593  1.2973
 7766TIP3    H244790   1.799   6.360  10.886 -0.3884 -0.4139  0.8093
 7767TIP3   OH244791   4.290   4.904   2.464 -0.4649  0.1118  0.6411
 7767TIP3    H144792   4.287   4.862   2.550 -1.2809 -2.5271 -0.6262
 7767TIP3    H244793   4.378   4.939   2.457  1.0986 -3.6250  0.7474
 7768TIP3   OH244794   1.165   0.549   5.371  0.1255 -0.2288  0.4996
 7768TIP3    H144795   1.204   0.609   5.307  1.1863  0.1498  1.4887
 7768TIP3    H244796   1.155   0.467   5.323  1.4368 -0.1179 -0.0013
 7769TIP3   OH244797   1.467   2.041   0.911  0.0061 -0.1072 -0.2178
 7769TIP3    H144798   1.429   2.111   0.858 -0.4545 -1.2084 -1.3568
 7769TIP3    H244799   1.422   1.961   0.882  2.2675 -1.2473 -0.6947
 7770TIP3   OH244800   0.844   3.772   4.293  0.0247  0.1664 -0.0698
 7770TIP3    H144801   0.761   3.786   4.337 -1.1203 -3.5843 -0.8643
 7770TIP3    H244802   0.822   3.769   4.200  1.3699  1.1289 -0.4386
 7771TIP3   OH244803   1.734   3.632  15.486  0.1417  0.1950  0.2627
 7771TIP3    H144804   1.798   3.695  15.522  1.4675  0.9439 -3.1789
 7771TIP3    H244805   1.649   3.670  15.508  0.9174  1.9806  0.3127
 7772TIP3   OH244806   2.719   1.286  11.461  0.3530  0.1336  0.1795
 7772TIP3    H144807   2.702   1.281  11.367 -0.5429  0.9464  0.2960
 7772TIP3    H244808   2.766   1.368  11.473  1.2173 -0.3760  0.3371
 7773TIP3   OH244809   6.655   3.466   2.159  0.1920 -0.3888 -0.3183
 7773TIP3    H144810   6.582   3.512   2.118  0.1937 -0.0352  0.0663
 7773TIP3    H244811   6.733   3.506   2.120  0.2114  0.7299  0.8491
 7774TIP3   OH244812   4.140   5.951   4.447 -0.5818  0.3344  0.1739
 7774TIP3    H144813   4.207   5.973   4.382 -1.3163  1.5478 -0.1692
 7774TIP3    H244814   4.180   5.974   4.531 -0.6177  1.1617 -0.0384
 7775TIP3   OH244815   0.115   5.557  13.529  0.2238  0.4424 -0.3331
 7775TIP3    H144816   0.184   5.503  13.490 -1.6674 -0.5747 -2.3940
 7775TIP3    H244817   0.129   5.644  13.491 -0.7111 -0.1979 -2.2109
 7776TIP3   OH244818   1.386   0.611   6.368 -0.1640  0.7561 -0.5329
 7776TIP3    H144819   1.397   0.627   6.274  1.0279  0.6820 -0.4076
 7776TIP3    H244820   1.309   0.554   6.373 -0.6766  1.3448 -1.4052
 7777TIP3   OH244821   6.426   0.113  15.690 -0.6358 -0.0311 -0.3295
 7777TIP3    H144822   6.429   0.037  15.632 -1.7219 -0.4519  0.1360
 7777TIP3    H244823   6.332   0.132  15.699 -0.5195 -0.3229  1.7271
 7778TIP3   OH244824   5.262   6.000  16.865  0.4548 -0.2712 -0.2378
 7778TIP3    H144825   5.308   5.931  16.817 -0.0209 -0.2865 -0.6736
 7778TIP3    H244826   5.330   6.064  16.886  1.2467 -1.7022  1.7108
 7779TIP3   OH244827   2.156   0.650   4.042 -0.0860  0.0895 -0.2313
 7779TIP3    H144828   2.235   0.693   4.010 -0.5260  1.8063  0.9115
 7779TIP3    H244829   2.153   0.567   3.994  2.5661 -0.1569 -0.0619
 7780TIP3   OH244830   1.023   6.598   2.252  0.2513 -0.0870 -0.0789
 7780TIP3    H144831   1.079   6.587   2.328 -0.8988  0.2675  0.8367
 7780TIP3    H244832   1.011   6.693   2.244 -1.5345 -0.2353  0.7153
 7781TIP3   OH244833   2.298   5.925  15.423 -0.1906  0.4206 -0.3009
 7781TIP3    H144834   2.366   5.911  15.357  1.3290  2.8071  0.6661
 7781TIP3    H244835   2.258   5.839  15.435  1.2476 -0.5938 -2.4326
 7782TIP3   OH244836   1.316   6.676  16.456 -0.1332 -0.1102  0.4030
 7782TIP3    H144837   1.404   6.656  16.489 -0.0302 -0.9162 -0.3422
 7782TIP3    H244838   1.263   6.689  16.535  0.2588 -1.3617  0.8963
 7783TIP3   OH244839   1.540   2.714   4.021 -0.5839 -0.3308  0.3988
 7783TIP3    H144840   1.475   2.783   4.014  0.1839  0.1883 -1.8604
 7783TIP3    H244841   1.558   2.688   3.931  1.1825 -1.5597  1.0705
 7784TIP3   OH244842   3.176   3.455   6.262  0.2544  0.2541  0.1164
 7784TIP3    H144843   3.095   3.415   6.293 -0.0542  0.7566 -0.0354
 7784TIP3    H244844   3.178   3.541   6.304  1.5002 -0.3669  1.3908
 7785TIP3   OH244845   0.140   6.547   5.606  0.1173  0.1321 -0.0186
 7785TIP3    H144846   0.170   6.474   5.552 -1.1210 -0.5940  0.2414
 7785TIP3    H244847   0.119   6.508   5.690 -0.7598  0.7513  0.0602
 7786TIP3   OH244848   2.828   4.265   4.596 -0.3536  0.0654  0.1005
 7786TIP3    H144849   2.893   4.291   4.530 -0.9982 -0.1365 -0.6162
 7786TIP3    H244850   2.834   4.333   4.663 -0.8508  1.1700 -0.9560
 7787TIP3   OH244851   0.334   6.553   4.971 -0.2130 -0.2128 -0.2392
 7787TIP3    H144852   0.427   6.575   4.960 -0.5165  0.5438 -1.2608
 7787TIP3    H244853   0.310   6.509   4.889 -0.5044 -1.3013  0.4195
 7788TIP3   OH244854   0.476   3.501   0.978 -0.4137 -0.3735 -0.4018
 7788TIP3    H144855   0.539   3.429   0.985 -1.2500 -1.0038  1.0050
 7788TIP3    H244856   0.394   3.458   0.954 -0.7556  0.1981 -0.2483
 7789TIP3   OH244857   5.775   3.836  16.222  0.5396  0.1521  0.1934
 7789TIP3    H144858   5.771   3.924  16.185 -4.4610  0.4767  1.0993
 7789TIP3    H244859   5.783   3.778  16.146  3.0599  1.3334 -0.4561
 7790TIP3   OH244860   4.196   4.922   4.209  0.0095  0.6648  0.0200
 7790TIP3    H144861   4.273   4.948   4.260 -1.1333  0.1431  2.0638
 7790TIP3    H244862   4.207   4.968   4.125  3.5691 -1.0421 -0.5475
 7791TIP3   OH244863   6.104   6.779   1.931 -0.8884 -0.2746  0.4234
 7791TIP3    H144864   6.127   6.746   1.845 -1.5943  0.1853  0.0580
 7791TIP3    H244865   6.081   6.701   1.981 -1.5222 -0.4397 -0.1236
 7792TIP3   OH244866   2.014   1.038  13.357 -0.0480 -0.1181  0.4140
 7792TIP3    H144867   2.095   1.083  13.331 -0.6178  0.2776 -0.6583
 7792TIP3    H244868   2.043   0.950  13.380  0.6056 -0.1844 -0.6265
 7793TIP3   OH244869   4.537   1.585   4.119 -0.2261 -0.1442 -0.7013
 7793TIP3    H144870   4.478   1.645   4.073 -1.8356 -0.4253  0.9631
 7793TIP3    H244871   4.532   1.612   4.211 -0.0402 -2.0606 -0.1158
 7794TIP3   OH244872   2.069   0.569  11.777  0.1058 -0.1935  0.1552
 7794TIP3    H144873   2.016   0.639  11.737 -0.6166  1.0073  3.0166
 7794TIP3    H244874   2.047   0.490  11.728 -1.6809  0.9719 -0.9607
 7795TIP3   OH244875   2.149   1.218  11.779 -0.0448  0.0936 -0.2050
 7795TIP3    H144876   2.139   1.202  11.685  0.3662  0.6749 -0.3477
 7795TIP3    H244877   2.076   1.276  11.802 -0.5040 -0.5433 -0.0390
 7796TIP3   OH244878   0.474   2.878   3.373  0.5636  0.1459 -0.1125
 7796TIP3    H144879   0.561   2.870   3.334  0.6687 -2.7053  0.6122
 7796TIP3    H244880   0.425   2.803   3.338 -1.3030  1.1650  0.2501
 7797TIP3   OH244881   5.183   2.243  13.740  1.0294 -0.4615 -0.5527
 7797TIP3    H144882   5.167   2.278  13.652  2.3114  0.1031 -0.5750
 7797TIP3    H244883   5.239   2.167  13.726 -1.0015 -2.0083 -0.4286
 7798TIP3   OH244884   1.684   3.103  16.105 -0.0366 -0.5030  0.2920
 7798TIP3    H144885   1.749   3.042  16.139 -0.2465  0.0351  1.7074
 7798TIP3    H244886   1.724   3.189  16.117 -0.2615 -0.2761 -0.5217
 7799TIP3   OH244887   0.971   6.195  14.747 -0.3062  0.7569 -0.5092
 7799TIP3    H144888   0.897   6.171  14.692  0.7708  0.4670 -1.8491
 7799TIP3    H244889   1.030   6.243  14.689  0.5704  0.9779  0.5456
 7800TIP3   OH244890   2.646   6.513   4.151  0.1754  0.3819  0.0275
 7800TIP3    H144891   2.557   6.548   4.148  0.5285  1.2152 -1.3948
 7800TIP3    H244892   2.687   6.554   4.227 -0.9731 -0.8177  1.3114
 7801TIP3   OH244893   2.982   3.530  11.414 -0.4469  0.0495 -0.3214
 7801TIP3    H144894   2.898   3.497  11.383 -0.5501  0.1170 -0.1124
 7801TIP3    H244895   2.992   3.493  11.502  1.2805 -2.7051 -1.5893
 7802TIP3   OH244896   0.234   1.545   3.462 -0.1480  0.3796  0.6281
 7802TIP3    H144897   0.179   1.623   3.474 -1.7795 -0.6890  0.3540
 7802TIP3    H244898   0.236   1.504   3.548 -0.8371 -0.2412  0.3581
 7803TIP3   OH244899   6.081   4.975  14.127 -0.3420 -0.9033 -0.2573
 7803TIP3    H144900   6.146   4.905  14.131  0.0983 -0.4940 -0.2843
 7803TIP3    H244901   6.122   5.043  14.074 -1.5352 -1.4425 -1.9336
 7804TIP3   OH244902   5.334   2.143   1.228 -0.5544  0.1394 -0.1947
 7804TIP3    H144903   5.319   2.235   1.251 -0.5302  0.3787 -1.1114
 7804TIP3    H244904   5.401   2.113   1.289 -1.3661  0.4111  0.8387
 7805TIP3   OH244905   5.021   0.989  11.878  0.1401 -0.5160  0.3774
 7805TIP3    H144906   5.089   1.037  11.831  0.0129  0.4454  1.1524
 7805TIP3    H244907   4.941   1.007  11.830 -0.3287  2.0565  2.0269
 7806TIP3   OH244908   2.883   2.081   5.139  0.0283 -0.7299  0.3495
 7806TIP3    H144909   2.952   2.016   5.138  0.4041 -0.3166 -0.7157
 7806TIP3    H244910   2.919   2.154   5.190  1.2440  0.4137 -2.0919
 7807TIP3   OH244911   3.578   4.359   4.319 -0.2181 -0.2022 -0.0781
 7807TIP3    H144912   3.546   4.410   4.393 -0.7126 -1.0030  0.2686
 7807TIP3    H244913   3.514   4.288   4.310  0.8762 -1.2017 -0.0593
 7808TIP3   OH244914   4.082   5.362   0.046 -0.2224  0.0346 -0.2668
 7808TIP3    H144915   4.094   5.332  -0.044  0.5196 -3.8750  1.0633
 7808TIP3    H244916   4.155   5.422   0.061  1.0073 -1.1194 -1.5151
 7809TIP3   OH244917   3.729   5.552   5.306  0.3289  0.2605  1.1885
 7809TIP3    H144918   3.713   5.510   5.391 -1.2275 -0.6380  0.4717
 7809TIP3    H244919   3.642   5.571   5.271  0.9735  1.6896  0.2954
 7810TIP3   OH244920   5.183   3.055   3.989  0.9075 -0.8888  0.3165
 7810TIP3    H144921   5.247   2.985   4.006  0.4283 -1.8151 -1.5320
 7810TIP3    H244922   5.180   3.061   3.894  1.9750  2.6776  0.4443
 7811TIP3   OH244923   5.614   6.583  14.080 -0.4639  0.0945  0.1128
 7811TIP3    H144924   5.603   6.586  13.985 -0.9395 -0.3760  0.1560
 7811TIP3    H244925   5.687   6.643  14.097  1.5614 -2.0451 -0.8404
 7812TIP3   OH244926   0.970   5.442  15.771  0.7024  0.5026 -0.2130
 7812TIP3    H144927   0.906   5.406  15.832  2.3818 -3.7605 -0.8321
 7812TIP3    H244928   1.047   5.461  15.824  1.3863 -1.1379 -0.5797
 7813TIP3   OH244929   1.744   2.660  16.718 -0.3352  0.0768  0.1806
 7813TIP3    H144930   1.815   2.677  16.780 -0.6773  1.4099  0.2361
 7813TIP3    H244931   1.702   2.746  16.706 -1.0130 -0.4037 -0.9820
 7814TIP3   OH244932   6.810   4.167   5.070  0.4820  0.2982  0.0384
 7814TIP3    H144933   6.742   4.212   5.120  1.4684  0.0211  1.6284
 7814TIP3    H244934   6.892   4.188   5.115  1.3295 -0.3219 -1.1871
 7815TIP3   OH244935   4.390   3.593  12.852  0.0028 -0.2380 -0.7130
 7815TIP3    H144936   4.430   3.637  12.777  0.1625  1.9456  0.5856
 7815TIP3    H244937   4.388   3.661  12.920 -2.3022 -1.4802  0.4916
 7816TIP3   OH244938   3.766   3.437  17.032 -0.2100  0.0693 -0.1361
 7816TIP3    H144939   3.840   3.492  17.056  2.0892 -0.7866 -4.6943
 7816TIP3    H244940   3.706   3.496  16.985 -0.4032 -0.1319 -0.1473
 7817TIP3   OH244941   2.284   1.274   2.532 -0.4416  0.0078 -0.3075
 7817TIP3    H144942   2.279   1.365   2.504  2.0800  0.0789 -0.6076
 7817TIP3    H244943   2.303   1.279   2.626  0.7006 -0.1830 -0.5202
 7818TIP3   OH244944   1.738   5.746   2.816 -0.1535 -0.2181 -0.5278
 7818TIP3    H144945   1.643   5.739   2.819 -0.0877 -0.4038  2.9102
 7818TIP3    H244946   1.769   5.657   2.805 -0.3474 -0.1626 -1.5991
 7819TIP3   OH244947   2.196   1.096  14.651 -0.2275  0.9641  0.3545
 7819TIP3    H144948   2.114   1.130  14.616  0.1923  1.2436 -0.3681
 7819TIP3    H244949   2.177   1.079  14.744 -1.0937  1.0355  0.1954
 7820TIP3   OH244950   0.069   4.732   2.708  0.2540  0.0578  0.3915
 7820TIP3    H144951   0.148   4.782   2.689 -0.1341  1.2520  1.8362
 7820TIP3    H244952   0.024   4.724   2.624  0.3618  2.0647  0.1364
 7821TIP3   OH244953   3.287   6.138   4.139  0.2419 -0.0217 -0.0035
 7821TIP3    H144954   3.198   6.110   4.117  1.1125 -1.8244 -1.3648
 7821TIP3    H244955   3.296   6.224   4.098 -0.7916  0.0616 -0.0616
 7822TIP3   OH244956   2.249   2.455   3.350 -0.0569  0.1563 -0.1595
 7822TIP3    H144957   2.273   2.533   3.301  0.0230 -0.7164 -1.5516
 7822TIP3    H244958   2.283   2.469   3.438  0.5873  1.3654 -0.6048
 7823TIP3   OH244959   3.160   1.873   0.904  0.0295  0.0774  0.3470
 7823TIP3    H144960   3.152   1.778   0.917 -1.0819  0.2389  0.9776
 7823TIP3    H244961   3.070   1.904   0.897  0.3421  1.2199  1.1509
 7824TIP3   OH244962   6.568   0.223   2.056  0.4022  0.2909  0.2491
 7824TIP3    H144963   6.556   0.317   2.048 -0.9133  0.0831 -0.3777
 7824TIP3    H244964   6.490   0.193   2.103  0.6371 -0.5298  0.1300
 7825TIP3   OH244965   2.146   2.591  16.400  0.0475  0.4642 -0.0222
 7825TIP3    H144966   2.098   2.512  16.378 -0.9954  1.1420 -0.1822
 7825TIP3    H244967   2.205   2.565  16.471 -0.0489 -0.5318 -0.3102
 7826TIP3   OH244968   6.507   0.368  11.056 -0.2734  0.2232 -0.2967
 7826TIP3    H144969   6.578   0.333  11.109 -0.6186 -2.1939 -1.3638
 7826TIP3    H244970   6.548   0.391  10.973 -0.4846  0.1064 -0.4331
 7827TIP3   OH244971   4.383   2.225  16.275 -0.1665  0.4983  0.0919
 7827TIP3    H144972   4.314   2.165  16.246  0.5145  0.5577 -1.7357
 7827TIP3    H244973   4.339   2.282  16.339 -1.9583  0.8291 -1.3807
 7828TIP3   OH244974   0.052   6.499  13.064 -0.2951  0.0802  0.0637
 7828TIP3    H144975   0.113   6.427  13.043 -1.0627 -0.2036 -1.2528
 7828TIP3    H244976   0.107   6.565  13.107  0.4529 -1.2131  1.1237
 7829TIP3   OH244977   0.150   0.624   0.533  0.5478  0.0934 -0.1869
 7829TIP3    H144978   0.215   0.667   0.478 -1.8016  0.6153 -2.6264
 7829TIP3    H244979   0.174   0.531   0.530  0.6707  0.1708 -1.7352
 7830TIP3   OH244980   3.234   4.035  14.574 -0.2903 -0.2449  0.1349
 7830TIP3    H144981   3.211   3.954  14.529 -0.1815 -1.3328  2.0122
 7830TIP3    H244982   3.291   4.008  14.646  0.2245  1.5599  0.4277
 7831TIP3   OH244983   0.321   5.611  15.068  0.0295 -0.0413  0.4733
 7831TIP3    H144984   0.395   5.559  15.101 -0.2057  0.6412  2.1148
 7831TIP3    H244985   0.340   5.700  15.097 -2.3295 -0.1547  2.5282
 7832TIP3   OH244986   1.106   5.765  13.252  0.0890  0.4691  0.5161
 7832TIP3    H144987   1.136   5.856  13.255  2.0744 -0.0856 -1.2893
 7832TIP3    H244988   1.014   5.771  13.228 -0.1511  2.0391  1.7224
 7833TIP3   OH244989   4.911   4.156   5.556  0.0967  0.0001  0.0519
 7833TIP3    H144990   4.913   4.228   5.494  1.9840 -0.7656 -0.8209
 7833TIP3    H244991   4.898   4.197   5.641  1.6179  1.4338 -0.3815
 7834TIP3   OH244992   5.743   5.017   0.527 -0.4562  0.1896  0.7646
 7834TIP3    H144993   5.822   4.969   0.504 -0.9396 -1.0923  1.7393
 7834TIP3    H244994   5.673   4.970   0.482 -0.4148  2.9182 -2.3729
 7835TIP3   OH244995   6.191   4.220   5.065 -0.8441 -0.5638  0.3316
 7835TIP3    H144996   6.163   4.304   5.031 -0.2011 -0.8390 -0.8833
 7835TIP3    H244997   6.115   4.162   5.052 -0.4831 -0.7508 -0.9228
 7836TIP3   OH244998   4.548   5.387   0.907  0.7333 -0.0402 -0.3435
 7836TIP3    H144999   4.574   5.477   0.925  1.0651  0.1759 -1.8273
 7836TIP3    H245000   4.455   5.384   0.929  1.0812  0.2469  1.1771
 7837TIP3   OH245001   4.649   1.959   1.932  0.0731 -0.0972  0.2871
 7837TIP3    H145002   4.680   1.872   1.907 -0.4831  0.0685 -1.0614
 7837TIP3    H245003   4.565   1.943   1.975 -0.5511 -0.1676 -0.9293
 7838TIP3   OH245004   4.767   2.588   4.471 -0.6772 -0.2606 -0.4011
 7838TIP3    H145005   4.840   2.532   4.446 -0.0638 -0.1304  1.0850
 7838TIP3    H245006   4.719   2.537   4.537 -0.0201  1.0207  1.0850
 7839TIP3   OH245007   0.310   3.328   6.200 -0.3701 -0.0705  0.2655
 7839TIP3    H145008   0.300   3.419   6.227 -0.4148  0.3055 -0.9805
 7839TIP3    H245009   0.260   3.278   6.265 -1.3307  0.8904  0.2874
 7840TIP3   OH245010   1.106   0.345   0.792  0.0719  0.6267  0.5642
 7840TIP3    H145011   1.161   0.423   0.789  1.3584 -0.3560 -2.1486
 7840TIP3    H245012   1.017   0.378   0.778  0.1558  1.9669  2.8655
 7841TIP3   OH245013   3.051   3.347   5.975  0.5650  0.0842  0.3812
 7841TIP3    H145014   3.020   3.396   6.051 -2.1163 -0.5086 -0.2755
 7841TIP3    H245015   3.087   3.267   6.011  0.7366  0.5029  1.1467
 7842TIP3   OH245016   6.300   2.115   3.645 -0.2741 -0.2478  0.1471
 7842TIP3    H145017   6.346   2.067   3.576 -1.0769 -1.3155  0.3406
 7842TIP3    H245018   6.214   2.074   3.650 -0.7990  0.8880  0.6732
 7843TIP3   OH245019   5.503   4.435  11.521  0.5185  0.4541  0.4054
 7843TIP3    H145020   5.587   4.438  11.567  0.1956  0.6832  0.9813
 7843TIP3    H245021   5.437   4.437  11.590  0.0293  0.6503 -0.0576
 7844TIP3   OH245022   4.212   1.078   4.573 -0.3887  0.2102 -0.3849
 7844TIP3    H145023   4.141   1.015   4.571  0.4899 -0.9824  2.5543
 7844TIP3    H245024   4.208   1.116   4.661  1.6424  1.2211 -0.6880
 7845TIP3   OH245025   2.173   1.842   5.774 -0.2692 -0.3769  0.0257
 7845TIP3    H145026   2.239   1.905   5.744 -0.1883 -0.1789  0.6244
 7845TIP3    H245027   2.090   1.876   5.740 -0.1141 -0.4151 -0.3918
 7846TIP3   OH245028   2.789   5.018   3.356 -0.1302 -0.2658 -0.1263
 7846TIP3    H145029   2.775   5.053   3.268  0.5036 -1.6541 -0.7927
 7846TIP3    H245030   2.852   5.078   3.396  0.6231 -0.3976 -1.1025
 7847TIP3   OH245031   1.170   1.675  11.988 -0.0498 -0.1666 -0.5875
 7847TIP3    H145032   1.168   1.725  11.906  0.2232 -0.6803 -0.9111
 7847TIP3    H245033   1.099   1.611  11.978 -2.3678  2.0517  1.0623
 7848TIP3   OH245034   0.818   2.794   1.153 -0.6392 -0.5416 -0.8647
 7848TIP3    H145035   0.905   2.821   1.123 -1.0881  1.8693 -0.1171
 7848TIP3    H245036   0.758   2.837   1.092 -1.3049 -3.3178 -2.2302
 7849TIP3   OH245037   3.710   1.103  16.424 -0.3228  0.2277  0.1836
 7849TIP3    H145038   3.648   1.032  16.410  0.1820  0.1891 -2.1798
 7849TIP3    H245039   3.712   1.117  16.518 -1.9098 -1.5575  0.4850
 7850TIP3   OH245040   3.332   3.585   1.696 -0.3491  0.6510  0.1551
 7850TIP3    H145041   3.353   3.574   1.789 -1.3272  1.0572  0.4235
 7850TIP3    H245042   3.355   3.501   1.657  1.2567  0.8842  0.5304
 7851TIP3   OH245043   4.808   4.345   2.870  0.6840  0.2331  0.1568
 7851TIP3    H145044   4.773   4.290   2.801  0.9109  0.5941 -0.2496
 7851TIP3    H245045   4.743   4.416   2.879 -1.2483 -1.7504  2.8583
 7852TIP3   OH245046   3.781   1.494  12.128 -0.2071 -0.1718  0.0815
 7852TIP3    H145047   3.846   1.457  12.188 -0.3163  0.3653  0.5331
 7852TIP3    H245048   3.717   1.424  12.115 -0.8032  0.0959  1.4990
 7853TIP3   OH245049   1.597   6.397  14.642  0.8940  0.0132  0.0984
 7853TIP3    H145050   1.626   6.408  14.732 -0.9619  0.5105  0.6658
 7853TIP3    H245051   1.541   6.320  14.644  1.3686 -0.3635 -0.7709
 7854TIP3   OH245052   5.420   6.295   1.105 -0.8056 -0.5195 -0.1489
 7854TIP3    H145053   5.361   6.316   1.032 -1.7790  0.5017  0.9021
 7854TIP3    H245054   5.413   6.200   1.115 -2.0057 -0.4514 -0.2733
 7855TIP3   OH245055   4.011   0.119  11.582 -0.0779 -0.0169 -0.0234
 7855TIP3    H145056   3.963   0.036  11.581 -0.5635  0.2214  1.4818
 7855TIP3    H245057   3.944   0.184  11.603  0.6463  0.4981  0.7390
 7856TIP3   OH245058   3.948   1.235   4.571  0.1210 -0.2234 -0.5363
 7856TIP3    H145059   3.908   1.240   4.484  1.3028 -0.3226 -1.0950
 7856TIP3    H245060   4.025   1.291   4.566  1.0423 -1.4208 -0.0242
 7857TIP3   OH245061   5.609   1.094   5.195 -0.3329 -0.2822  0.1382
 7857TIP3    H145062   5.608   1.186   5.221  1.6232 -0.0341 -0.6070
 7857TIP3    H245063   5.542   1.088   5.127 -0.3876  0.6030  0.1093
 7858TIP3   OH245064   0.056   5.068   3.163  0.0971 -0.1162  0.3237
 7858TIP3    H145065   0.005   5.073   3.082  1.4073 -0.9348 -0.5744
 7858TIP3    H245066   0.061   5.158   3.194 -1.1685  0.0811 -0.0296
 7859TIP3   OH245067   5.050   2.047  17.224  0.9671  0.1318  0.2642
 7859TIP3    H145068   5.091   2.005  17.299 -1.6261 -1.2345  0.9929
 7859TIP3    H245069   4.984   2.105  17.262  0.0385 -0.1222 -0.9128
 7860TIP3   OH245070   3.227   1.638   0.637  0.1389 -0.0421  0.1621
 7860TIP3    H145071   3.224   1.636   0.541  2.9507 -1.2197  0.0550
 7860TIP3    H245072   3.253   1.727   0.658 -3.1189  1.0402  0.0076
 7861TIP3   OH245073   3.317   6.192  16.614 -0.1573  0.0503 -0.1383
 7861TIP3    H145074   3.252   6.251  16.651  0.3880  1.3374 -1.1386
 7861TIP3    H245075   3.340   6.232  16.530  2.8808  0.3697  0.7685
 7862TIP3   OH245076   1.270   3.041  14.778  0.2339  0.3366 -0.0670
 7862TIP3    H145077   1.289   3.092  14.857 -0.9680  0.3789  0.2165
 7862TIP3    H245078   1.311   2.956  14.794 -0.8493  0.0025  1.0633
 7863TIP3   OH245079   1.375   5.409  13.900  0.0113  0.3544 -0.4455
 7863TIP3    H145080   1.305   5.418  13.964 -2.7159 -1.4878 -2.9940
 7863TIP3    H245081   1.358   5.477  13.835  0.5867 -0.0730 -1.0591
 7864TIP3   OH245082   6.081   2.136  15.819  0.3567 -0.2043 -0.2888
 7864TIP3    H145083   6.115   2.224  15.805  1.1902 -0.1743  1.7294
 7864TIP3    H245084   5.995   2.137  15.777  0.6972  1.3243 -0.9801
 7865TIP3   OH245085   3.820   6.226  10.970  0.2550 -0.5127 -0.2888
 7865TIP3    H145086   3.803   6.316  11.000 -0.5357 -1.0296  0.8462
 7865TIP3    H245087   3.838   6.235  10.876  0.5553  0.8775 -0.1069
 7866TIP3   OH245088   1.062   1.827   5.693 -0.4297 -0.1281  0.2047
 7866TIP3    H145089   1.121   1.889   5.736 -1.4645  3.2531 -3.0038
 7866TIP3    H245090   0.974   1.861   5.710 -1.0798 -1.2513 -0.8227
 7867TIP3   OH245091   5.175   1.715  15.476 -0.0233 -0.1691 -0.6213
 7867TIP3    H145092   5.142   1.717  15.386  0.2792  1.2863 -0.7042
 7867TIP3    H245093   5.123   1.782  15.522  0.9913  0.2732 -0.1197
 7868TIP3   OH245094   2.951   4.261  15.426 -0.0450 -0.3001  0.0358
 7868TIP3    H145095   3.004   4.303  15.359 -0.4004 -1.9908 -1.3459
 7868TIP3    H245096   3.013   4.204  15.473 -0.4136 -1.6159 -1.0199
 7869TIP3   OH245097   2.262   4.004  16.070  0.5927 -0.0935  0.1781
 7869TIP3    H145098   2.192   4.011  16.134 -0.2507  1.6242 -0.8909
 7869TIP3    H245099   2.228   3.945  16.003  0.1651  0.7118 -0.3224
 7870TIP3   OH245100   0.222   1.019   4.681  0.0923 -0.0341  0.0688
 7870TIP3    H145101   0.200   0.986   4.768  0.1248 -0.4747 -0.0860
 7870TIP3    H245102   0.215   0.942   4.624 -0.3812  0.3410 -0.3935
 7871TIP3   OH245103   1.665   0.964  13.922  0.2867 -0.5185 -0.2052
 7871TIP3    H145104   1.608   0.890  13.942  0.3395 -0.1532  1.4036
 7871TIP3    H245105   1.753   0.933  13.947  0.4480 -0.2375 -0.4191
 7872TIP3   OH245106   2.308   3.120  14.137 -0.2511 -0.2307 -0.3850
 7872TIP3    H145107   2.247   3.193  14.141 -2.9026 -2.3865 -0.1965
 7872TIP3    H245108   2.308   3.084  14.226  0.2618 -1.0559 -0.7143
 7873TIP3   OH245109   5.117   5.118   3.651 -0.4110 -0.2048  0.6789
 7873TIP3    H145110   5.093   5.210   3.644 -1.6720 -0.5039  0.8811
 7873TIP3    H245111   5.170   5.112   3.731  0.0403  0.4108  0.4263
 7874TIP3   OH245112   1.768   1.557  16.214  0.2698 -0.2931 -0.2736
 7874TIP3    H145113   1.716   1.637  16.211 -1.5876 -1.4929 -1.2144
 7874TIP3    H245114   1.832   1.568  16.144  0.8343  0.8867  0.4128
 7875TIP3   OH245115   1.125   2.477  15.877 -0.1810 -0.3435 -0.4162
 7875TIP3    H145116   1.162   2.566  15.875 -0.2247 -0.2784  1.4496
 7875TIP3    H245117   1.032   2.489  15.857 -0.2751  0.0760  0.2746
 7876TIP3   OH245118   0.448   4.976   4.685 -0.2887  0.2412 -0.5015
 7876TIP3    H145119   0.473   4.904   4.627 -0.6328  1.7782 -2.5975
 7876TIP3    H245120   0.370   4.944   4.731  0.7833 -1.5051  0.1709
 7877TIP3   OH245121   3.770   4.198  13.245  0.6647 -0.1572 -0.6072
 7877TIP3    H145122   3.726   4.122  13.283 -0.7935  1.0076  0.0753
 7877TIP3    H245123   3.863   4.177  13.248  0.3077 -1.6081  0.2291
 7878TIP3   OH245124   3.150   0.561  16.766  0.4413  0.1002 -0.1606
 7878TIP3    H145125   3.232   0.542  16.721  0.6852  1.4281 -0.2959
 7878TIP3    H245126   3.086   0.572  16.696  0.0756 -1.2423 -0.0422
 7879TIP3   OH245127   1.845   0.351  17.013 -0.3886  0.2634 -0.4653
 7879TIP3    H145128   1.913   0.404  17.055  1.0867 -0.8453 -1.4012
 7879TIP3    H245129   1.864   0.262  17.043 -2.2036  0.1058  0.2478
 7880TIP3   OH245130   3.508   0.208   3.072 -0.2187 -0.1680 -0.0037
 7880TIP3    H145131   3.426   0.181   3.113 -0.7411  1.2409 -0.0904
 7880TIP3    H245132   3.576   0.161   3.121 -1.0124 -0.5671  0.7311
 7881TIP3   OH245133   5.580   2.994   1.322 -0.6894 -0.2560 -0.0481
 7881TIP3    H145134   5.610   3.076   1.361  0.2356 -1.2196  1.3112
 7881TIP3    H245135   5.537   3.021   1.240  0.6151  1.4796 -0.2003
 7882TIP3   OH245136   0.678   5.374  11.347 -0.3510 -0.4430 -0.0651
 7882TIP3    H145137   0.683   5.282  11.372 -1.4674 -0.1978  1.1468
 7882TIP3    H245138   0.592   5.402  11.378 -0.4745  0.7152 -1.4406
 7883TIP3   OH245139   5.235   2.516   2.021 -0.2081 -0.1287 -0.1113
 7883TIP3    H145140   5.204   2.593   2.068 -0.4303 -0.2566 -0.0444
 7883TIP3    H245141   5.193   2.443   2.065 -0.0055 -0.2880 -0.1799
 7884TIP3   OH245142   3.086   3.394   1.310  0.0142  0.1774 -0.8868
 7884TIP3    H145143   3.155   3.452   1.341 -1.2637  1.2415  0.0677
 7884TIP3    H245144   3.105   3.309   1.350  0.1898  0.7327  0.2226
 7885TIP3   OH245145   5.840   5.358  16.158  0.3733 -0.1706  0.7542
 7885TIP3    H145146   5.935   5.345  16.153  0.3298 -0.0120 -0.4709
 7885TIP3    H245147   5.804   5.269  16.164  0.5306 -0.2819  0.0430
 7886TIP3   OH245148   0.035   1.379   2.424 -0.1788 -0.6996 -0.1434
 7886TIP3    H145149  -0.047   1.388   2.471  1.4796 -1.0219  2.9481
 7886TIP3    H245150   0.036   1.287   2.395 -0.5416 -0.9350  0.5709
 7887TIP3   OH245151   2.836   2.929   5.155 -0.1881 -0.7104  0.1955
 7887TIP3    H145152   2.844   2.839   5.123 -0.3708 -0.2879 -1.0309
 7887TIP3    H245153   2.760   2.927   5.213  0.0825 -1.4427  0.5350
 7888TIP3   OH245154   2.491   0.219   4.966  0.0829  0.8255  0.0114
 7888TIP3    H145155   2.469   0.175   5.048  1.7884  0.2071  0.1488
 7888TIP3    H245156   2.406   0.231   4.922 -0.7478  0.4146  1.4739
 7889TIP3   OH245157   4.978   5.765   0.362  0.3820 -0.1405 -0.1679
 7889TIP3    H145158   5.029   5.695   0.403 -0.8230 -0.6379  0.5121
 7889TIP3    H245159   5.010   5.845   0.404  0.7093 -0.4358  0.1556
 7890TIP3   OH245160   1.991   3.210   5.008  0.4175  0.4005  0.2831
 7890TIP3    H145161   1.937   3.141   5.047  1.1364 -0.5898 -0.4503
 7890TIP3    H245162   2.033   3.168   4.933  0.4276  1.8000 -0.5101
 7891TIP3   OH245163   2.109   3.963  13.359 -0.3554 -0.1520  0.1406
 7891TIP3    H145164   2.123   4.039  13.303  1.9653 -0.1512  0.6455
 7891TIP3    H245165   2.038   3.988  13.418 -0.0871  1.3449 -0.1683
 7892TIP3   OH245166   5.710   2.088  12.037 -0.4527 -0.0863  0.0809
 7892TIP3    H145167   5.754   2.165  12.000 -0.5869  0.3735  0.8579
 7892TIP3    H245168   5.648   2.125  12.101  0.1583 -0.8886  1.1527
 7893TIP3   OH245169   6.345   3.284   1.561  0.3072  0.4679 -0.0826
 7893TIP3    H145170   6.424   3.230   1.564 -2.3541 -3.5912  0.2833
 7893TIP3    H245171   6.307   3.266   1.475 -0.9934  1.2338  0.3249
 7894TIP3   OH245172   0.094   5.596  11.923 -0.1539  0.3017 -0.8462
 7894TIP3    H145173   0.017   5.558  11.881 -0.5267 -0.2073  0.2886
 7894TIP3    H245174   0.149   5.625  11.850 -1.0499 -0.0540 -1.6715
 7895TIP3   OH245175   6.546   2.872  15.922 -0.0761 -0.3246 -0.0565
 7895TIP3    H145176   6.512   2.803  15.865  1.9721 -1.4824  0.0668
 7895TIP3    H245177   6.567   2.827  16.004 -0.1320  0.7444  0.5565
 7896TIP3   OH245178   5.488   2.109  13.764  0.0307  0.4559 -0.1387
 7896TIP3    H145179   5.491   2.030  13.818 -2.2589  0.4776  0.0364
 7896TIP3    H245180   5.427   2.088  13.694  0.6033  1.5385 -0.9717
 7897TIP3   OH245181   3.570   1.235   1.000  0.0693 -0.0887  0.4883
 7897TIP3    H145182   3.636   1.300   1.025  1.7466 -1.9116  0.9119
 7897TIP3    H245183   3.501   1.244   1.065 -0.2655  2.0344 -0.1181
 7898TIP3   OH245184   6.255   2.159   1.194 -0.4403  0.1061  0.3730
 7898TIP3    H145185   6.221   2.248   1.187 -2.0577 -0.5671 -0.4778
 7898TIP3    H245186   6.219   2.126   1.277  0.6097  0.4051  0.9692
 7899TIP3   OH245187   1.669   3.510   1.538  0.4376 -0.3450  0.1811
 7899TIP3    H145188   1.610   3.500   1.462  1.7583  0.1722 -0.9239
 7899TIP3    H245189   1.651   3.598   1.570 -0.4612 -0.7329  0.7766
 7900TIP3   OH245190   1.825   6.440   1.140  0.4321 -0.6122  0.3021
 7900TIP3    H145191   1.897   6.493   1.173  0.3326  0.1592 -0.6969
 7900TIP3    H245192   1.852   6.350   1.157  1.1111 -0.2852  0.9823
 7901TIP3   OH245193   1.580   0.619   3.125  0.3674  0.0803 -0.2305
 7901TIP3    H145194   1.599   0.708   3.094 -0.1757  0.2892  0.0230
 7901TIP3    H245195   1.498   0.596   3.083  1.4953 -1.0822 -1.8461
 7902TIP3   OH245196   1.816   5.981  15.633 -0.0282 -0.4538  0.0722
 7902TIP3    H145197   1.722   5.995  15.644  0.2611  1.1409  0.6605
 7902TIP3    H245198   1.833   5.897  15.676 -1.2929 -1.0952 -0.6535
 7903TIP3   OH245199   1.377   6.275  12.551 -0.2759 -0.6095 -0.0620
 7903TIP3    H145200   1.464   6.258  12.514  0.3100  0.1647  0.9428
 7903TIP3    H245201   1.319   6.216  12.503  0.6071 -0.2726 -1.5992
 7904TIP3   OH245202   4.522   5.212  14.285  0.1225  0.4340  0.4939
 7904TIP3    H145203   4.581   5.210  14.210 -2.1845 -0.3619 -1.3804
 7904TIP3    H245204   4.511   5.120  14.309 -0.9418  0.4925  0.2938
 7905TIP3   OH245205   3.936   4.675   5.519 -0.1675 -0.1180  0.0209
 7905TIP3    H145206   3.971   4.724   5.593  1.1707  0.0142 -0.6611
 7905TIP3    H245207   3.943   4.584   5.545 -0.6942 -0.0336  0.4680
 7906TIP3   OH245208   4.350   5.981   5.079 -0.0138 -0.2965  0.5312
 7906TIP3    H145209   4.295   5.904   5.059 -0.5317 -0.1057  1.1995
 7906TIP3    H245210   4.409   5.988   5.004  0.2422 -1.5348  0.6060
 7907TIP3   OH245211   5.941   2.050  16.170  0.0376 -0.8208 -0.1421
 7907TIP3    H145212   5.960   2.046  16.263  0.4517 -0.3858 -0.2108
 7907TIP3    H245213   5.909   2.138  16.154 -2.6554 -1.7128  0.0747
 7908TIP3   OH245214   2.971   0.281  12.687 -0.2879  0.5065 -0.0851
 7908TIP3    H145215   2.934   0.249  12.770  0.9380 -0.1088  0.2298
 7908TIP3    H245216   2.901   0.267  12.623 -0.0431 -2.1721  0.1795
 7909TIP3   OH245217   5.142   3.422  14.922 -0.2768  0.9779  0.0410
 7909TIP3    H145218   5.059   3.408  14.877 -0.4721  2.5242 -0.1009
 7909TIP3    H245219   5.175   3.334  14.940 -1.1443  0.3442 -1.3814
 7910TIP3   OH245220   1.228   6.394   5.754 -0.5794  0.1588  0.7469
 7910TIP3    H145221   1.192   6.378   5.842 -1.2617  2.8013  0.9716
 7910TIP3    H245222   1.280   6.473   5.763  0.7879 -0.5263 -0.8688
 7911TIP3   OH245223   4.643   0.357   4.890 -0.1590 -0.1498 -0.1806
 7911TIP3    H145224   4.622   0.355   4.984  0.0478 -0.6603 -0.1455
 7911TIP3    H245225   4.557   0.363   4.847 -0.2790 -0.3963  0.0251
 7912TIP3   OH245226   0.187   1.818   0.230 -0.1527  0.1768  0.0529
 7912TIP3    H145227   0.268   1.772   0.209 -2.0558 -3.0893 -0.5377
 7912TIP3    H245228   0.188   1.829   0.325  1.2849  0.7709 -0.0310
 7913TIP3   OH245229   2.412   2.661   1.788  0.4951  0.4775  0.0333
 7913TIP3    H145230   2.449   2.579   1.820  1.1735  1.1387  0.9766
 7913TIP3    H245231   2.318   2.648   1.792  0.5863  0.1525  1.2797
 7914TIP3   OH245232   6.025   0.963  12.056 -0.0211 -0.2242  0.6486
 7914TIP3    H145233   6.076   0.882  12.051  0.1270 -0.1585  1.0754
 7914TIP3    H245234   5.935   0.933  12.067 -0.3825 -0.3791 -2.3681
 7915TIP3   OH245235   2.695   6.332   0.655  0.6586 -0.4192 -0.1565
 7915TIP3    H145236   2.636   6.368   0.721  1.6825 -1.2525  1.2158
 7915TIP3    H245237   2.778   6.378   0.668  0.9229 -0.7123 -0.7487
 7916TIP3   OH245238   1.885   0.707   5.666  0.3731  0.4016 -0.2508
 7916TIP3    H145239   1.843   0.623   5.687 -0.1602  0.3740 -1.3832
 7916TIP3    H245240   1.891   0.752   5.751 -2.2828  0.5561 -0.0827
 7917TIP3   OH245241   6.796   1.049  13.820 -0.0268 -0.3909  0.3909
 7917TIP3    H145242   6.882   1.010  13.804 -0.1640 -0.6511  0.2870
 7917TIP3    H245243   6.742   1.020  13.746 -0.2232 -0.2832  0.4907
 7918TIP3   OH245244   6.214   2.568   3.281  0.3200  0.1918  0.2899
 7918TIP3    H145245   6.264   2.598   3.205 -0.3509  0.8874  0.1163
 7918TIP3    H245246   6.182   2.648   3.321 -0.0915 -0.2231  0.7902
 7919TIP3   OH245247   0.930   0.204   4.552 -0.4293 -0.2992  0.3610
 7919TIP3    H145248   1.008   0.208   4.496 -0.3566  0.8713  0.5291
 7919TIP3    H245249   0.959   0.155   4.629  0.3840  0.7868  0.7668
 7920TIP3   OH245250   2.081   2.861  14.569 -0.0284 -0.1070  0.5683
 7920TIP3    H145251   1.993   2.849  14.605  0.0147  0.8960  1.0082
 7920TIP3    H245252   2.067   2.876  14.475 -0.3738  0.7915  0.7631
 7921TIP3   OH245253   2.680   3.926  14.925 -0.1604 -0.0894  0.5594
 7921TIP3    H145254   2.611   3.917  14.990 -0.3159 -1.8920  0.1707
 7921TIP3    H245255   2.759   3.898  14.971  0.0004  0.1819  0.4488
 7922TIP3   OH245256   4.636   2.130  15.796 -0.2906  0.4045 -0.2607
 7922TIP3    H145257   4.644   2.087  15.711 -1.1607 -0.7057  0.2014
 7922TIP3    H245258   4.566   2.195  15.783 -1.0975 -0.4261 -0.1486
 7923TIP3   OH245259   4.933   5.064   2.299 -0.9982  0.1714 -0.4896
 7923TIP3    H145260   5.005   5.111   2.256 -0.2223 -0.5914 -0.0337
 7923TIP3    H245261   4.854   5.111   2.272 -0.3781  0.6585 -1.4648
 7924TIP3   OH245262   5.962   3.280  12.888  0.3040  0.1232 -0.0938
 7924TIP3    H145263   6.022   3.291  12.961 -0.1347 -0.4499  0.3522
 7924TIP3    H245264   6.014   3.302  12.810  0.1717  2.9518  0.5460
 7925TIP3   OH245265   3.366   6.114  15.124  0.0218  0.2121  0.2466
 7925TIP3    H145266   3.440   6.087  15.070 -1.2891 -1.7180 -0.6402
 7925TIP3    H245267   3.296   6.133  15.062 -0.7467  0.3658  1.1469
 7926TIP3   OH245268   3.346   3.763  11.727  0.2270  0.5347  1.0465
 7926TIP3    H145269   3.342   3.764  11.631 -2.0401  2.3531  1.1184
 7926TIP3    H245270   3.433   3.796  11.748  1.4356 -1.5890 -0.3723
 7927TIP3   OH245271   5.936   0.958   5.426 -0.3538 -0.1587 -0.1827
 7927TIP3    H145272   5.922   0.926   5.336 -1.2617 -0.1016 -0.0660
 7927TIP3    H245273   5.933   1.053   5.418  0.7378 -0.1188 -0.2692
 7928TIP3   OH245274   6.812   6.273   0.277 -0.4167  0.4992  0.7761
 7928TIP3    H145275   6.835   6.314   0.194 -0.2873  0.6112  0.8676
 7928TIP3    H245276   6.755   6.200   0.253  1.3889 -0.8242  0.3976
 7929TIP3   OH245277   1.132   6.628  15.923  0.2993 -0.1212  0.1923
 7929TIP3    H145278   1.227   6.624  15.939  0.4068 -0.4101 -0.4794
 7929TIP3    H245279   1.099   6.543  15.951  0.6731 -1.0990 -2.2035
 7930TIP3   OH245280   5.244   3.442  14.162 -0.1535  0.1360 -0.2813
 7930TIP3    H145281   5.195   3.485  14.093 -0.5965 -0.2038 -0.1764
 7930TIP3    H245282   5.310   3.507  14.189  0.4252  0.0440 -1.4461
 7931TIP3   OH245283   3.532   2.058  13.366 -0.1240  0.4614  0.1941
 7931TIP3    H145284   3.616   2.045  13.323 -0.4454  1.2756 -0.7099
 7931TIP3    H245285   3.551   2.113  13.441  0.4722 -1.1173  1.2153
 7932TIP3   OH245286   2.719   0.666   2.024  0.5904 -0.0002  0.4592
 7932TIP3    H145287   2.698   0.743   2.078 -1.2871 -1.0137  1.2461
 7932TIP3    H245288   2.746   0.600   2.088 -2.5018 -1.4951  0.3275
 7933TIP3   OH245289   6.630   0.706  13.497 -0.5174  0.3852 -0.2622
 7933TIP3    H145290   6.612   0.723  13.589  0.4640  1.0237 -0.1817
 7933TIP3    H245291   6.566   0.640  13.472  0.3237 -1.0839  1.3412
 7934TIP3   OH245292   6.303   4.959  12.649  0.3268 -0.0096  0.5638
 7934TIP3    H145293   6.267   5.044  12.626 -1.1597 -0.1087  2.4518
 7934TIP3    H245294   6.292   4.906  12.570 -2.2144  0.4472  0.5713
 7935TIP3   OH245295   6.402   6.484   3.478  0.0791 -0.0295 -0.1924
 7935TIP3    H145296   6.352   6.425   3.422 -1.8126  0.5229  0.8796
 7935TIP3    H245297   6.457   6.426   3.531  1.6906 -0.5736 -2.3479
 7936TIP3   OH245298   0.888   4.917  12.754  0.6066 -0.8173 -0.1455
 7936TIP3    H145299   0.813   4.870  12.790 -0.0843 -0.1812 -0.7608
 7936TIP3    H245300   0.891   4.999  12.803  0.6005 -0.6271 -0.4662
 7937TIP3   OH245301   3.853   1.529  13.319 -0.4193 -0.5324 -0.8033
 7937TIP3    H145302   3.801   1.548  13.397 -0.1513 -1.4061 -0.4082
 7937TIP3    H245303   3.870   1.615  13.280 -2.8362 -0.2952 -1.3969
 7938TIP3   OH245304   1.854   4.466   5.100 -0.2658 -0.2443  0.0225
 7938TIP3    H145305   1.871   4.473   5.006 -0.4926  1.0024  0.0687
 7938TIP3    H245306   1.776   4.520   5.114 -0.3315 -0.5659  0.9045
 7939TIP3   OH245307   3.901   4.713   0.248 -0.0426  0.2161  0.0103
 7939TIP3    H145308   3.949   4.777   0.196  0.5045 -0.4776 -0.3633
 7939TIP3    H245309   3.811   4.717   0.216  0.0196  0.6871 -0.1084
 7940TIP3   OH245310   0.287   4.970   5.094 -0.3143  0.2758  0.4701
 7940TIP3    H145311   0.365   5.010   5.134  0.5119  1.3602 -2.1565
 7940TIP3    H245312   0.213   5.010   5.140  0.6313 -0.0701  2.3390
 7941TIP3   OH245313   1.981   6.539   3.654  0.0675  0.4786 -0.5211
 7941TIP3    H145314   1.938   6.508   3.574 -0.6084 -0.5327  0.2366
 7941TIP3    H245315   1.910   6.553   3.716  0.7081  0.1672  0.2791
 7942TIP3   OH245316   5.076   4.133  17.097  0.1790  0.3334 -0.5159
 7942TIP3    H145317   5.144   4.119  17.164  0.8234 -1.3832 -1.4862
 7942TIP3    H245318   5.089   4.061  17.035 -3.6843 -1.1257  0.2127
 7943TIP3   OH245319   0.406   4.592  14.165 -0.1546  0.2374 -0.3439
 7943TIP3    H145320   0.312   4.607  14.168 -0.3914 -0.6969 -2.1883
 7943TIP3    H245321   0.426   4.547  14.247 -1.3222  0.3748  0.0218
 7944TIP3   OH245322   5.758   0.425  15.168 -0.0585  0.2935  0.2292
 7944TIP3    H145323   5.845   0.417  15.208 -1.2268 -2.2466  2.4736
 7944TIP3    H245324   5.744   0.340  15.126 -1.0286  1.0673 -1.0166
 7945TIP3   OH245325   4.905   6.293  14.377  0.6565  0.8482 -0.2906
 7945TIP3    H145326   4.823   6.290  14.426 -0.4498  0.1271 -2.1285
 7945TIP3    H245327   4.952   6.368  14.413 -0.4343  0.7656  1.3515
 7946TIP3   OH245328   4.974   5.031  16.882 -0.1895  0.3164 -0.2806
 7946TIP3    H145329   4.941   5.070  16.801 -2.6948  0.7016  0.8708
 7946TIP3    H245330   4.995   5.105  16.938  0.9236  0.0429 -0.3231
 7947TIP3   OH245331   5.164   1.489   1.025  0.0890 -0.0909 -0.1883
 7947TIP3    H145332   5.175   1.465   1.117  0.0078 -0.5721 -0.3016
 7947TIP3    H245333   5.252   1.496   0.990  0.1024 -0.8983 -0.3241
 7948TIP3   OH245334   4.463   2.182  12.444 -0.2163  0.3662 -0.1623
 7948TIP3    H145335   4.522   2.247  12.480  1.2312 -1.3181  0.5873
 7948TIP3    H245336   4.474   2.189  12.349 -0.9701  2.0019 -0.1380
 7949TIP3   OH245337   1.621   3.451  16.403  0.0557 -0.4605  0.1600
 7949TIP3    H145338   1.714   3.467  16.416 -0.3190  0.3822  1.9788
 7949TIP3    H245339   1.605   3.366  16.443  0.1021 -0.7935 -0.5127
 7950TIP3   OH245340   0.442   5.273  12.215 -0.5205 -0.3095 -0.4456
 7950TIP3    H145341   0.389   5.281  12.294 -1.1037 -1.3411 -0.7295
 7950TIP3    H245342   0.457   5.364  12.187  2.0555  0.2351  2.3927
 7951TIP3   OH245343   2.903   5.597   6.386  0.3623 -0.5816 -0.2254
 7951TIP3    H145344   2.976   5.660   6.388  1.5172 -1.8262 -1.6428
 7951TIP3    H245345   2.836   5.640   6.333 -0.3761  0.9869  1.8928
 7952TIP3   OH245346   4.015   5.869   3.066  0.0644  0.0746 -0.6594
 7952TIP3    H145347   4.096   5.863   3.117 -0.6185  1.6895  0.6500
 7952TIP3    H245348   4.042   5.908   2.983  0.7286  0.0310 -0.4683
 7953TIP3   OH245349   4.396   4.760   4.929 -0.3429  0.1929 -0.7378
 7953TIP3    H145350   4.408   4.698   5.001 -1.5520 -0.1785 -0.8576
 7953TIP3    H245351   4.360   4.838   4.970 -1.0276 -0.0174 -0.9347
 7954TIP3   OH245352   4.372   6.447  11.229 -0.1035  0.7204 -0.7635
 7954TIP3    H145353   4.460   6.464  11.263  0.4658  0.7483 -2.2019
 7954TIP3    H245354   4.332   6.389  11.294  1.0928  0.4559 -0.2438
 7955TIP3   OH245355   6.125   1.407   4.488 -0.0803 -0.2488 -1.2615
 7955TIP3    H145356   6.103   1.318   4.460 -2.5292 -0.2937  0.5248
 7955TIP3    H245357   6.109   1.406   4.583 -2.1933  2.6058 -1.5072
 7956TIP3   OH245358   5.300   0.291   3.342  0.2700  0.3181  0.1829
 7956TIP3    H145359   5.280   0.246   3.424 -1.9855  0.2295 -0.3911
 7956TIP3    H245360   5.394   0.280   3.332  0.4366 -0.5203  2.2551
 7957TIP3   OH245361   0.402   3.275   1.587 -0.0998  0.1772 -0.2394
 7957TIP3    H145362   0.350   3.355   1.598  1.1665  0.8535  0.9827
 7957TIP3    H245363   0.410   3.240   1.676 -1.7220 -2.0158 -0.9163
 7958TIP3   OH245364   0.430   3.387  11.975 -0.6797  0.9827 -0.2973
 7958TIP3    H145365   0.345   3.357  12.009 -0.7207 -0.1968 -1.4175
 7958TIP3    H245366   0.494   3.352  12.038 -0.8165 -0.5400 -0.9805
 7959TIP3   OH245367   3.260   4.306   2.576  0.7770  0.3448 -0.4456
 7959TIP3    H145368   3.231   4.282   2.488  0.1931  0.3010 -0.2405
 7959TIP3    H245369   3.282   4.223   2.618 -0.2577  0.2413 -0.0876
 7960TIP3   OH245370   5.322   2.052  15.219 -0.1641 -0.2238  0.4318
 7960TIP3    H145371   5.355   1.965  15.239  0.4829  0.0963  0.7784
 7960TIP3    H245372   5.345   2.066  15.127  0.8838  0.0893  0.7336
 7961TIP3   OH245373   0.937   0.538   3.666  0.5340 -0.5480 -0.4479
 7961TIP3    H145374   1.024   0.573   3.687  0.7364 -1.4856  0.2617
 7961TIP3    H245375   0.881   0.616   3.661  1.4132  0.0701 -0.9524
 7962TIP3   OH245376   1.040   0.303  15.683 -0.1233  0.3379 -0.3022
 7962TIP3    H145377   1.024   0.395  15.662 -0.9350  0.0561 -0.9534
 7962TIP3    H245378   1.134   0.291  15.672  0.0776  1.2358  0.3741
 7963TIP3   OH245379   6.133   1.961  17.238  0.1016  0.1785 -0.1190
 7963TIP3    H145380   6.074   1.908  17.291  0.9954 -0.7519 -0.0337
 7963TIP3    H245381   6.130   2.048  17.279 -0.0216 -0.2567  0.8171
 7964TIP3   OH245382   1.690   6.123   2.957 -0.1522  0.1991  0.1733
 7964TIP3    H145383   1.711   6.055   2.894 -0.0018  2.0932 -1.9007
 7964TIP3    H245384   1.627   6.180   2.912 -0.5405  1.2646  1.9593
 7965TIP3   OH245385   0.036   6.048  13.881  0.5301 -0.4241 -0.1778
 7965TIP3    H145386   0.107   6.079  13.939 -0.0494 -0.6938  0.6901
 7965TIP3    H245387   0.074   5.973  13.836  0.5609 -1.0565  0.8666
 7966TIP3   OH245388   6.470   3.629   0.393  0.2566 -0.4953  0.5590
 7966TIP3    H145389   6.390   3.578   0.380  0.3387 -0.8182  1.2560
 7966TIP3    H245390   6.540   3.565   0.385  0.5455  0.0810 -1.6606
 7967TIP3   OH245391   1.538   2.077  17.066  0.2517 -0.0263  0.1462
 7967TIP3    H145392   1.502   2.158  17.030  0.7496 -0.3531 -1.1125
 7967TIP3    H245393   1.580   2.104  17.148  2.3742  1.3975 -1.3585
 7968TIP3   OH245394   0.663   1.376   1.025 -0.0042 -0.2830 -0.3134
 7968TIP3    H145395   0.643   1.455   1.075  0.2307  0.0224 -0.7007
 7968TIP3    H245396   0.614   1.386   0.943 -2.3087 -1.8810  0.8117
 7969TIP3   OH245397   1.507   3.258   4.931  0.4176 -0.0457  0.0369
 7969TIP3    H145398   1.413   3.258   4.913  0.1310  2.4198  1.3967
 7969TIP3    H245399   1.540   3.182   4.884 -2.1239 -0.4472 -1.1691
 7970TIP3   OH245400   4.333   4.539  12.409 -0.3484 -0.6187 -0.1670
 7970TIP3    H145401   4.363   4.617  12.361 -1.0185 -0.6126 -0.5825
 7970TIP3    H245402   4.247   4.564  12.443  0.1116 -0.6399  1.0154
 7971TIP3   OH245403   0.208   4.263   5.205 -0.3362 -0.6287  0.0477
 7971TIP3    H145404   0.270   4.335   5.191 -1.3991  0.7709  2.2547
 7971TIP3    H245405   0.263   4.188   5.225  0.7260  0.1169 -0.0143
 7972TIP3   OH245406   4.049   5.806   6.199  0.6288  0.8082  0.7490
 7972TIP3    H145407   4.118   5.819   6.133  0.1988  0.3371  0.2038
 7972TIP3    H245408   3.984   5.752   6.155 -0.0437  1.1651  1.2997
 7973TIP3   OH245409   0.346   6.125  16.546  0.3992 -0.6166 -0.3836
 7973TIP3    H145410   0.437   6.138  16.573 -0.1936 -1.8037  2.2824
 7973TIP3    H245411   0.321   6.040  16.582 -2.2942  0.4251  0.3622
 7974TIP3   OH245412   2.490   1.302   3.995  0.1390 -0.2518  0.3654
 7974TIP3    H145413   2.446   1.217   3.987 -0.0618 -0.1100 -0.1029
 7974TIP3    H245414   2.461   1.350   3.918  1.4272 -0.2907 -0.1527
 7975TIP3   OH245415   2.903   1.769  15.117 -0.0291 -0.0423 -0.4607
 7975TIP3    H145416   2.987   1.771  15.071 -1.2227  0.6941 -2.6658
 7975TIP3    H245417   2.918   1.821  15.196  1.0802  1.7585 -1.8105
 7976TIP3   OH245418   5.131   0.382   5.233  0.3622  0.1946  0.0870
 7976TIP3    H145419   5.182   0.432   5.168 -0.9737  0.7161 -0.5910
 7976TIP3    H245420   5.145   0.291   5.209 -0.2768  0.3866 -1.0876
 7977TIP3   OH245421   1.836   3.045  17.022  0.2319  0.0643  0.1978
 7977TIP3    H145422   1.784   3.081  17.094  0.6091 -0.2461  0.6295
 7977TIP3    H245423   1.919   3.021  17.063  0.5008  0.0246 -0.3740
 7978TIP3   OH245424   0.193   0.792  14.776 -0.3383 -0.4789  0.3961
 7978TIP3    H145425   0.201   0.784  14.680 -0.5157  0.2347  0.3221
 7978TIP3    H245426   0.280   0.771  14.809 -0.0089  0.2771  0.0171
 7979TIP3   OH245427   4.634   1.915  16.854 -0.0564 -0.1100  0.0384
 7979TIP3    H145428   4.572   1.844  16.844 -1.7005  1.2582  0.2889
 7979TIP3    H245429   4.590   1.992  16.817 -0.0844  1.7235  3.6599
 7980TIP3   OH245430   2.604   2.709   2.777 -0.3129  0.2599 -0.5735
 7980TIP3    H145431   2.647   2.760   2.845  1.2935  0.1042 -1.4612
 7980TIP3    H245432   2.646   2.623   2.781 -2.1671 -0.6524  0.1087
 7981TIP3   OH245433   3.117   1.120   4.030  0.1341  0.2908  0.3718
 7981TIP3    H145434   3.174   1.130   3.954 -0.1865 -0.9217 -0.0426
 7981TIP3    H245435   3.166   1.064   4.090 -0.6918 -0.9573 -0.0876
 7982TIP3   OH245436   6.701   5.846  12.347  0.2492 -0.2190 -0.9287
 7982TIP3    H145437   6.731   5.755  12.345 -0.8940 -0.7347  2.9875
 7982TIP3    H245438   6.606   5.840  12.346  0.1484  1.0899 -3.3975
 7983TIP3   OH245439   2.550   2.249   3.292 -0.2509  0.4184  0.2736
 7983TIP3    H145440   2.508   2.233   3.376 -0.9961 -1.2336 -0.3747
 7983TIP3    H245441   2.534   2.168   3.242 -1.7745  2.1730 -2.2356
 7984TIP3   OH245442   0.804   5.842  16.158 -0.0985  0.2493 -0.6628
 7984TIP3    H145443   0.764   5.840  16.071 -0.5235  1.4985 -0.5212
 7984TIP3    H245444   0.755   5.777  16.209  0.8759 -1.2745 -1.6358
 7985TIP3   OH245445   3.516   5.843   2.765  0.1461  0.1161 -0.2788
 7985TIP3    H145446   3.580   5.913   2.780  0.5072 -0.3472  0.4066
 7985TIP3    H245447   3.554   5.767   2.810 -1.0637 -0.0616  0.4584
 7986TIP3   OH245448   4.470   2.236   1.853  0.8392  0.2972 -0.2457
 7986TIP3    H145449   4.516   2.290   1.789  1.3649  0.4499  0.2525
 7986TIP3    H245450   4.486   2.146   1.824  0.7337  0.3800 -0.5592
 7987TIP3   OH245451   1.614   1.185  13.761 -0.4783 -0.1193 -0.5405
 7987TIP3    H145452   1.669   1.189  13.683 -0.5780 -1.3888 -0.6922
 7987TIP3    H245453   1.623   1.095  13.791 -0.3780  0.3847  0.9630
 7988TIP3   OH245454   6.355   6.037  13.336 -0.1397  0.8796 -0.1878
 7988TIP3    H145455   6.402   6.036  13.420 -0.5134  1.7017  0.0338
 7988TIP3    H245456   6.307   5.954  13.335 -0.4209  1.0253  0.5798
 7989TIP3   OH245457   5.438   2.188   5.632  0.1287 -0.0475 -0.1885
 7989TIP3    H145458   5.454   2.230   5.716  0.2956 -0.9902  0.2580
 7989TIP3    H245459   5.523   2.152   5.606 -0.0646 -0.3253 -0.4487
 7990TIP3   OH245460   3.691   5.697   2.388  0.3728 -0.0949 -0.1757
 7990TIP3    H145461   3.768   5.746   2.419  0.1223  0.5278 -0.5286
 7990TIP3    H245462   3.622   5.719   2.450  0.7616 -1.5625  0.8216
 7991TIP3   OH245463   2.310   3.328  11.997  0.1426 -0.0032  0.4899
 7991TIP3    H145464   2.312   3.269  11.922 -2.0635  0.5216 -0.0125
 7991TIP3    H245465   2.295   3.414  11.959  1.3064  0.6121  1.3772
 7992TIP3   OH245466   0.123   0.206   2.708  0.1126 -0.0587 -0.0421
 7992TIP3    H145467   0.135   0.286   2.760 -0.6743 -0.5163  0.8791
 7992TIP3    H245468   0.143   0.135   2.769 -2.2639 -0.6558  0.0998
 7993TIP3   OH245469   4.434   0.453  12.328  0.0225  0.5814 -0.4819
 7993TIP3    H145470   4.377   0.388  12.370  1.1056 -0.2918 -0.3179
 7993TIP3    H245471   4.433   0.429  12.236 -1.3718  1.7401 -0.7896
 7994TIP3   OH245472   3.831   3.340   0.285  0.0382  0.6308  0.4066
 7994TIP3    H145473   3.855   3.340   0.192  0.4573  0.3549  0.5171
 7994TIP3    H245474   3.737   3.320   0.285 -0.1375  1.4331 -0.0044
 7995TIP3   OH245475   0.617   1.781  11.895  0.4550 -0.2381 -0.0065
 7995TIP3    H145476   0.704   1.818  11.880 -0.7071  2.7821  0.3139
 7995TIP3    H245477   0.613   1.765  11.989  0.2028  0.9226  0.1886
 7996TIP3   OH245478   0.043   0.619  13.359 -0.2078  0.0270 -0.0076
 7996TIP3    H145479   0.057   0.535  13.402  0.1676 -0.3795 -0.9275
 7996TIP3    H245480  -0.002   0.672  13.425 -0.0275 -0.7358  0.7356
 7997TIP3   OH245481   4.457   5.657  15.493 -0.8486 -0.5124  0.6778
 7997TIP3    H145482   4.366   5.631  15.483 -1.3011  1.2219  0.1967
 7997TIP3    H245483   4.455   5.732  15.553  0.0599  0.6911 -0.7558
 7998TIP3   OH245484   4.708   4.240   3.775  0.3691  0.4920  0.2862
 7998TIP3    H145485   4.743   4.260   3.862  0.5426 -0.3036  0.4000
 7998TIP3    H245486   4.660   4.319   3.750 -0.1244  0.5239  1.3191
 7999TIP3   OH245487   3.375   1.826   2.215 -0.1446 -0.3273  0.5830
 7999TIP3    H145488   3.380   1.838   2.120 -0.5438  1.5296  0.7747
 7999TIP3    H245489   3.418   1.742   2.231  0.5839 -0.3047 -1.1681
 8000TIP3   OH245490   0.877   2.850  16.525  0.0645 -0.5359 -0.0051
 8000TIP3    H145491   0.965   2.846  16.488  0.8615 -0.8553  1.8383
 8000TIP3    H245492   0.890   2.881  16.615 -1.8301  0.5178 -0.0633
 8001TIP3   OH245493   2.859   2.222  14.316  0.3872  0.3933  0.0488
 8001TIP3    H145494   2.916   2.212  14.392 -1.1705  0.0834  1.1691
 8001TIP3    H245495   2.881   2.148  14.260 -1.1338 -1.5048  1.9170
 8002TIP3   OH245496   5.744   4.607  13.783  0.4052 -0.0150  0.4408
 8002TIP3    H145497   5.717   4.662  13.709 -0.5724 -0.4539  0.4680
 8002TIP3    H245498   5.663   4.572  13.818  1.0201 -1.5781  0.3448
 8003TIP3   OH245499   2.782   3.084   1.943  0.3181  0.0657 -0.0339
 8003TIP3    H145500   2.768   2.989   1.946  1.2351 -0.0489  0.5426
 8003TIP3    H245501   2.731   3.118   2.016  0.2288 -0.0105 -0.0602
 8004TIP3   OH245502   1.445   3.708  15.453  0.0365 -0.3609 -0.5834
 8004TIP3    H145503   1.461   3.651  15.378  0.6497  0.0504 -0.7766
 8004TIP3    H245504   1.390   3.778  15.419 -0.0188 -0.3889 -0.5528
 8005TIP3   OH245505   2.191   6.728  14.343 -0.3555 -0.0116 -0.3514
 8005TIP3    H145506   2.210   6.784  14.418 -0.8834 -2.4057  1.6538
 8005TIP3    H245507   2.272   6.680  14.328 -0.6308 -0.4333 -0.4976
 8006TIP3   OH245508   2.326   1.969  14.229 -0.1157  0.0393  0.1186
 8006TIP3    H145509   2.315   2.007  14.316 -0.7186 -0.0618  0.0884
 8006TIP3    H245510   2.270   2.021  14.172 -1.0585 -0.9606  0.1031
 8007TIP3   OH245511   3.733   3.616  15.732 -0.2036  0.2008 -0.4621
 8007TIP3    H145512   3.703   3.707  15.728  0.7103  0.5079 -0.3558
 8007TIP3    H245513   3.727   3.585  15.642 -3.1627 -0.5122 -0.0915
 8008TIP3   OH245514   6.639   1.865   3.628 -0.5083  0.9925 -0.1785
 8008TIP3    H145515   6.553   1.903   3.647 -0.7324  1.0582 -1.2991
 8008TIP3    H245516   6.673   1.838   3.713 -1.7195  0.7934  0.2415
 8009TIP3   OH245517   4.959   0.184  10.819  0.0182  0.7892 -0.3734
 8009TIP3    H145518   4.879   0.174  10.871 -0.1581  0.0812 -0.7644
 8009TIP3    H245519   4.956   0.275  10.788 -0.9454  0.5998 -0.8656
 8010TIP3   OH245520   0.554   0.530  12.070  0.0049  0.3326  0.1943
 8010TIP3    H145521   0.539   0.472  11.994  0.5923  0.6256 -0.1482
 8010TIP3    H245522   0.526   0.478  12.145 -1.3459  0.3278 -0.2914
 8011TIP3   OH245523   5.202   4.149   1.899 -0.0142  0.3803 -0.4877
 8011TIP3    H145524   5.229   4.058   1.889  0.4476  0.5267 -0.6133
 8011TIP3    H245525   5.149   4.168   1.821  0.8548  0.5577 -1.0415
 8012TIP3   OH245526   0.394   0.613  15.871  0.9074 -0.5618  0.3941
 8012TIP3    H145527   0.377   0.547  15.939 -0.4998  0.5948  1.1964
 8012TIP3    H245528   0.420   0.691  15.920 -1.0292  0.5570 -0.3330
 8013TIP3   OH245529   4.579   3.640   5.560  0.2816  0.3931 -0.4222
 8013TIP3    H145530   4.571   3.597   5.645  1.7738  1.2647  0.1618
 8013TIP3    H245531   4.638   3.584   5.510 -0.1094  0.2111 -0.6899
 8014TIP3   OH245532   1.078   6.517   1.289 -0.3602 -0.1879  0.1710
 8014TIP3    H145533   1.079   6.570   1.369  0.0161  3.1873 -1.9729
 8014TIP3    H245534   1.145   6.555   1.233 -0.6688 -2.4219 -1.8203
 8015TIP3   OH245535   0.972   3.089  14.793 -0.2452  0.6557 -0.8159
 8015TIP3    H145536   1.031   3.101  14.719 -0.2674 -0.4555 -1.0205
 8015TIP3    H245537   0.900   3.035  14.759 -0.1769  0.0127  0.0432
 8016TIP3   OH245538   5.114   5.249  16.430 -0.0652 -0.2467  0.1604
 8016TIP3    H145539   5.091   5.324  16.485  0.6651  1.4061 -1.7145
 8016TIP3    H245540   5.039   5.238  16.372  1.0530  0.9975 -1.5843
 8017TIP3   OH245541   3.497   3.044  11.625  0.2957  0.4679  0.5027
 8017TIP3    H145542   3.441   2.975  11.589  2.7493 -0.4012 -1.8103
 8017TIP3    H245543   3.477   3.044  11.719 -2.2878 -0.9785  0.0140
 8018TIP3   OH245544   4.628   0.586  16.629 -0.0249 -0.4297 -0.5939
 8018TIP3    H145545   4.633   0.677  16.657 -0.3196 -0.4328 -0.5301
 8018TIP3    H245546   4.691   0.580  16.557  1.8479 -0.7836  1.0252
 8019TIP3   OH245547   0.345   1.588  12.262 -0.4278 -0.5018 -0.2884
 8019TIP3    H145548   0.364   1.587  12.168  0.5152 -0.2520 -0.1068
 8019TIP3    H245549   0.286   1.662  12.273  0.1383 -0.0071 -0.5580
 8020TIP3   OH245550   1.738   2.362   4.327  0.6658  0.0416 -0.1850
 8020TIP3    H145551   1.677   2.429   4.299  0.1120 -0.6950 -0.7622
 8020TIP3    H245552   1.687   2.304   4.383  0.7734 -0.6830 -0.8255
 8021TIP3   OH245553   1.480   5.964   4.818  0.1395  0.1888 -0.2532
 8021TIP3    H145554   1.466   5.953   4.724 -0.2086  1.0925 -0.3153
 8021TIP3    H245555   1.568   5.930   4.833  1.4596  2.8314 -1.4541
 8022TIP3   OH245556   5.113   2.645  16.207 -0.0973 -0.4268 -0.4802
 8022TIP3    H145557   5.074   2.716  16.257  0.5450 -0.6622  0.3736
 8022TIP3    H245558   5.113   2.676  16.116 -0.8475  0.1905 -0.2734
 8023TIP3   OH245559   6.038   6.606  16.683 -0.3189  0.0088 -0.5183
 8023TIP3    H145560   6.055   6.540  16.750  0.3198  0.6005 -0.0866
 8023TIP3    H245561   5.950   6.587  16.651 -0.1068 -1.1000 -0.4577
 8024TIP3   OH245562   4.026   1.205  10.751  0.8081  0.3340 -0.5062
 8024TIP3    H145563   4.045   1.290  10.790 -0.2013 -0.0332  0.7968
 8024TIP3    H245564   4.093   1.195  10.683  1.4676  1.7754 -0.0931
 8025TIP3   OH245565   2.894   0.843  14.843  0.3055  0.3321 -0.1657
 8025TIP3    H145566   2.922   0.795  14.921 -0.6574 -0.3174 -0.2072
 8025TIP3    H245567   2.950   0.920  14.841  0.1096  0.5395  1.3742
 8026TIP3   OH245568   2.690   3.621  12.711 -0.6462  0.0072  0.7126
 8026TIP3    H145569   2.700   3.629  12.616  1.1688  0.2373  0.9078
 8026TIP3    H245570   2.630   3.547  12.722 -0.3893 -0.4190 -0.6017
 8027TIP3   OH245571   6.140   5.213  14.305 -0.9293  0.1356 -0.7701
 8027TIP3    H145572   6.127   5.204  14.399  0.2713  0.0266 -0.5981
 8027TIP3    H245573   6.121   5.127  14.269  1.3238 -0.6054 -0.2754
 8028TIP3   OH245574   1.650   3.725  13.387 -0.3718  0.1982  0.5433
 8028TIP3    H145575   1.586   3.795  13.397 -1.1519 -0.4974  0.4305
 8028TIP3    H245576   1.622   3.678  13.309  0.4452  0.0721  0.3265
 8029TIP3   OH245577   4.601   3.614   1.614 -0.6118 -0.3202 -0.0675
 8029TIP3    H145578   4.508   3.613   1.636 -0.8767  0.0318 -1.1025
 8029TIP3    H245579   4.625   3.521   1.606 -1.4234 -0.3954 -1.9280
 8030TIP3   OH245580   4.354   3.625   2.129  0.3003 -0.5626 -0.2221
 8030TIP3    H145581   4.406   3.700   2.098  1.1282 -0.9824  0.1348
 8030TIP3    H245582   4.375   3.555   2.068  0.0685 -0.7007 -0.1404
 8031TIP3   OH245583   5.670   1.209   4.677  0.0907  0.3424  0.0788
 8031TIP3    H145584   5.680   1.227   4.770 -1.4072 -1.3723  0.6122
 8031TIP3    H245585   5.737   1.144   4.657  1.0899  1.4683 -0.2988
 8032TIP3   OH245586   1.399   5.802  14.615 -0.0960 -0.1288  0.4940
 8032TIP3    H145587   1.318   5.853  14.615 -0.3830 -0.5720  0.0694
 8032TIP3    H245588   1.469   5.867  14.614 -0.4550  0.2586  0.2234
 8033TIP3   OH245589   5.737   4.233  12.627 -0.2988  0.0251 -0.3513
 8033TIP3    H145590   5.691   4.240  12.711 -0.9312 -0.0186 -0.6925
 8033TIP3    H245591   5.789   4.153  12.635 -0.4513 -0.0443 -0.0444
 8034TIP3   OH245592   5.890   5.733  15.909  0.5539  0.3056 -0.1680
 8034TIP3    H145593   5.865   5.660  15.852 -0.8461  1.2546 -0.8112
 8034TIP3    H245594   5.863   5.705  15.997  0.4964 -0.1714 -0.3369
 8035TIP3   OH245595   0.901   5.974   3.635 -0.5134  0.3045 -0.6618
 8035TIP3    H145596   0.917   6.019   3.718  0.8780 -1.8729  0.3007
 8035TIP3    H245597   0.981   5.987   3.585 -0.5989 -0.0220 -0.8860
 8036TIP3   OH245598   5.739   5.366  14.170 -0.1591  0.0479 -0.2554
 8036TIP3    H145599   5.772   5.399  14.254 -2.0328  0.8456  0.2098
 8036TIP3    H245600   5.767   5.275  14.167  4.8257  1.4862 -1.3992
 8037TIP3   OH245601   0.677   5.726  10.670  0.2610  0.4423 -0.1468
 8037TIP3    H145602   0.591   5.766  10.660  0.9748  1.6647 -1.5991
 8037TIP3    H245603   0.728   5.760  10.596  1.5736 -1.3622 -0.1063
 8038TIP3   OH245604   6.151   2.194  12.160 -0.5132 -0.2965 -0.2602
 8038TIP3    H145605   6.111   2.146  12.088 -4.4664 -0.7989  2.0995
 8038TIP3    H245606   6.095   2.272  12.171 -0.2002 -0.3801  2.3764
 8039TIP3   OH245607   5.562   5.333   1.618  0.4886 -0.3432  0.2513
 8039TIP3    H145608   5.647   5.355   1.656  0.2798 -0.9719  1.1131
 8039TIP3    H245609   5.499   5.362   1.684 -0.0643  1.5877 -1.0777
 8040TIP3   OH245610   5.881   4.305   6.246  0.9442  0.1289  0.4617
 8040TIP3    H145611   5.844   4.220   6.269  0.2014  0.2150 -0.4056
 8040TIP3    H245612   5.808   4.366   6.253  1.3310  0.5966  0.4697
 8041TIP3   OH245613   5.596   5.131   2.580  0.4981  0.5850 -0.5263
 8041TIP3    H145614   5.681   5.115   2.539  0.5961  0.4441 -0.2695
 8041TIP3    H245615   5.618   5.161   2.669  0.2282 -1.7605  0.3497
 8042TIP3   OH245616   0.401   0.260   2.221  0.0675 -0.0181 -0.0269
 8042TIP3    H145617   0.348   0.315   2.279  1.0066  0.1125  0.7169
 8042TIP3    H245618   0.420   0.182   2.273  0.5692 -0.0834 -0.3049
 8043TIP3   OH245619   2.811   4.206  13.280 -0.6317 -0.6638 -0.7051
 8043TIP3    H145620   2.808   4.142  13.209 -0.7717  1.0123 -2.2560
 8043TIP3    H245621   2.754   4.277  13.250  0.9120  0.9901  0.1472
 8044TIP3   OH245622   2.170   6.719   3.624 -0.4451  0.4044  0.1827
 8044TIP3    H145623   2.206   6.706   3.536  1.3638  0.9647  0.8069
 8044TIP3    H245624   2.093   6.663   3.627  0.0440 -0.3923 -1.4314
 8045TIP3   OH245625   3.972   5.217  15.322  0.4421 -0.1489 -0.0169
 8045TIP3    H145626   3.893   5.271  15.319  0.5153 -0.0799 -0.7715
 8045TIP3    H245627   3.984   5.198  15.415  0.4516  1.2074  0.2843
 8046TIP3   OH245628   5.410   4.120   4.850 -0.3312 -0.1144  0.0848
 8046TIP3    H145629   5.472   4.063   4.804  0.7523  0.1845  1.1355
 8046TIP3    H245630   5.465   4.188   4.890 -1.6530  1.9587 -1.5364
 8047TIP3   OH245631   2.955   1.626   2.468 -0.2779  0.4216  0.2114
 8047TIP3    H145632   3.002   1.642   2.386  1.1065 -0.1236  0.8908
 8047TIP3    H245633   2.995   1.685   2.531  0.1442 -0.7075  1.0192
 8048TIP3   OH245634   4.366   3.204   1.773  0.0175 -0.0019 -0.2669
 8048TIP3    H145635   4.325   3.118   1.776 -3.2559  1.5264  1.4133
 8048TIP3    H245636   4.348   3.236   1.684 -1.0430 -0.0101 -0.0568
 8049TIP3   OH245637   5.899   4.505   4.273 -0.2078  0.0322 -0.2504
 8049TIP3    H145638   5.948   4.434   4.314 -1.0520 -0.5063 -0.1523
 8049TIP3    H245639   5.960   4.542   4.209  1.1073  0.8879  1.4700
 8050TIP3   OH245640   6.753   0.920   5.026 -0.0310 -0.2985 -0.0221
 8050TIP3    H145641   6.712   1.005   5.043 -0.7691 -0.6621  0.0570
 8050TIP3    H245642   6.743   0.872   5.109  0.7293 -0.3217  0.0567
 8051TIP3   OH245643   3.592   2.460   0.415 -0.2420  0.3062 -0.3888
 8051TIP3    H145644   3.582   2.423   0.328  0.8884 -1.7365  0.3364
 8051TIP3    H245645   3.683   2.441   0.440 -0.9250 -0.2717  1.7554
 8052TIP3   OH245646   1.568   6.591  13.188 -0.1507  0.2362 -0.1111
 8052TIP3    H145647   1.558   6.498  13.167  1.9711 -0.6902  2.6025
 8052TIP3    H245648   1.597   6.631  13.106  3.6196 -2.4245 -0.2548
 8053TIP3   OH245649   3.454   3.770   3.207 -0.0486  0.1491  0.2489
 8053TIP3    H145650   3.539   3.814   3.206 -0.1703  0.4073  0.7579
 8053TIP3    H245651   3.418   3.791   3.293 -0.4937 -0.2167  0.1527
 8054TIP3   OH245652   0.187   0.267   1.054  0.4079 -0.7439  0.5309
 8054TIP3    H145653   0.096   0.259   1.083 -0.0275  0.1170 -0.5423
 8054TIP3    H245654   0.189   0.223   0.969 -0.0923  3.0683 -1.5698
 8055TIP3   OH245655   6.105   2.939  17.080 -0.3026 -0.2041 -0.4402
 8055TIP3    H145656   6.142   3.016  17.123  0.1116 -0.1600 -0.8698
 8055TIP3    H245657   6.127   2.866  17.138  0.0408 -0.1127 -0.4578
 8056TIP3   OH245658   0.588   2.821   4.341  0.1769  0.1599  0.3505
 8056TIP3    H145659   0.497   2.798   4.320  0.3198  0.0947 -0.2027
 8056TIP3    H245660   0.637   2.740   4.326  0.4589  0.4271 -0.2074
 8057TIP3   OH245661   4.070   3.291  10.587 -0.5459 -0.3221 -0.4551
 8057TIP3    H145662   4.014   3.323  10.658 -0.0670 -1.2335  0.3467
 8057TIP3    H245663   4.154   3.332  10.603  0.3285 -2.6093  1.0990
 8058TIP3   OH245664   2.282   6.353  14.781 -0.2424  0.0727  0.5736
 8058TIP3    H145665   2.363   6.348  14.730 -0.2655  0.1693  0.5269
 8058TIP3    H245666   2.246   6.264  14.777  0.2841 -0.1813  1.2932
 8059TIP3   OH245667   0.596   2.094  11.724 -0.0766 -0.5799  0.6614
 8059TIP3    H145668   0.504   2.078  11.704  0.2173 -0.6050 -0.6652
 8059TIP3    H245669   0.642   2.084  11.641  0.8149  1.8950  0.8016
 8060TIP3   OH245670   1.429   4.481  13.335 -0.7331  0.2190 -0.0125
 8060TIP3    H145671   1.510   4.531  13.344 -1.3008  1.4540 -1.5146
 8060TIP3    H245672   1.391   4.481  13.423  0.6822 -0.0035  0.6096
 8061TIP3   OH245673   3.382   3.519  11.896 -0.1375 -0.6289 -0.4094
 8061TIP3    H145674   3.352   3.574  11.824  1.2466 -1.9700 -2.0680
 8061TIP3    H245675   3.302   3.497  11.944 -0.9919  0.9141 -1.0743
 8062TIP3   OH245676   4.820   5.736   0.766  0.2350 -0.0812  0.1560
 8062TIP3    H145677   4.858   5.769   0.848  0.2500 -2.0565  0.9684
 8062TIP3    H245678   4.883   5.673   0.734 -0.5135 -0.4623 -0.5723
 8063TIP3   OH245679   1.032   0.355  12.249 -0.5652 -0.0978 -0.3431
 8063TIP3    H145680   0.980   0.430  12.219 -1.8668  0.2531  2.5783
 8063TIP3    H245681   1.121   0.389  12.256 -0.8675  0.7456 -0.5164
 8064TIP3   OH245682   4.707   5.214  13.986  0.3078  0.3572 -0.1822
 8064TIP3    H145683   4.779   5.275  13.975  0.4768  0.0006 -1.1684
 8064TIP3    H245684   4.748   5.127  13.982  0.2160  0.1759  2.3191
 8065TIP3   OH245685   4.183   5.505  14.357  0.1002  0.3203 -0.1883
 8065TIP3    H145686   4.116   5.571  14.340 -0.9193 -1.0260 -1.4845
 8065TIP3    H245687   4.247   5.550  14.413 -0.6143  2.3777 -0.9638
 8066TIP3   OH245688   1.581   4.598   5.757 -0.3311 -0.6552  0.1356
 8066TIP3    H145689   1.578   4.514   5.803  0.0125 -1.0470 -0.5476
 8066TIP3    H245690   1.670   4.602   5.721 -0.4397 -0.1255 -0.0726
 8067TIP3   OH245691   3.907   6.726  14.287 -0.3994  0.0911  0.2110
 8067TIP3    H145692   3.958   6.757  14.212 -0.5046 -0.6200 -0.1659
 8067TIP3    H245693   3.973   6.695  14.349 -0.2924  1.1141  0.6157
 8068TIP3   OH245694   6.676   4.154  13.756 -0.2721  0.2412 -0.0138
 8068TIP3    H145695   6.607   4.094  13.783 -2.0738  2.3728  0.2659
 8068TIP3    H245696   6.732   4.163  13.833 -0.5716 -0.2863  0.2662
 8069TIP3   OH245697   2.126   0.090   1.949 -0.3820 -0.2083 -0.0640
 8069TIP3    H145698   2.032   0.099   1.959 -0.4168  1.0852 -1.2850
 8069TIP3    H245699   2.155   0.175   1.916  1.0880 -0.8570 -0.5219
 8070TIP3   OH245700   1.045   2.086  16.454 -1.2577 -0.5979 -0.4283
 8070TIP3    H145701   1.012   2.014  16.400  0.1140 -1.4680 -0.1117
 8070TIP3    H245702   1.099   2.043  16.521 -0.6344  0.7017 -0.0905
 8071TIP3   OH245703   2.838   4.810  13.862 -0.2269  0.0485 -0.6860
 8071TIP3    H145704   2.811   4.859  13.940  0.8987  0.4109 -0.5013
 8071TIP3    H245705   2.814   4.866  13.788 -1.4763 -0.3818 -0.6135
 8072TIP3   OH245706   0.446   1.209  14.081  0.3032 -0.2681  0.0317
 8072TIP3    H145707   0.374   1.222  14.142  0.5705 -0.0163  0.2959
 8072TIP3    H245708   0.496   1.290  14.085  2.9611 -1.9681  2.9783
 8073TIP3   OH245709   3.271   3.390   3.224  0.2966 -0.4690 -0.1305
 8073TIP3    H145710   3.303   3.437   3.147 -0.1971  0.3746  0.1675
 8073TIP3    H245711   3.297   3.299   3.210  0.4714 -0.2625 -1.1495
 8074TIP3   OH245712   2.934   0.887  12.128 -0.2188 -0.2435  0.5792
 8074TIP3    H145713   3.021   0.856  12.103  0.2787  0.5754  1.2956
 8074TIP3    H245714   2.890   0.904  12.044  0.9536  1.1117  0.2118
 8075TIP3   OH245715   1.013   5.640   1.590  0.3137 -0.8200  0.1809
 8075TIP3    H145716   1.103   5.672   1.592  0.2198 -0.6197  2.7773
 8075TIP3    H245717   1.006   5.593   1.506  1.7490  2.1420 -1.6833
 8076TIP3   OH245718   0.019   4.389  15.968 -0.0049  0.1648 -0.0824
 8076TIP3    H145719   0.078   4.385  15.892  1.1933  1.0077  0.7863
 8076TIP3    H245720   0.066   4.342  16.037  0.8206  3.0577  1.3868
 8077TIP3   OH245721   5.693   5.357   0.864  0.1620 -0.2529 -0.0789
 8077TIP3    H145722   5.759   5.320   0.922 -0.8214 -0.0745  1.1735
 8077TIP3    H245723   5.736   5.433   0.824  1.5399 -1.5825 -1.1859
 8078TIP3   OH245724   4.901   4.631   3.276  1.0558  0.3945  0.4790
 8078TIP3    H145725   4.874   4.692   3.345  2.0791  1.2018  0.1775
 8078TIP3    H245726   4.819   4.600   3.238  0.4988  0.4643  1.5978
 8079TIP3   OH245727   6.366   2.696   6.001 -0.1659 -0.0633  0.1534
 8079TIP3    H145728   6.319   2.617   5.972 -3.1127  1.7426 -0.2706
 8079TIP3    H245729   6.423   2.718   5.928 -0.7600 -0.7012 -0.5180
 8080TIP3   OH245730   1.102   4.257   4.487  0.1042 -0.0428 -0.1126
 8080TIP3    H145731   1.025   4.314   4.493 -0.5896 -0.9787 -0.1248
 8080TIP3    H245732   1.069   4.176   4.448  0.7219 -1.1365  1.6124
 8081TIP3   OH245733   6.522   6.803  13.809 -0.3937  0.8095 -0.7863
 8081TIP3    H145734   6.446   6.860  13.804  0.9678  2.7446  0.1069
 8081TIP3    H245735   6.581   6.847  13.870  1.4191 -0.6927 -1.4072
 8082TIP3   OH245736   1.355   3.485  13.425  0.2149 -0.1717 -0.2671
 8082TIP3    H145737   1.410   3.511  13.351 -0.2112 -1.0559 -0.9231
 8082TIP3    H245738   1.402   3.413  13.466  0.1730 -0.0724 -0.0484
 8083TIP3   OH245739   2.149   5.646   2.576 -0.2922  0.2343 -0.1603
 8083TIP3    H145740   2.147   5.605   2.662  0.2861 -0.1241 -0.3146
 8083TIP3    H245741   2.081   5.714   2.580 -0.4235  0.0670  0.4952
 8084TIP3   OH245742   1.761   2.484  11.782 -0.2375  0.3264 -0.1195
 8084TIP3    H145743   1.760   2.501  11.687  1.4444  1.2721 -0.0006
 8084TIP3    H245744   1.845   2.440  11.797 -1.4957 -1.8985  0.6218
 8085TIP3   OH245745   3.219   6.572   2.449  0.3092  0.6670  0.5609
 8085TIP3    H145746   3.279   6.619   2.506  0.0804  0.9007  0.6100
 8085TIP3    H245747   3.138   6.623   2.452 -0.8975 -1.2838  2.8676
 8086TIP3   OH245748   2.941   5.349  17.286 -0.2384 -0.0439  0.2131
 8086TIP3    H145749   2.906   5.342  17.197 -0.9653  2.4321  0.2649
 8086TIP3    H245750   2.873   5.309  17.341  1.0538 -3.3188 -0.4594
 8087TIP3   OH245751   3.680   2.551  10.833  0.2471 -0.1436  0.1545
 8087TIP3    H145752   3.650   2.465  10.862  1.8159 -0.7174  0.1239
 8087TIP3    H245753   3.775   2.547  10.840  0.3898  1.2776 -0.7297
 8088TIP3   OH245754   2.751   4.108   0.552 -0.4135  0.0878 -0.1953
 8088TIP3    H145755   2.794   4.178   0.503 -0.5911  0.4213  0.1222
 8088TIP3    H245756   2.695   4.153   0.615  1.4613 -0.2905  1.8122
 8089TIP3   OH245757   4.012   5.090  11.364 -0.0967  0.1412 -0.3335
 8089TIP3    H145758   3.961   5.167  11.339 -0.7067  0.2752  1.2697
 8089TIP3    H245759   4.069   5.121  11.435  1.3042 -0.3251 -1.2291
 8090TIP3   OH245760   6.815   3.235  11.467 -0.4233  0.2206  0.1993
 8090TIP3    H145761   6.831   3.330  11.467  0.4946  0.0752  0.3998
 8090TIP3    H245762   6.747   3.222  11.533  1.3825  0.4443  2.1528
 8091TIP3   OH245763   1.201   4.676  16.775 -0.1230  0.4556  0.0620
 8091TIP3    H145764   1.148   4.597  16.765  0.5386 -0.1437  1.1658
 8091TIP3    H245765   1.201   4.716  16.688  1.5229 -2.0240 -1.1123
 8092TIP3   OH245766   1.380   3.403   3.787 -0.0087  0.4865  0.2222
 8092TIP3    H145767   1.448   3.337   3.771 -0.6022  0.4700 -2.4576
 8092TIP3    H245768   1.426   3.476   3.827  0.9005 -0.9952  1.9622
 8093TIP3   OH245769   4.726   0.034  16.190 -0.0383 -0.1396  0.2197
 8093TIP3    H145770   4.729   0.111  16.247  1.8599  0.2534 -0.3953
 8093TIP3    H245771   4.800  -0.020  16.217  0.1733 -0.5115 -1.0629
 8094TIP3   OH245772   1.004   4.481   6.641 -0.1621  0.0629  0.3323
 8094TIP3    H145773   1.012   4.393   6.678 -0.2441 -0.5752 -1.1460
 8094TIP3    H245774   0.923   4.479   6.591 -0.7083  1.3111  1.1400
 8095TIP3   OH245775   5.409   5.212   1.285  0.0043  0.0825  0.2445
 8095TIP3    H145776   5.370   5.231   1.370  0.0480  0.7679  0.1162
 8095TIP3    H245777   5.497   5.181   1.305 -0.0398  0.0932  0.4565
 8096TIP3   OH245778   2.947   1.298   3.559  0.1511 -0.7021  0.5554
 8096TIP3    H145779   2.887   1.292   3.485 -1.2688 -2.2446  1.8076
 8096TIP3    H245780   3.030   1.262   3.526  0.1568  0.6113 -0.9043
 8097TIP3   OH245781   0.362   5.618  12.799 -0.0777 -0.1237 -0.0412
 8097TIP3    H145782   0.359   5.589  12.890  0.7221  1.1923  0.4199
 8097TIP3    H245783   0.421   5.557  12.756 -0.0030 -0.4042  0.4547
 8098TIP3   OH245784   6.208   6.693   0.011  0.4967 -0.1370 -0.5686
 8098TIP3    H145785   6.266   6.622   0.037  1.5945  1.2117  0.8108
 8098TIP3    H245786   6.250   6.731  -0.067  0.8664  0.1138 -0.2493
 8099TIP3   OH245787   3.784   6.482  15.284 -0.4809  0.6585  0.2484
 8099TIP3    H145788   3.850   6.525  15.339  0.5701 -0.4747 -0.1171
 8099TIP3    H245789   3.729   6.434  15.346 -0.6673  1.1946  0.5038
 8100TIP3   OH245790   2.794   3.895   0.704  0.2521  0.4070 -0.0036
 8100TIP3    H145791   2.709   3.851   0.692  0.4902  0.2211 -1.0338
 8100TIP3    H245792   2.794   3.965   0.639  0.8855  0.4062 -0.0049
 8101TIP3   OH245793   5.297   0.517  11.798  0.1604 -0.2483  0.0831
 8101TIP3    H145794   5.279   0.569  11.876 -0.3265  2.3187 -1.6478
 8101TIP3    H245795   5.215   0.520  11.748  0.2887 -2.3131 -0.2850
 8102TIP3   OH245796   6.536   6.579   6.476  0.2100 -0.3289  0.1203
 8102TIP3    H145797   6.442   6.595   6.467  0.5400  1.1477 -0.9095
 8102TIP3    H245798   6.567   6.567   6.387  1.0642 -0.3513  0.4156
 8103TIP3   OH245799   1.393   1.436   5.565  0.5911  0.7667 -0.0836
 8103TIP3    H145800   1.332   1.461   5.635 -1.9429 -0.6234 -1.7175
 8103TIP3    H245801   1.408   1.343   5.577  1.9051  0.9572 -0.1095
 8104TIP3   OH245802   6.314   0.819  12.714 -0.1475 -0.5720  0.1021
 8104TIP3    H145803   6.331   0.846  12.623  0.8681 -0.3488  0.3524
 8104TIP3    H245804   6.257   0.887  12.749  1.9616  1.0136  0.5650
 8105TIP3   OH245805   3.091   1.117   3.174 -0.4396  0.5376 -0.2204
 8105TIP3    H145806   3.064   1.183   3.110 -3.0818 -1.0299 -0.7831
 8105TIP3    H245807   3.137   1.051   3.122 -3.1885 -1.0821 -0.7017
 8106TIP3   OH245808   2.565   2.263  13.652  0.2787 -0.0423 -0.1830
 8106TIP3    H145809   2.590   2.328  13.718  1.4506 -0.2880 -0.3827
 8106TIP3    H245810   2.597   2.180  13.687  0.4659 -0.2440 -0.8442
 8107TIP3   OH245811   3.132   6.315   3.687 -0.0915 -0.3540 -0.3690
 8107TIP3    H145812   3.077   6.381   3.646  0.1318 -0.5491 -0.9908
 8107TIP3    H245813   3.205   6.303   3.626  0.0671 -0.8884 -0.0805
 8108TIP3   OH245814   0.863   3.124  15.344  0.4350  0.2776  0.2358
 8108TIP3    H145815   0.830   3.214  15.342  0.1444  0.1656 -2.1345
 8108TIP3    H245816   0.876   3.105  15.437 -1.8635  1.9050  0.9355
 8109TIP3   OH245817   0.948   4.825  13.152  0.1931  0.0514 -0.1625
 8109TIP3    H145818   0.889   4.890  13.113 -0.1484  2.0801  3.4565
 8109TIP3    H245819   1.029   4.874  13.168  1.2624 -1.4687 -0.8785
 8110TIP3   OH245820   5.822   5.640  15.296 -0.6158  0.4112  0.4148
 8110TIP3    H145821   5.818   5.626  15.201 -1.2509 -0.5103  0.5653
 8110TIP3    H245822   5.914   5.626  15.318 -0.1315  2.3856 -0.3146
 8111TIP3   OH245823   2.447   4.631   5.215  0.4898  0.5229  0.1842
 8111TIP3    H145824   2.359   4.600   5.190  1.1644 -0.6251 -0.8248
 8111TIP3    H245825   2.432   4.717   5.254 -1.2141 -0.1632  1.0904
 8112TIP3   OH245826   0.126   3.143   0.033 -0.6619 -0.4963  0.0733
 8112TIP3    H145827   0.138   3.070  -0.028 -0.9585 -0.9040  0.5007
 8112TIP3    H245828   0.083   3.210  -0.019  1.3393  0.1153 -0.8540
 8113TIP3   OH245829   1.351   0.587  15.498  0.4155 -0.9414  0.2161
 8113TIP3    H145830   1.382   0.522  15.561  0.3564 -0.5316  0.6719
 8113TIP3    H245831   1.256   0.590  15.510  0.1134 -2.5431 -1.5108
 8114TIP3   OH245832   1.333   2.460   0.448  0.9492 -0.5502  0.2839
 8114TIP3    H145833   1.414   2.491   0.409  0.6111 -1.4522 -1.1807
 8114TIP3    H245834   1.358   2.433   0.537  1.9035  0.7122  0.4062
 8115TIP3   OH245835   0.870   4.518  16.302 -0.1906 -0.2402  0.9434
 8115TIP3    H145836   0.929   4.447  16.326 -0.4014 -0.4385  0.8726
 8115TIP3    H245837   0.889   4.587  16.366  2.2569  0.8551 -0.8717
 8116TIP3   OH245838   5.369   0.374   1.045 -0.2586  0.7141 -0.6749
 8116TIP3    H145839   5.370   0.322   0.965 -0.7918  0.5932 -0.5993
 8116TIP3    H245840   5.442   0.435   1.034  1.0206 -0.7262 -0.3118
 8117TIP3   OH245841   2.042   2.462  17.168  0.2695  0.2241  0.0336
 8117TIP3    H145842   2.064   2.551  17.196  1.3099  0.8389 -2.6264
 8117TIP3    H245843   2.122   2.430  17.126  0.0557 -2.1662  1.3610
 8118TIP3   OH245844   2.944   5.280  16.202 -0.3686 -0.2173  0.0573
 8118TIP3    H145845   2.862   5.317  16.235 -0.0234 -0.0215  0.7170
 8118TIP3    H245846   2.950   5.194  16.244 -0.2265 -0.2200  0.0333
 8119TIP3   OH245847   5.930   3.769   5.793  0.0361  0.1103 -0.2499
 8119TIP3    H145848   6.012   3.811   5.767  0.7116 -0.2711  1.2286
 8119TIP3    H245849   5.892   3.829   5.857  0.8862 -1.3851  1.6963
 8120TIP3   OH245850   4.090   1.219  11.287  0.7641 -0.4545 -0.0450
 8120TIP3    H145851   4.131   1.133  11.280  2.7783  0.6305 -2.3752
 8120TIP3    H245852   4.040   1.228  11.206 -0.9531 -0.1737  1.0321
 8121TIP3   OH245853   1.727   0.769   1.788  0.5943 -0.1069 -0.1621
 8121TIP3    H145854   1.741   0.838   1.853 -2.1948  1.1507 -0.8133
 8121TIP3    H245855   1.693   0.696   1.838 -1.5564  0.8638 -0.1289
 8122TIP3   OH245856   6.731   2.366  12.690  0.9714 -0.6111  0.2747
 8122TIP3    H145857   6.751   2.295  12.750 -0.6954 -0.6811  0.7831
 8122TIP3    H245858   6.638   2.354  12.669  0.4914  1.7681  0.8649
 8123TIP3   OH245859   1.531   2.403   6.399  0.6557  0.2953  0.7917
 8123TIP3    H145860   1.529   2.421   6.305 -0.9598 -2.9922  0.1432
 8123TIP3    H245861   1.612   2.352   6.412 -0.0298 -0.7873  0.8662
 8124TIP3   OH245862   0.787   3.720  15.408  0.5459  0.2327 -0.3616
 8124TIP3    H145863   0.735   3.795  15.379  0.4264  0.6816  0.9525
 8124TIP3    H245864   0.866   3.723  15.355 -0.3391  0.1165 -1.7038
 8125TIP3   OH245865   5.718   3.939   0.649 -0.4285 -0.3450 -0.3384
 8125TIP3    H145866   5.654   3.904   0.586  0.2069  1.0021 -1.7713
 8125TIP3    H245867   5.693   4.031   0.659  1.8362  0.4777 -1.6913
 8126TIP3   OH245868   2.867   1.232   2.426 -0.0066  0.1243  0.2557
 8126TIP3    H145869   2.773   1.244   2.438  0.3075  2.0944  0.8577
 8126TIP3    H245870   2.906   1.261   2.508  1.2428  0.9541 -0.6099
 8127TIP3   OH245871   1.910   1.642  16.702  0.1781  0.5806  0.6215
 8127TIP3    H145872   1.904   1.563  16.754 -1.7519  0.4180  0.1814
 8127TIP3    H245873   1.848   1.703  16.743 -0.4535  0.8672 -0.7447
 8128TIP3   OH245874   4.613   5.019  16.321  0.2969 -0.4780  0.3065
 8128TIP3    H145875   4.653   4.934  16.303 -1.8021 -1.0678 -1.8109
 8128TIP3    H245876   4.546   5.000  16.387 -0.0255 -0.4303 -0.0078
 8129TIP3   OH245877   4.802   1.558   2.991  0.1427  0.4372 -0.1267
 8129TIP3    H145878   4.865   1.592   2.927 -0.5410  1.0119 -0.4966
 8129TIP3    H245879   4.791   1.630   3.053  2.3867 -0.8304  1.8419
 8130TIP3   OH245880   1.401   1.597   0.444 -0.0130  0.0490  0.5769
 8130TIP3    H145881   1.368   1.543   0.372  0.0072  1.0160 -0.1649
 8130TIP3    H245882   1.428   1.534   0.510 -0.4184 -0.8438 -0.0935
 8131TIP3   OH245883   1.490   2.313  11.501  0.1250 -0.1013  0.3658
 8131TIP3    H145884   1.442   2.270  11.573 -0.6019  1.1022  0.6168
 8131TIP3    H245885   1.441   2.289  11.422  0.9108 -1.4067  0.2683
 8132TIP3   OH245886   4.084   0.628   0.806 -0.6586  0.4893  0.3044
 8132TIP3    H145887   4.147   0.566   0.770  0.3761  1.0466  1.1169
 8132TIP3    H245888   4.029   0.575   0.864 -0.4461  0.1447  0.1928
 8133TIP3   OH245889   1.883   6.161   0.629  0.6643 -0.7764 -0.4957
 8133TIP3    H145890   1.810   6.197   0.580  0.0361 -2.8193 -1.0899
 8133TIP3    H245891   1.918   6.091   0.574  2.1658 -0.7890  0.4181
 8134TIP3   OH245892   4.942   1.607  11.992  0.1766 -0.8699 -0.1395
 8134TIP3    H145893   4.870   1.666  11.968 -0.1565 -1.2814 -0.1537
 8134TIP3    H245894   4.927   1.587  12.084  0.2901 -0.9368 -0.1370
 8135TIP3   OH245895   2.119   2.424   3.909 -0.1652  0.5092 -0.3374
 8135TIP3    H145896   2.122   2.328   3.902  3.3362  0.4891  0.4321
 8135TIP3    H245897   2.058   2.441   3.980  0.1141 -1.2130  0.3456
 8136TIP3   OH245898   3.799   3.552   1.263 -0.3126 -0.4959 -0.7528
 8136TIP3    H145899   3.867   3.484   1.268 -1.3391 -1.4160  0.8304
 8136TIP3    H245900   3.726   3.517   1.313 -0.2453  2.5080  1.5868
 8137TIP3   OH245901   1.444   0.094  14.437 -0.0298  0.1624 -0.4806
 8137TIP3    H145902   1.404   0.044  14.365  1.2726  0.2151 -1.2497
 8137TIP3    H245903   1.529   0.053  14.450 -0.3774 -0.0483  1.2633
 8138TIP3   OH245904   1.699   6.215   5.818 -0.5708  0.6038 -0.2950
 8138TIP3    H145905   1.705   6.239   5.910 -0.0298 -0.8971  0.0802
 8138TIP3    H245906   1.741   6.129   5.813 -1.4705  0.2349 -1.7703
 8139TIP3   OH245907   1.995   2.253   5.892 -0.7016  0.0817  0.0587
 8139TIP3    H145908   1.939   2.309   5.945 -0.1216  0.1421  0.6154
 8139TIP3    H245909   2.037   2.194   5.955  0.6604  0.7209 -0.2151
 8140TIP3   OH245910   3.300   6.576   2.202 -0.2589  0.1669 -0.0815
 8140TIP3    H145911   3.267   6.658   2.166 -0.3967  0.8960  1.6354
 8140TIP3    H245912   3.257   6.568   2.288 -0.3051 -1.7339 -0.2507
 8141TIP3   OH245913   6.630   0.664  11.309 -1.2210  0.0255 -0.1024
 8141TIP3    H145914   6.651   0.645  11.218 -1.0722  0.7967 -0.2311
 8141TIP3    H245915   6.713   0.649  11.356 -1.5074 -1.1696  0.0291
 8142TIP3   OH245916   1.831   5.305   5.841 -0.4181  0.4878  0.6490
 8142TIP3    H145917   1.864   5.379   5.790  1.2402 -1.9262 -1.9533
 8142TIP3    H245918   1.801   5.242   5.775 -1.7103 -1.1840  2.7836
 8143TIP3   OH245919   1.824   6.685   2.421  0.2696  0.6813 -0.2836
 8143TIP3    H145920   1.900   6.626   2.416 -0.6856 -0.4782 -1.5554
 8143TIP3    H245921   1.838   6.747   2.349  0.2692  0.7776 -0.1997
 8144TIP3   OH245922   3.464   5.258   3.851  0.3073 -0.3778  0.0285
 8144TIP3    H145923   3.386   5.285   3.900  0.2411  3.1089 -1.8087
 8144TIP3    H245924   3.537   5.277   3.910 -0.0101 -0.0111  0.3083
 8145TIP3   OH245925   0.405   2.311  12.659  0.9776 -0.3532 -0.0220
 8145TIP3    H145926   0.413   2.218  12.684  1.5162 -0.4829 -0.6532
 8145TIP3    H245927   0.314   2.332  12.675  0.8968 -0.9440  0.3256
 8146TIP3   OH245928   3.932   3.860  13.499  0.2641  0.3901 -0.0189
 8146TIP3    H145929   3.963   3.861  13.589 -3.2099  1.0061  1.2360
 8146TIP3    H245930   3.890   3.775  13.488 -1.8540  1.3978 -0.0873
 8147TIP3   OH245931   6.261   2.915   1.856 -0.0463  0.1115  0.2191
 8147TIP3    H145932   6.256   2.945   1.947  1.4147 -0.6140  0.5427
 8147TIP3    H245933   6.169   2.910   1.828 -0.5081  0.3633  1.6397
 8148TIP3   OH245934   3.524   2.475   4.336  0.1503  0.1705 -0.9137
 8148TIP3    H145935   3.577   2.442   4.263  0.0636 -1.8607 -0.0670
 8148TIP3    H245936   3.458   2.531   4.293  1.0611  0.2650 -2.2389
 8149TIP3   OH245937   3.037   4.880   1.186  0.2245 -0.1073  0.2989
 8149TIP3    H145938   3.003   4.823   1.255 -1.5272 -0.2708 -0.6539
 8149TIP3    H245939   2.959   4.926   1.153  1.0135 -0.0852 -1.5967
 8150TIP3   OH245940   0.520   0.905  12.629 -0.2923 -0.4064  0.3316
 8150TIP3    H145941   0.484   0.917  12.717 -1.5368  0.8687 -0.3246
 8150TIP3    H245942   0.583   0.976  12.618  0.6183 -1.1729  0.5665
 8151TIP3   OH245943   5.254   5.214   0.836 -0.2622 -0.3509  0.6609
 8151TIP3    H145944   5.175   5.225   0.890 -1.2946 -0.7163 -0.7456
 8151TIP3    H245945   5.228   5.243   0.749  1.1279 -0.5907  0.1532
 8152TIP3   OH245946   3.080   2.826  16.011 -0.0607  0.3660  0.3041
 8152TIP3    H145947   3.135   2.847  15.936  0.1096  0.8092  0.5501
 8152TIP3    H245948   3.142   2.814  16.083 -0.2870  0.8987  0.5886
 8153TIP3   OH245949   1.982   6.508  14.714  0.0855  0.1476 -0.0692
 8153TIP3    H145950   1.958   6.570  14.644 -0.5251 -0.4651 -0.4053
 8153TIP3    H245951   2.077   6.517  14.721 -0.0978  1.8158  0.5339
 8154TIP3   OH245952   0.539   3.000   1.335  0.3838 -0.3358  0.1590
 8154TIP3    H145953   0.486   3.038   1.265  0.3385  0.6546  0.7308
 8154TIP3    H245954   0.625   3.041   1.326  0.4044 -0.2751  0.6309
 8155TIP3   OH245955   4.022   6.667  11.254 -0.4279  0.0231 -0.1182
 8155TIP3    H145956   3.991   6.757  11.246  1.2463  0.7326  1.1290
 8155TIP3    H245957   4.073   6.652  11.174 -1.0378  0.0367 -0.5139
 8156TIP3   OH245958   0.619   2.817  17.097  0.1739 -0.2112  0.5525
 8156TIP3    H145959   0.584   2.734  17.065  0.7731 -0.7594  1.2685
 8156TIP3    H245960   0.547   2.879  17.088 -0.3140 -0.8335  0.0976
 8157TIP3   OH245961   3.059   6.224  12.294 -0.2182  0.0035  0.0274
 8157TIP3    H145962   3.060   6.299  12.354 -1.2433 -0.8400  1.1265
 8157TIP3    H245963   3.018   6.257  12.214  0.2748  0.8802  0.1319
 8158TIP3   OH245964   2.142   5.758   4.538 -0.5182 -0.4327  0.3298
 8158TIP3    H145965   2.188   5.674   4.539  1.8679  0.8011 -0.9262
 8158TIP3    H245966   2.187   5.811   4.604  0.6734  1.1749 -1.7241
 8159TIP3   OH245967   0.897   4.792   0.680  0.2079  0.6201  0.5942
 8159TIP3    H145968   0.915   4.788   0.586  1.7654 -0.2802  0.9345
 8159TIP3    H245969   0.918   4.882   0.704 -1.7543  1.3390 -0.2080
 8160TIP3   OH245970   6.693   0.749  14.287  0.0002 -0.2261 -0.8178
 8160TIP3    H145971   6.753   0.764  14.360  1.9891 -1.3474 -2.1726
 8160TIP3    H245972   6.697   0.829  14.235 -0.2397 -0.0231 -0.5262
 8161TIP3   OH245973   2.008   4.602   1.178 -0.5613  0.1806 -0.1213
 8161TIP3    H145974   2.027   4.642   1.263 -0.0328 -0.3294  0.0069
 8161TIP3    H245975   1.982   4.512   1.198  0.5161 -0.2398 -0.5576
 8162TIP3   OH245976   4.482   4.105  14.433  0.2038 -0.0855  0.3513
 8162TIP3    H145977   4.469   4.010  14.439  1.3897 -0.2292  0.8144
 8162TIP3    H245978   4.534   4.127  14.511 -0.2420  0.9719  0.3573
 8163TIP3   OH245979   0.995   6.526   3.824  0.0239  0.5833 -0.1409
 8163TIP3    H145980   0.941   6.458   3.865  1.0526 -0.1403  0.0272
 8163TIP3    H245981   0.943   6.606   3.832 -0.9210 -0.0628  0.2320
 8164TIP3   OH245982   3.524   2.664  12.526 -0.3004 -0.2841 -0.8571
 8164TIP3    H145983   3.469   2.621  12.592  0.0473  0.7831  0.1562
 8164TIP3    H245984   3.545   2.595  12.463  2.1812 -2.2293  1.9580
 8165TIP3   OH245985   0.579   5.349   2.955 -0.3503  0.3280 -0.0551
 8165TIP3    H145986   0.488   5.325   2.974 -0.4078  0.7360  0.2014
 8165TIP3    H245987   0.589   5.336   2.861 -1.7380  3.6973 -0.7434
 8166TIP3   OH245988   4.720   6.013  10.564  0.2811 -0.1977 -0.0636
 8166TIP3    H145989   4.751   6.103  10.568 -1.4520  0.4360 -0.4568
 8166TIP3    H245990   4.776   5.971  10.499  0.5309  0.8209 -0.5139
 8167TIP3   OH245991   2.962   3.693   3.561  0.5283 -0.7208  0.2166
 8167TIP3    H145992   2.896   3.670   3.496 -0.9248  1.3161  0.9096
 8167TIP3    H245993   3.042   3.706   3.510  0.0366 -1.6642 -0.8320
 8168TIP3   OH245994   0.148   2.498   4.645 -0.4375 -0.2904  0.1322
 8168TIP3    H145995   0.171   2.590   4.648  1.4507 -0.7319 -0.3588
 8168TIP3    H245996   0.062   2.496   4.603  0.1888  1.1268 -1.2544
 8169TIP3   OH245997   4.931   4.815   0.331  0.0425  0.0053 -0.3300
 8169TIP3    H145998   4.992   4.792   0.401  0.3618  0.0202 -0.6048
 8169TIP3    H245999   4.845   4.816   0.374  0.1847 -0.3994 -0.0312
 8170TIP3   OH246000   4.894   5.353  15.139  0.2829  0.1377 -0.3786
 8170TIP3    H146001   4.917   5.386  15.225 -0.8595  0.3986 -0.1584
 8170TIP3    H246002   4.861   5.429  15.092 -0.3705 -0.2656 -0.5840
 8171TIP3   OH246003   5.290   1.621  16.713  0.2503  0.3019  0.2887
 8171TIP3    H146004   5.351   1.676  16.663 -0.4772  0.0211 -0.9312
 8171TIP3    H246005   5.345   1.578  16.778  1.2838  0.4575 -0.4559
 8172TIP3   OH246006   6.121   3.116   1.254  0.0415  0.5414  0.6672
 8172TIP3    H146007   6.098   3.134   1.345 -1.1557  1.1235  0.2609
 8172TIP3    H246008   6.066   3.041   1.230 -0.7021  1.2922 -0.0009
 8173TIP3   OH246009   3.846   3.500  14.430  0.6459 -0.2712 -0.1754
 8173TIP3    H146010   3.815   3.545  14.509  0.9361 -0.1554 -0.1286
 8173TIP3    H246011   3.921   3.448  14.459  0.9824  0.0627 -0.4515
 8174TIP3   OH246012   3.381   2.119  11.895  0.0421  0.6883 -0.1209
 8174TIP3    H146013   3.373   2.209  11.927 -1.9347 -0.3165  2.2882
 8174TIP3    H246014   3.306   2.107  11.837  1.4068  1.1858 -2.0620
 8175TIP3   OH246015   5.325   6.712  11.575 -0.4268  0.4339  0.3092
 8175TIP3    H146016   5.398   6.751  11.527 -1.1747 -0.6791 -1.8043
 8175TIP3    H246017   5.331   6.750  11.662  2.8811  0.1382  0.3079
 8176TIP3   OH246018   5.337   1.279   5.778 -0.5491 -0.1446  0.6017
 8176TIP3    H146019   5.292   1.359   5.749 -1.0547 -0.6603 -0.0412
 8176TIP3    H246020   5.317   1.214   5.711  1.4821 -0.2815  0.0871
 8177TIP3   OH246021   5.946   2.050   2.086  0.1611 -0.2268 -0.2012
 8177TIP3    H146022   5.861   2.057   2.129 -0.7286 -1.0405 -1.7876
 8177TIP3    H246023   5.977   2.141   2.078 -1.2161  0.1836 -0.9028
 8178TIP3   OH246024   5.727   6.332   2.789 -0.8552  0.2767 -0.5735
 8178TIP3    H146025   5.682   6.322   2.873 -1.2844  1.8829 -0.5883
 8178TIP3    H246026   5.657   6.352   2.727 -0.3738  0.6424 -1.0096
 8179TIP3   OH246027   2.654   2.833  11.197  0.1134  0.3770  0.1153
 8179TIP3    H146028   2.578   2.889  11.186  0.8498  1.6452  1.2906
 8179TIP3    H246029   2.708   2.850  11.120 -0.2928  0.2443 -0.2017
 8180TIP3   OH246030   5.230   5.424  14.726  0.9042  0.1430 -0.6676
 8180TIP3    H146031   5.208   5.514  14.752 -0.7878 -0.4435  0.0119
 8180TIP3    H246032   5.146   5.385  14.703  1.7510 -0.9752 -1.9551
 8181TIP3   OH246033   5.321   6.582  15.017  0.0479  0.6875 -0.2952
 8181TIP3    H146034   5.347   6.490  15.012 -1.6773  0.0730  1.3111
 8181TIP3    H246035   5.403   6.629  15.028  0.7559 -0.9183  1.6668
 8182TIP3   OH246036   0.687   5.408   3.696  0.7392 -0.2913  0.2525
 8182TIP3    H146037   0.770   5.390   3.739 -0.0146 -0.2668  1.7675
 8182TIP3    H246038   0.632   5.445   3.765 -0.0718  1.0375 -1.0606
 8183TIP3   OH246039   2.102   6.742  12.322 -0.1197 -0.4344 -0.2040
 8183TIP3    H146040   2.015   6.750  12.361 -0.9607 -1.9312 -1.7158
 8183TIP3    H246041   2.126   6.832  12.299 -0.8374  0.1073  1.0750
 8184TIP3   OH246042   5.896   0.328  13.981  0.4523  0.0477 -0.7014
 8184TIP3    H146043   5.966   0.281  13.937 -0.2613 -2.7331  0.9964
 8184TIP3    H246044   5.930   0.345  14.069 -0.5119 -0.1564 -0.2837
 8185TIP3   OH246045   6.010   2.855  14.520 -0.0664 -0.4046 -0.1420
 8185TIP3    H146046   5.945   2.906  14.567  0.1490  1.8996 -2.2640
 8185TIP3    H246047   6.056   2.806  14.588 -1.9763  0.2608  1.6683
 8186TIP3   OH246048   3.890   1.483  12.547 -0.2024 -0.3500  0.0805
 8186TIP3    H146049   3.808   1.521  12.515 -0.6310 -0.7344  0.7195
 8186TIP3    H246050   3.938   1.558  12.582 -0.0064 -0.0254 -0.8533
 8187TIP3   OH246051   0.216   5.636  16.389 -0.1927  0.4126  0.0421
 8187TIP3    H146052   0.305   5.656  16.418 -0.4304  0.9275  0.4402
 8187TIP3    H246053   0.193   5.709  16.332 -0.3930  0.3325  0.0209
 8188TIP3   OH246054   0.743   6.562  11.944 -0.0386  0.6620  0.0437
 8188TIP3    H146055   0.795   6.627  11.991  1.2593 -0.1527 -0.2520
 8188TIP3    H246056   0.652   6.585  11.964  0.4463  1.7244  1.0638
 8189TIP3   OH246057   1.344   6.339   1.497  0.1120 -0.1076  0.2425
 8189TIP3    H146058   1.369   6.399   1.567 -0.2147  0.3095  0.0090
 8189TIP3    H246059   1.422   6.333   1.442  0.0628  0.3318  0.1144
 8190TIP3   OH246060   2.174   5.243   5.380  0.0635  0.2169 -0.2509
 8190TIP3    H146061   2.090   5.213   5.413  0.1128  0.1013 -0.2294
 8190TIP3    H246062   2.170   5.228   5.286  0.0717  0.1816 -0.2460
 8191TIP3   OH246063   0.277   1.855  16.066  0.2535  0.1624  0.1288
 8191TIP3    H146064   0.276   1.784  16.130  0.8143  0.3733  0.3750
 8191TIP3    H246065   0.207   1.833  16.004 -1.6791  1.0088  1.9628
 8192TIP3   OH246066   2.665   6.670   0.796  0.1916  0.0219  0.1009
 8192TIP3    H146067   2.708   6.645   0.878  1.7255  0.3988 -0.5698
 8192TIP3    H246068   2.602   6.601   0.780 -0.6181  0.3105  1.9689
 8193TIP3   OH246069   3.427   3.632  10.810  0.0929  0.0622 -0.1082
 8193TIP3    H146070   3.472   3.618  10.893  0.8374  0.6289 -0.4142
 8193TIP3    H246071   3.480   3.697  10.764 -0.9987  0.6929 -0.5011
 8194TIP3   OH246072   5.104   6.291  13.374 -0.9269  0.2744 -0.1687
 8194TIP3    H146073   5.186   6.248  13.351 -1.4875 -0.1992 -1.3554
 8194TIP3    H246074   5.055   6.224  13.423 -0.5644  0.5996  0.6504
 8195TIP3   OH246075   3.152   4.369  15.282  0.2327 -0.1204 -0.9084
 8195TIP3    H146076   3.233   4.420  15.285 -0.7994  1.5661 -0.8052
 8195TIP3    H246077   3.163   4.310  15.208  2.4008 -1.4098  0.3973
 8196TIP3   OH246078   2.665   0.018   1.232  0.1128  0.4251 -0.0429
 8196TIP3    H146079   2.681   0.069   1.311 -0.2660 -1.6317  1.3824
 8196TIP3    H246080   2.748  -0.026   1.213 -0.1674 -0.0950 -0.0659
 8197TIP3   OH246081   3.226   4.678  15.922 -0.2197  0.0967  0.0762
 8197TIP3    H146082   3.204   4.585  15.923  0.7561 -0.1283  1.5824
 8197TIP3    H246083   3.246   4.699  16.013  1.2239  1.3985 -0.5281
 8198TIP3   OH246084   1.479   5.131   6.590 -0.6515 -0.1767 -0.0339
 8198TIP3    H146085   1.526   5.064   6.639  2.1473  1.2743 -0.6489
 8198TIP3    H246086   1.465   5.202   6.653  1.3650  0.9525 -0.8423
 8199TIP3   OH246087   3.256   5.747   1.744  0.2041  0.4212  0.2351
 8199TIP3    H146088   3.205   5.742   1.664  1.0635  1.5270 -0.3874
 8199TIP3    H246089   3.225   5.826   1.788  0.8673  0.6951  0.2108
 8200TIP3   OH246090   0.513   2.649  11.670 -0.4046  0.7371  0.3091
 8200TIP3    H146091   0.453   2.693  11.611 -1.0941 -1.3157 -0.5509
 8200TIP3    H246092   0.491   2.556  11.663  3.4278 -0.1993 -0.7294
 8201TIP3   OH246093   6.190   0.065   3.137 -0.4712  0.4045 -0.3542
 8201TIP3    H146094   6.230  -0.006   3.087 -0.7771  1.2150 -1.7727
 8201TIP3    H246095   6.131   0.108   3.075  1.2165  3.1691 -0.1241
 8202TIP3   OH246096   5.087   6.440  11.960 -0.0702  0.3668  0.4002
 8202TIP3    H146097   4.997   6.445  11.993  0.7670  0.7787  2.6725
 8202TIP3    H246098   5.105   6.527  11.926  0.4151  1.0813  2.4691
 8203TIP3   OH246099   0.419   0.792   2.558  0.1501 -1.4602  0.2228
 8203TIP3    H146100   0.412   0.737   2.481  3.0627 -1.3910 -0.1640
 8203TIP3    H246101   0.367   0.870   2.537 -2.5074 -3.2222  0.0632
 8204TIP3   OH246102   2.203   6.212   2.247  0.1697 -0.0887 -0.1885
 8204TIP3    H146103   2.223   6.270   2.173 -0.0733  0.1924 -0.0340
 8204TIP3    H246104   2.265   6.140   2.238 -0.2219 -0.3344 -0.9862
 8205TIP3   OH246105   6.008   3.423   5.456 -0.1136 -0.0762 -0.2049
 8205TIP3    H146106   5.916   3.425   5.430 -1.0090  1.1038  2.9072
 8205TIP3    H246107   6.031   3.514   5.474  1.9504 -0.2409 -1.7609
 8206TIP3   OH246108   4.864   3.670  13.911 -0.2899  0.1847  0.2881
 8206TIP3    H146109   4.915   3.730  13.966  0.7118 -0.6309  0.2662
 8206TIP3    H246110   4.828   3.726  13.842  1.3639  0.6286 -0.2395
 8207TIP3   OH246111   3.773   0.802   0.531 -0.1911 -0.2845  0.0916
 8207TIP3    H146112   3.736   0.885   0.561  0.2507  0.0359 -0.2256
 8207TIP3    H246113   3.708   0.737   0.553 -0.0195 -0.0125  1.4457
 8208TIP3   OH246114   6.576   6.102   3.816  0.2654 -0.1049  0.0786
 8208TIP3    H146115   6.512   6.171   3.833 -0.5960 -0.6568 -0.9154
 8208TIP3    H246116   6.524   6.029   3.784  1.6052  0.1666 -2.8200
 8209TIP3   OH246117   5.932   2.910   1.215 -0.6669  0.3118  0.1551
 8209TIP3    H146118   5.856   2.868   1.254 -0.6446  1.5005  1.5465
 8209TIP3    H246119   5.905   2.931   1.126 -1.5565 -0.3207  0.2696
 8210TIP3   OH246120   5.205   6.584   3.895 -0.1597 -0.3275  0.0445
 8210TIP3    H146121   5.149   6.513   3.863 -1.1413  0.2690  0.3904
 8210TIP3    H246122   5.206   6.647   3.824 -0.4750 -0.0441  0.2842
 8211TIP3   OH246123   3.134   0.705   2.538  0.5700  0.2407 -0.1314
 8211TIP3    H146124   3.067   0.761   2.498  1.5771  2.1526  0.7910
 8211TIP3    H246125   3.115   0.707   2.631  1.4628  0.1714  0.0533
 8212TIP3   OH246126   1.580   1.224  11.499 -0.5812 -0.1659 -0.3092
 8212TIP3    H146127   1.643   1.283  11.540 -2.1323  1.2292  0.1130
 8212TIP3    H246128   1.495   1.256  11.528 -1.4618 -2.6429 -0.0591
 8213TIP3   OH246129   5.328   6.528  15.821  0.4983 -0.1819  0.4284
 8213TIP3    H146130   5.249   6.500  15.775  0.4273  1.9107 -0.8043
 8213TIP3    H246131   5.296   6.576  15.897  0.5603  0.3713  0.1123
 8214TIP3   OH246132   1.356   3.628  11.716 -0.3564 -0.2499  0.1377
 8214TIP3    H146133   1.319   3.540  11.726 -1.1301 -0.0480 -0.8968
 8214TIP3    H246134   1.295   3.685  11.762 -0.5746 -0.0817 -0.3688
 8215TIP3   OH246135   3.240   2.899  15.740  0.0799  0.3605  0.4293
 8215TIP3    H146136   3.312   2.949  15.779 -0.3514  1.6785 -0.4160
 8215TIP3    H246137   3.284   2.830  15.689  0.6810 -0.2463  1.7419
 8216TIP3   OH246138   3.631   4.550  14.011 -0.4990 -0.0708 -0.0103
 8216TIP3    H146139   3.602   4.631  14.053  1.2909  0.3137  0.5404
 8216TIP3    H246140   3.555   4.520  13.961 -1.1843  1.9779 -0.2565
 8217TIP3   OH246141   4.341   5.388   5.857 -0.1058  0.7834 -0.3069
 8217TIP3    H146142   4.256   5.417   5.890  0.9617  1.4604  1.8791
 8217TIP3    H246143   4.323   5.301   5.821 -1.4337  0.3019  1.4485
 8218TIP3   OH246144   5.492   5.119  11.533 -0.3398  0.2337  0.9805
 8218TIP3    H146145   5.528   5.144  11.618  0.0775  0.0303  0.8630
 8218TIP3    H246146   5.566   5.081  11.486 -0.4267  0.9035  0.2952
 8219TIP3   OH246147   3.957   3.327  10.830  0.4394 -0.5126 -0.1376
 8219TIP3    H146148   4.043   3.297  10.860  0.1633  0.5656  1.8975
 8219TIP3    H246149   3.895   3.275  10.880 -0.0902 -1.2849 -1.6041
 8220TIP3   OH246150   4.924   0.916  13.532 -0.1370 -0.2468 -0.4871
 8220TIP3    H146151   4.866   0.953  13.599 -0.6456 -1.3638 -0.2781
 8220TIP3    H246152   4.880   0.936  13.449  0.3951  0.9717 -0.4804
 8221TIP3   OH246153   3.437   6.498   5.959 -0.1484 -0.0879  0.3096
 8221TIP3    H146154   3.418   6.490   6.053  0.5367  2.6703  0.7165
 8221TIP3    H246155   3.528   6.528   5.956 -0.3909  0.4945 -1.2254
 8222TIP3   OH246156   0.497   4.771  12.069  0.3666 -0.3370 -0.8300
 8222TIP3    H146157   0.500   4.693  12.125 -0.7906 -0.7248 -1.2880
 8222TIP3    H246158   0.447   4.743  11.992  1.9348  0.2052 -2.0555
 8223TIP3   OH246159   0.816   2.908  16.033  0.0848  0.1022  0.0591
 8223TIP3    H146160   0.867   2.839  16.076  1.1469  0.7865 -0.0841
 8223TIP3    H246161   0.810   2.978  16.098 -1.4204 -0.3087  0.3829
 8224TIP3   OH246162   0.319   6.332   6.601  0.0993 -0.3923  0.2228
 8224TIP3    H146163   0.246   6.394   6.611  1.3907  1.2583 -0.3427
 8224TIP3    H246164   0.352   6.348   6.513  1.3308 -0.9122  0.5772
 8225TIP3   OH246165   0.587   3.086  11.760  0.5293 -0.0097 -0.1600
 8225TIP3    H146166   0.535   3.166  11.764  1.3418  0.5116  0.2843
 8225TIP3    H246167   0.534   3.021  11.805  0.8709  0.8675  1.5576
 8226TIP3   OH246168   3.517   1.761   2.542 -0.1557 -0.4476  0.6618
 8226TIP3    H146169   3.612   1.764   2.539 -0.2215  2.1306  0.0210
 8226TIP3    H246170   3.496   1.673   2.574  2.4249 -0.9022  1.1485
 8227TIP3   OH246171   1.396   5.039  11.574  0.2538  0.0539 -0.4814
 8227TIP3    H146172   1.401   4.947  11.548 -0.4185 -0.1480  0.0778
 8227TIP3    H246173   1.321   5.043  11.634  1.1223  0.6892  0.5972
 8228TIP3   OH246174   3.693   2.301   0.164  0.0239 -0.9296  0.3579
 8228TIP3    H146175   3.622   2.344   0.117  0.5183 -1.2515 -0.6988
 8228TIP3    H246176   3.773   2.336   0.125  0.4571 -0.5161  1.5836
 8229TIP3   OH246177   3.450   5.574  11.354 -0.3156 -0.3114 -0.4984
 8229TIP3    H146178   3.532   5.529  11.375 -0.9919 -1.4006 -0.0916
 8229TIP3    H246179   3.475   5.648  11.299  1.2631  1.0404  1.9347
 8230TIP3   OH246180   0.870   4.297   3.513  0.6122 -0.5511 -0.2410
 8230TIP3    H146181   0.800   4.234   3.532  0.7115 -0.6013 -0.0412
 8230TIP3    H246182   0.874   4.300   3.418 -1.2896  1.2532 -0.2789
 8231TIP3   OH246183   2.772   1.532  11.678 -0.1208 -0.0669  0.3814
 8231TIP3    H146184   2.862   1.515  11.707 -0.7369  0.0691  2.4641
 8231TIP3    H246185   2.718   1.483  11.740 -1.4957  0.4440 -0.4118
 8232TIP3   OH246186   2.250   2.493  14.521 -0.3013  0.8648  0.4265
 8232TIP3    H146187   2.343   2.501  14.500  0.0645  1.4218  2.2041
 8232TIP3    H246188   2.205   2.510  14.438  1.1643  0.7960 -0.3978
 8233TIP3   OH246189   3.021   0.085  13.861 -0.1732  0.3045  0.0322
 8233TIP3    H146190   3.097   0.144  13.854 -0.2894  0.5042  0.4047
 8233TIP3    H246191   3.059  -0.001  13.880 -0.0285  0.3682  0.0305
 8234TIP3   OH246192   6.235   6.797   2.820 -0.3279 -0.9035 -0.3686
 8234TIP3    H146193   6.192   6.726   2.868 -1.4004 -1.2928 -1.8833
 8234TIP3    H246194   6.269   6.756   2.741  0.6504 -0.0817 -0.3873
 8235TIP3   OH246195   2.928   1.583  13.083 -0.5536  0.8359  0.2025
 8235TIP3    H146196   2.916   1.579  13.178 -0.1635 -0.1185  0.2150
 8235TIP3    H246197   2.995   1.649  13.070 -2.5313  2.9425  0.4179
 8236TIP3   OH246198   5.130   0.040  11.423 -0.0589 -0.1511  0.1886
 8236TIP3    H146199   5.163   0.029  11.333 -0.8664  0.7553 -0.2285
 8236TIP3    H246200   5.174  -0.028  11.473 -0.2027 -1.2033 -1.0695
 8237TIP3   OH246201   2.010   4.145  12.163  0.2214  0.5415 -0.1127
 8237TIP3    H146202   2.009   4.188  12.249 -0.8671 -0.6226  0.4888
 8237TIP3    H246203   1.952   4.199  12.109  1.5460  1.7312 -0.3557
 8238TIP3   OH246204   6.160   1.616  13.105 -0.3330  0.3299 -0.1857
 8238TIP3    H146205   6.079   1.584  13.065 -0.5724  3.1024 -2.0752
 8238TIP3    H246206   6.132   1.651  13.190 -0.6404 -1.1019  0.3279
 8239TIP3   OH246207   2.320   2.353   5.074 -0.0898  0.3099 -0.4100
 8239TIP3    H146208   2.249   2.377   5.133  1.2670  0.5793  1.1608
 8239TIP3    H246209   2.370   2.433   5.063  0.3252 -0.0286 -0.9829
 8240TIP3   OH246210   2.763   1.124   1.148  0.5908 -0.3690  0.0930
 8240TIP3    H146211   2.816   1.128   1.228  0.9887 -0.8622 -0.1388
 8240TIP3    H246212   2.827   1.131   1.077  0.1453  1.1064 -0.1856
 8241TIP3   OH246213   6.357   0.972  15.932  0.6771  0.2555  0.0024
 8241TIP3    H146214   6.379   0.881  15.953  0.3407  0.5813  1.9066
 8241TIP3    H246215   6.410   1.024  15.993 -0.4036  1.2671  0.1127
 8242TIP3   OH246216   3.968   0.344  13.957  0.0897  0.2901 -1.1102
 8242TIP3    H146217   4.015   0.303  13.884 -0.0887 -0.7841 -0.6366
 8242TIP3    H246218   4.027   0.334  14.032 -0.1498  0.5124 -0.8896
 8243TIP3   OH246219   0.388   5.361  14.904  0.0445 -0.1834 -0.2171
 8243TIP3    H146220   0.332   5.436  14.922 -0.8978 -0.7605 -0.6885
 8243TIP3    H246221   0.407   5.367  14.810  0.9265  0.1128 -0.0218
 8244TIP3   OH246222   3.939   5.024   6.611 -0.1794  0.7500  0.4608
 8244TIP3    H146223   3.910   5.072   6.689  2.1129  0.1553  1.7063
 8244TIP3    H246224   4.004   4.962   6.643 -0.9978 -1.2395 -1.5760
 8245TIP3   OH246225   5.182   0.174   1.789  0.2514 -0.4546 -0.5190
 8245TIP3    H146226   5.090   0.154   1.809 -0.0023 -0.8663 -2.0333
 8245TIP3    H246227   5.188   0.165   1.694  1.6567  0.4591 -0.5287
 8246TIP3   OH246228   2.133   4.044   0.109 -0.3427  0.2151  0.4453
 8246TIP3    H146229   2.130   4.001   0.194 -0.8191 -0.6515  0.0056
 8246TIP3    H246230   2.085   4.126   0.121 -1.9902 -0.7421  0.5692
 8247TIP3   OH246231   6.115   0.212  12.433  0.3014 -0.2919 -0.0374
 8247TIP3    H146232   6.177   0.168  12.491 -0.3174  0.2939  1.0882
 8247TIP3    H246233   6.129   0.305  12.450  1.4279 -0.0484 -2.2159
 8248TIP3   OH246234   5.477   2.257   2.101  0.1064  0.0206 -0.2041
 8248TIP3    H146235   5.404   2.239   2.161  0.6649  0.1368  0.5210
 8248TIP3    H246236   5.437   2.305   2.029 -0.6390 -0.4175 -0.0911
 8249TIP3   OH246237   3.634   2.826   1.347 -0.0064  0.3872 -0.1438
 8249TIP3    H146238   3.593   2.758   1.400  1.6646  0.5404  1.4060
 8249TIP3    H246239   3.578   2.833   1.269 -0.7829 -2.0030  0.1520
 8250TIP3   OH246240   1.159   5.676   6.141 -0.1055  0.4356  0.8351
 8250TIP3    H146241   1.234   5.716   6.185  1.9675 -0.8250 -1.4293
 8250TIP3    H246242   1.136   5.601   6.196  2.4232 -1.1062 -0.0994
 8251TIP3   OH246243   1.505   0.887  12.412  0.0979 -0.2282  0.2268
 8251TIP3    H146244   1.436   0.947  12.383 -0.4718 -2.1081 -2.5586
 8251TIP3    H246245   1.465   0.836  12.482 -0.7103  0.0189 -0.0492
 8252TIP3   OH246246   0.387   0.043   1.755  0.3213 -0.2334  0.2621
 8252TIP3    H146247   0.428  -0.043   1.763  2.4031  0.6128 -0.7516
 8252TIP3    H246248   0.419   0.092   1.830 -0.7520 -0.2921  0.7648
 8253TIP3   OH246249   4.446   5.151  13.690  0.6326 -0.4772  0.4191
 8253TIP3    H146250   4.382   5.202  13.640  0.7938 -1.4746 -0.8554
 8253TIP3    H246251   4.531   5.180  13.658  0.7043 -2.8040 -1.7027
 8254TIP3   OH246252   5.897   2.905   5.431 -0.2128 -0.5057 -0.2957
 8254TIP3    H146253   5.806   2.878   5.441 -0.4989  0.4969 -0.1244
 8254TIP3    H246254   5.914   2.960   5.508  0.3374 -0.1541 -0.6671
 8255TIP3   OH246255   5.915   1.688   4.455  0.2059 -0.2916  0.1188
 8255TIP3    H146256   5.847   1.717   4.515  0.0251  0.7670 -0.5922
 8255TIP3    H246257   5.871   1.626   4.396  0.1856 -0.6783  0.5406
 8256TIP3   OH246258   5.714   4.477   3.001  0.5134 -0.0692 -0.0690
 8256TIP3    H146259   5.649   4.446   2.939  0.9547  0.1825 -0.6652
 8256TIP3    H246260   5.726   4.405   3.063 -1.4573  0.4646  0.9650
 8257TIP3   OH246261   5.063   1.764  15.991 -0.2840 -0.1587 -0.1602
 8257TIP3    H146262   5.070   1.671  16.014 -0.7822 -0.0700  0.3955
 8257TIP3    H246263   4.974   1.773  15.957 -0.9210  0.4818  1.6112
 8258TIP3   OH246264   0.465   3.217  15.076 -0.0373 -1.0126 -0.4001
 8258TIP3    H146265   0.379   3.180  15.097 -0.1842 -0.3311  0.2101
 8258TIP3    H246266   0.449   3.310  15.063  0.9481 -0.5063  1.8381
 8259TIP3   OH246267   0.904   0.660   1.232  0.0250  0.0960 -0.4722
 8259TIP3    H146268   0.815   0.664   1.267 -0.2228 -1.0953 -0.9541
 8259TIP3    H246269   0.893   0.643   1.139  0.7429  0.8898 -0.7113
 8260TIP3   OH246270   4.649   0.177  14.407 -0.0175  0.4861 -0.2137
 8260TIP3    H146271   4.715   0.176  14.476 -0.4922  0.9792  0.2558
 8260TIP3    H246272   4.699   0.184  14.326  0.5789 -0.8992  0.0236
 8261TIP3   OH246273   5.238   3.666   4.728  0.0542  0.3294  0.7088
 8261TIP3    H146274   5.315   3.677   4.785 -0.1130  0.2552  0.9508
 8261TIP3    H246275   5.178   3.734   4.757 -0.5087 -0.4545  1.4195
 8262TIP3   OH246276   5.812   6.533   0.539 -0.3887  0.8130  0.4575
 8262TIP3    H146277   5.773   6.468   0.596 -3.3705  1.2465 -0.9910
 8262TIP3    H246278   5.771   6.616   0.565  1.0616  1.6157  0.2324
 8263TIP3   OH246279   1.916   4.707  14.970  0.8148 -0.0028  0.1239
 8263TIP3    H146280   1.967   4.627  14.961  1.0028 -0.0354  1.4791
 8263TIP3    H246281   1.861   4.693  15.047 -1.8779 -0.3001 -1.7889
 8264TIP3   OH246282   3.606   3.882   2.861 -0.0169  0.2807 -0.7048
 8264TIP3    H146283   3.649   3.797   2.873 -0.5166  0.1167 -0.0874
 8264TIP3    H246284   3.595   3.889   2.766 -3.3595 -2.0436 -0.5732
 8265TIP3   OH246285   6.764   5.712   0.555  0.1301  0.4593  0.5768
 8265TIP3    H146286   6.813   5.629   0.559  2.0124  1.4810 -0.4639
 8265TIP3    H246287   6.699   5.698   0.486  0.2404 -0.2745  0.6174
 8266TIP3   OH246288   2.390   1.527  16.066  0.0333  0.1361  0.6619
 8266TIP3    H146289   2.437   1.573  15.997  0.9819 -0.8293  0.6475
 8266TIP3    H246290   2.354   1.596  16.121  0.4156  0.9005 -0.0429
 8267TIP3   OH246291   4.644   4.881   0.983  0.2303 -0.4789  0.3410
 8267TIP3    H146292   4.637   4.901   1.077 -0.2964  1.7673 -0.1328
 8267TIP3    H246293   4.636   4.967   0.940  0.4700 -1.4779 -1.7600
 8268TIP3   OH246294   0.401   4.501   2.611  0.3906  0.4886  0.2950
 8268TIP3    H146295   0.487   4.487   2.650 -0.5607 -0.9904  1.9547
 8268TIP3    H246296   0.358   4.565   2.668  0.1735  0.8200 -0.2263
 8269TIP3   OH246297   5.539   0.232  16.038  0.0385  0.0096  0.1157
 8269TIP3    H146298   5.486   0.196  15.968 -1.7089  1.0578  0.8665
 8269TIP3    H246299   5.585   0.306  15.998  1.5067 -1.3069 -0.7060
 8270TIP3   OH246300   2.272   6.629  13.638 -0.4089  0.1616  0.5579
 8270TIP3    H146301   2.204   6.695  13.631 -0.7070 -0.1919  0.1063
 8270TIP3    H246302   2.286   6.619  13.732  0.2763  1.5095  0.6124
 8271TIP3   OH246303   0.480   2.083  11.338  0.3173 -0.3738 -0.1371
 8271TIP3    H146304   0.407   2.038  11.380 -0.1268  1.6359  1.3356
 8271TIP3    H246305   0.452   2.174  11.333  1.6054 -0.0525 -2.1128
 8272TIP3   OH246306   5.276   6.359  14.532 -0.0857  0.0583  0.1906
 8272TIP3    H146307   5.233   6.274  14.526 -0.1600  0.0401  1.0111
 8272TIP3    H246308   5.363   6.339  14.566  0.1445  0.2362 -0.2830
 8273TIP3   OH246309   0.410   4.719   5.694  0.0856  0.2117  0.0409
 8273TIP3    H146310   0.404   4.793   5.754 -0.5622 -0.2014  0.4998
 8273TIP3    H246311   0.389   4.643   5.749 -1.6414 -0.0473 -0.9591
 8274TIP3   OH246312   4.869   5.569  16.823  0.1944 -0.5324  0.1475
 8274TIP3    H146313   4.905   5.491  16.780  1.6976  0.2986 -0.0975
 8274TIP3    H246314   4.808   5.605  16.758 -0.5997 -1.5604  0.3091
 8275TIP3   OH246315   4.391   2.256  15.241 -0.3171 -0.6571  0.4876
 8275TIP3    H146316   4.314   2.310  15.261  0.5095 -0.2675  2.8289
 8275TIP3    H246317   4.459   2.289  15.300  1.4360 -1.4978 -1.0236
 8276TIP3   OH246318   2.922   0.145  17.106  0.3120 -0.1527 -0.3134
 8276TIP3    H146319   2.832   0.179  17.108 -0.3285 -1.8146 -0.1872
 8276TIP3    H246320   2.969   0.197  17.171 -0.6358  0.4991 -0.1356
 8277TIP3   OH246321   2.993   0.388   5.329 -0.7448 -0.2043 -0.1010
 8277TIP3    H146322   2.984   0.452   5.400  1.1227  3.9163 -3.3896
 8277TIP3    H246323   3.081   0.353   5.340 -0.9684 -0.6264  0.3969
 8278TIP3   OH246324   6.538   3.468  11.750  0.3398  0.1802 -0.3468
 8278TIP3    H146325   6.580   3.553  11.740  1.4572 -0.2672  0.4499
 8278TIP3    H246326   6.609   3.408  11.773 -0.4800 -0.9103 -0.5950
 8279TIP3   OH246327   4.998   5.959  17.255  0.4286  0.1024  0.4947
 8279TIP3    H146328   5.055   6.036  17.265  0.8161 -0.3628  2.1405
 8279TIP3    H246329   4.911   5.995  17.237  0.5416  0.9438  1.5773
 8280TIP3   OH246330   2.732   4.251   0.189  0.2066  0.7150 -0.2439
 8280TIP3    H146331   2.796   4.180   0.179 -0.0446  0.3922  0.4289
 8280TIP3    H246332   2.785   4.325   0.219  0.5814  1.0266 -1.6143
 8281TIP3   OH246333   2.684   1.314   0.978  0.4194  0.1164 -0.8345
 8281TIP3    H146334   2.683   1.243   1.042 -0.4522 -0.4883 -1.5055
 8281TIP3    H246335   2.664   1.271   0.894  0.3583  1.0744 -1.3174
 8282TIP3   OH246336   2.248   0.647  16.628 -0.0912 -0.0689 -0.1048
 8282TIP3    H146337   2.342   0.658  16.614 -0.2514  0.2680 -0.9136
 8282TIP3    H246338   2.208   0.724  16.587 -0.6491  0.3083  1.1291
 8283TIP3   OH246339   0.595   2.292   3.755  0.0404  0.0207  0.4303
 8283TIP3    H146340   0.553   2.341   3.827  0.9264 -0.3992  1.2392
 8283TIP3    H246341   0.528   2.230   3.727 -0.4289  0.4030  0.6854
 8284TIP3   OH246342   1.364   0.870   5.403 -0.6509 -0.8100 -0.3322
 8284TIP3    H146343   1.353   0.816   5.325 -0.6096 -0.9080 -0.2705
 8284TIP3    H246344   1.411   0.814   5.465  3.2735  0.7109 -1.7734
 8285TIP3   OH246345   2.617   4.680  11.751 -0.1643  0.0336 -0.2132
 8285TIP3    H146346   2.615   4.739  11.827 -0.3941  0.0909 -0.2623
 8285TIP3    H246347   2.707   4.649  11.747 -0.1177  0.1389  0.0009
 8286TIP3   OH246348   6.749   3.949   3.281  0.0578 -0.4153 -0.5641
 8286TIP3    H146349   6.661   3.948   3.244  0.1848  1.5943 -0.9886
 8286TIP3    H246350   6.755   3.869   3.333 -1.9521 -0.6634 -0.7011
 8287TIP3   OH246351   1.370   3.166  12.904 -0.2175 -0.5265 -0.9041
 8287TIP3    H146352   1.321   3.106  12.848  1.1078 -2.0170 -0.5149
 8287TIP3    H246353   1.389   3.115  12.983  0.4992  0.5694 -0.3507
 8288TIP3   OH246354   6.454   3.069  15.354  1.0522  0.3375 -0.0108
 8288TIP3    H146355   6.506   3.037  15.280  0.1759 -1.2046  0.0143
 8288TIP3    H246356   6.513   3.065  15.429  1.6004  0.8050 -0.4167
 8289TIP3   OH246357   3.813   6.642  11.807  0.0659 -0.2446  0.4162
 8289TIP3    H146358   3.845   6.675  11.723 -1.6955 -3.0654 -1.4695
 8289TIP3    H246359   3.890   6.603  11.849  0.8762  0.8332 -0.0562
 8290TIP3   OH246360   6.563   5.110   3.603  0.2525  0.2802  0.4987
 8290TIP3    H146361   6.574   5.017   3.583 -0.8678 -0.0837  1.5041
 8290TIP3    H246362   6.650   5.139   3.630  1.1739  0.1442 -2.2019
 8291TIP3   OH246363   5.143   6.202  17.272  0.1860 -0.1601 -0.1778
 8291TIP3    H146364   5.131   6.236  17.361  0.0460 -0.1539 -0.1994
 8291TIP3    H246365   5.236   6.217  17.253 -0.2829  2.0106 -0.9442
 8292TIP3   OH246366   1.382   1.157   5.316  0.3938  0.6703  0.0981
 8292TIP3    H146367   1.316   1.115   5.371 -0.2193  2.1355  0.5003
 8292TIP3    H246368   1.451   1.091   5.306 -0.9340 -0.7244  0.0121
 8293TIP3   OH246369   1.991   3.919  12.025 -0.2118  0.4087  0.1006
 8293TIP3    H146370   1.998   3.995  12.083 -0.4284  1.2958 -1.0298
 8293TIP3    H246371   1.935   3.858  12.073  1.3671  0.2419  1.7715
 8294TIP3   OH246372   4.344   4.026  12.818  0.1971  0.2314  0.0950
 8294TIP3    H146373   4.286   4.099  12.839 -0.4133  0.2345 -1.5181
 8294TIP3    H246374   4.318   4.000  12.729  0.4441 -1.8841  0.6146
 8295TIP3   OH246375   1.570   1.467  12.673  0.4193 -0.5227 -0.5708
 8295TIP3    H146376   1.638   1.403  12.650  0.5515 -0.8152  0.5829
 8295TIP3    H246377   1.588   1.542  12.617  4.5503  1.2373  2.7950
 8296TIP3   OH246378   2.996   1.228  13.185 -0.1856 -0.0354 -0.5569
 8296TIP3    H146379   3.065   1.283  13.147 -1.5225  0.7026 -1.9928
 8296TIP3    H246380   2.919   1.285  13.189 -1.4767 -1.6417 -1.6607
 8297TIP3   OH246381   6.773   4.112   3.699 -0.0311 -0.8092  0.6375
 8297TIP3    H146382   6.758   4.161   3.618 -0.4429 -0.6603  0.8034
 8297TIP3    H246383   6.690   4.066   3.715  0.5175 -1.9501  0.2159
 8298TIP3   OH246384   3.292   2.693  15.030 -0.3746 -0.8754  0.6549
 8298TIP3    H146385   3.253   2.739  15.104 -0.1924 -0.5928  0.5767
 8298TIP3    H246386   3.267   2.744  14.954  1.3141  0.1120  0.7331
 8299TIP3   OH246387   1.505   0.305   5.590 -0.0421 -0.7570  0.3539
 8299TIP3    H146388   1.555   0.382   5.565  0.1015 -1.3753 -1.3338
 8299TIP3    H246389   1.427   0.339   5.635  0.2801  0.3228  0.0952
 8300TIP3   OH246390   4.724   0.366  14.945 -0.5560 -0.4329 -0.0068
 8300TIP3    H146391   4.805   0.411  14.922  0.3658 -1.3372  1.3979
 8300TIP3    H246392   4.658   0.436  14.945 -0.1363  0.0028 -2.8239
 8301TIP3   OH246393   5.992   5.257  10.612  0.3407 -0.0080 -0.1103
 8301TIP3    H146394   5.965   5.258  10.704  2.0490  1.0445  0.3919
 8301TIP3    H246395   5.993   5.164  10.588 -2.1779 -0.1836  0.2897
 8302TIP3   OH246396   1.913   3.723  13.473  0.6020 -0.6351  0.0061
 8302TIP3    H146397   1.817   3.727  13.472  0.6025 -0.4556  0.4713
 8302TIP3    H246398   1.939   3.801  13.522  1.0584  0.3692 -1.7966
 8303TIP3   OH246399   5.991   3.152   6.063 -0.5965  0.3509  0.4675
 8303TIP3    H146400   5.971   3.063   6.031 -0.4242  0.7705 -0.8496
 8303TIP3    H246401   5.979   3.208   5.986  0.2869  1.3399  1.0396
 8304TIP3   OH246402   0.235   0.042  12.591 -0.4179 -0.2986 -0.3947
 8304TIP3    H146403   0.199   0.131  12.583 -1.3828 -0.6953 -0.6590
 8304TIP3    H246404   0.186   0.003  12.664  1.5317  0.0955  1.1397
 8305TIP3   OH246405   3.019   6.026   4.882  0.0812 -0.1364  0.2236
 8305TIP3    H146406   2.936   5.984   4.858  0.1880 -1.0835  1.4616
 8305TIP3    H246407   3.008   6.049   4.974  1.0572  0.0819  0.2885
 8306TIP3   OH246408   2.598   4.379  14.919  0.0958 -0.5612 -0.3507
 8306TIP3    H146409   2.639   4.327  14.988  0.0522 -0.2479 -0.0898
 8306TIP3    H246410   2.671   4.405  14.862  0.3618  0.6292  0.5264
 8307TIP3   OH246411   4.677   0.933  12.870  0.8029 -0.2623 -0.3919
 8307TIP3    H146412   4.737   0.859  12.871  2.1126  0.7806 -0.1428
 8307TIP3    H246413   4.591   0.894  12.852  1.2234 -1.9920  1.2369
 8308TIP3   OH246414   1.887   5.039  10.706  0.6283  0.0970  0.0595
 8308TIP3    H146415   1.818   4.999  10.653 -0.2566  1.4996  0.1518
 8308TIP3    H246416   1.934   5.096  10.646 -0.5913  1.9574  0.8275
 8309TIP3   OH246417   1.592   3.358  12.583  0.5938 -0.3929 -0.3357
 8309TIP3    H146418   1.664   3.380  12.522  0.5442 -1.9778 -0.9889
 8309TIP3    H246419   1.630   3.293  12.641 -0.2485 -1.0664 -0.5388
 8310TIP3   OH246420   0.485   5.641   0.141  0.4320 -0.1431  0.2106
 8310TIP3    H146421   0.443   5.617   0.058 -0.7699 -1.6165  1.2272
 8310TIP3    H246422   0.450   5.728   0.160 -0.4560 -0.4271 -0.0779
 8311TIP3   OH246423   6.734   3.464  13.391 -0.8379 -0.2317 -0.1855
 8311TIP3    H146424   6.790   3.390  13.414 -2.5755 -1.0390  1.5577
 8311TIP3    H246425   6.775   3.539  13.435  0.2487 -0.3382 -0.9780
 8312TIP3   OH246426   1.925   3.165  11.299  0.1762 -0.2111  0.4692
 8312TIP3    H146427   1.989   3.142  11.232 -1.1699 -0.7489 -0.6734
 8312TIP3    H246428   1.889   3.249  11.270 -1.9583 -1.4821 -0.6921
 8313TIP3   OH246429   2.832   1.254  11.726 -0.1237  0.5032 -0.0529
 8313TIP3    H146430   2.747   1.247  11.769 -0.1876 -2.4406 -0.5535
 8313TIP3    H246431   2.812   1.266  11.634  0.0219  1.9744  0.0958
 8314TIP3   OH246432   1.578   2.370   4.004 -0.5413  0.3465  0.4170
 8314TIP3    H146433   1.523   2.443   3.976  1.3225  1.0267 -1.5732
 8314TIP3    H246434   1.559   2.300   3.941 -0.1402  0.1082  0.5611
 8315TIP3   OH246435   5.657   0.142  14.653 -0.0753  0.4546  0.2465
 8315TIP3    H146436   5.619   0.177  14.733 -3.0194 -1.5942 -0.1901
 8315TIP3    H246437   5.618   0.195  14.583  0.0599  0.2040 -0.0203
 8316TIP3   OH246438   4.658   0.755  10.979  0.3764 -0.0983 -0.3508
 8316TIP3    H146439   4.581   0.701  10.997 -0.5083  1.0138 -0.7218
 8316TIP3    H246440   4.692   0.778  11.066 -1.0956  1.3299 -0.1302
 8317TIP3   OH246441   0.521   6.120  16.304  0.3651 -0.2825  0.5317
 8317TIP3    H146442   0.485   6.119  16.393  0.3289 -0.4365  0.5169
 8317TIP3    H246443   0.614   6.141  16.317  0.0275  1.2314  0.4832
 8318TIP3   OH246444   4.565   6.652   0.911 -0.4268  0.3001 -0.1731
 8318TIP3    H146445   4.635   6.637   0.975 -0.8754  0.6611  0.4074
 8318TIP3    H246446   4.507   6.577   0.921 -1.0262  0.8536  0.5496
 8319TIP3   OH246447   5.250   3.284  11.825  0.2131 -0.2343 -0.6191
 8319TIP3    H146448   5.307   3.273  11.749  0.9812  0.1645 -0.0987
 8319TIP3    H246449   5.296   3.241  11.897 -0.2391 -0.0937 -0.2410
 8320TIP3   OH246450   4.791   2.471  16.397 -0.1214  0.8528  0.5516
 8320TIP3    H146451   4.777   2.521  16.477  1.1851  2.1070  0.0248
 8320TIP3    H246452   4.715   2.414  16.391 -0.5254  1.1632  2.3717
 8321TIP3   OH246453   1.519   0.629   0.654 -0.3566 -0.2741  0.3921
 8321TIP3    H146454   1.435   0.674   0.664 -0.2424  0.4706 -1.8019
 8321TIP3    H246455   1.584   0.699   0.661 -0.0852 -0.3797 -0.9744
 8322TIP3   OH246456   4.735   0.099  11.331 -0.1614 -0.2594 -0.1611
 8322TIP3    H146457   4.727   0.176  11.388  0.8606  0.9784 -1.6414
 8322TIP3    H246458   4.759   0.028  11.391  0.4069  0.9026  1.0357
 8323TIP3   OH246459   3.189   3.934  15.266 -0.3404  0.1602 -0.1644
 8323TIP3    H146460   3.248   3.933  15.190 -0.3296 -1.8425 -0.1494
 8323TIP3    H246461   3.135   3.856  15.255  1.1800 -1.4282  3.0639
 8324TIP3   OH246462   0.126   4.335  15.714 -0.0776 -0.7929  0.4520
 8324TIP3    H146463   0.083   4.368  15.635  1.2185 -0.4657 -0.1275
 8324TIP3    H246464   0.219   4.338  15.694  0.3077 -0.0223  2.2512
 8325TIP3   OH246465   4.609   3.435  16.549  0.1325 -0.0688 -0.3320
 8325TIP3    H146466   4.587   3.489  16.473  0.1460  0.3230 -0.0616
 8325TIP3    H246467   4.525   3.398  16.577  0.3711 -1.5567 -1.5442
 8326TIP3   OH246468   1.607   3.831   0.442  0.0320 -0.4259 -0.4953
 8326TIP3    H146469   1.622   3.813   0.349  0.5746  0.1119 -0.5173
 8326TIP3    H246470   1.539   3.769   0.468  0.8328 -1.4820 -0.9116
 8327TIP3   OH246471   3.384   1.519  12.481 -0.5687 -0.0974  0.2258
 8327TIP3    H146472   3.374   1.425  12.467 -1.4679 -0.3201  2.1811
 8327TIP3    H246473   3.409   1.554  12.395  1.1579 -2.3064 -0.2219
 8328TIP3   OH246474   4.526   1.050   0.892  0.3645 -0.0651  0.9105
 8328TIP3    H146475   4.549   1.125   0.836 -1.9459  0.5620  0.7594
 8328TIP3    H246476   4.571   1.067   0.974  1.1793  0.6682  0.3213
 8329TIP3   OH246477   2.903   1.248   4.906  0.0120 -0.0547 -0.2385
 8329TIP3    H146478   2.900   1.296   4.823 -2.4159  1.4792  0.6896
 8329TIP3    H246479   2.947   1.166   4.884  0.7532  0.9508 -2.7161
 8330TIP3   OH246480   5.085   6.650  15.905 -0.6189  0.0478 -0.0550
 8330TIP3    H146481   4.993   6.624  15.909 -1.2235  1.5022 -3.0305
 8330TIP3    H246482   5.084   6.745  15.914  0.7018 -0.0225  1.0175
 8331TIP3   OH246483   1.150   4.010   3.827  0.7158  0.1472 -0.2140
 8331TIP3    H146484   1.058   4.028   3.808  0.4783 -0.3484  0.4480
 8331TIP3    H246485   1.198   4.084   3.788  0.1558 -0.2595 -1.7121
 8332TIP3   OH246486   5.416   1.599   2.755 -0.0216 -0.7772 -0.0430
 8332TIP3    H146487   5.488   1.662   2.758 -0.3067 -0.3717 -1.1183
 8332TIP3    H246488   5.438   1.541   2.682 -0.6476 -0.8122 -0.2094
 8333TIP3   OH246489   4.394   1.773   2.506  0.3155  0.0746  0.1604
 8333TIP3    H146490   4.398   1.869   2.514  2.9510  0.3567 -3.4583
 8333TIP3    H246491   4.321   1.757   2.446  2.0303  0.1020 -2.0053
 8334TIP3   OH246492   0.038   1.293  15.929 -0.6968  0.8412 -0.7790
 8334TIP3    H146493   0.074   1.210  15.896  0.5889  1.5855 -1.3007
 8334TIP3    H246494   0.091   1.313  16.006 -2.6068 -0.0335  0.8313
 8335TIP3   OH246495   4.078   0.559  16.119  0.4968 -0.1321  0.1285
 8335TIP3    H146496   4.078   0.648  16.084  2.7256  0.1241  0.7266
 8335TIP3    H246497   3.989   0.546  16.152  0.7325  2.6762  1.9911
 8336TIP3   OH246498   5.914   1.749   2.761 -0.2699  0.0283  0.2201
 8336TIP3    H146499   5.952   1.828   2.721  1.0386 -1.5419 -1.7574
 8336TIP3    H246500   5.942   1.753   2.852 -0.2870  1.8926  0.1711
 8337TIP3   OH246501   4.441   2.807   5.143  0.1562  0.3000 -0.0972
 8337TIP3    H146502   4.377   2.738   5.159 -0.2304  0.3274 -1.4673
 8337TIP3    H246503   4.390   2.882   5.113  0.7548  0.5430 -0.5345
 8338TIP3   OH246504   2.242   5.981   0.559  0.1629 -0.2569  0.6052
 8338TIP3    H146505   2.149   5.960   0.569  0.0441  0.3819  0.8556
 8338TIP3    H246506   2.279   5.904   0.517 -0.2170 -1.1002  1.7727
 8339TIP3   OH246507   4.769   2.609  12.826 -0.3286  0.4624 -0.2617
 8339TIP3    H146508   4.846   2.569  12.785 -0.9783 -0.5682 -0.4944
 8339TIP3    H246509   4.697   2.552  12.802 -1.1022  1.1781  0.3355
 8340TIP3   OH246510   1.303   2.112  12.504 -0.4603  0.2834 -0.9369
 8340TIP3    H146511   1.240   2.088  12.571  1.5408  2.3261  1.8024
 8340TIP3    H246512   1.389   2.090  12.541  0.7376  2.1484 -2.4498
 8341TIP3   OH246513   2.855   5.136  12.308 -0.2470 -0.0379  0.1997
 8341TIP3    H146514   2.793   5.164  12.375 -0.4615  3.3876 -1.3349
 8341TIP3    H246515   2.835   5.191  12.233  2.7145 -0.9349 -1.3015
 8342TIP3   OH246516   1.824   3.275   4.643  0.0876 -0.0557  0.1311
 8342TIP3    H146517   1.760   3.208   4.667  1.7596 -2.6353 -2.1780
 8342TIP3    H246518   1.907   3.242   4.677  0.8868  1.0600 -0.6990
 8343TIP3   OH246519   4.404   6.115  14.138 -0.3384  0.6189 -0.3572
 8343TIP3    H146520   4.487   6.147  14.174 -0.8095  0.8609  0.5387
 8343TIP3    H246521   4.338   6.146  14.200 -1.1930  1.2164 -1.5540
 8344TIP3   OH246522   1.019   5.265   5.850  0.6363  0.8012  0.3055
 8344TIP3    H146523   1.048   5.330   5.914  3.1975 -0.3709  0.3932
 8344TIP3    H246524   1.074   5.281   5.774  0.2280 -0.2876 -0.2174
 8345TIP3   OH246525   0.174   1.464  16.884 -0.3743  0.8722 -0.1077
 8345TIP3    H146526   0.261   1.476  16.847  0.2962  0.0371  1.1658
 8345TIP3    H246527   0.176   1.512  16.967 -1.1352  0.9045 -0.1047
 8346TIP3   OH246528   4.053   5.572  16.966 -0.5982 -0.3083 -0.4696
 8346TIP3    H146529   4.025   5.589  17.056 -2.4959  0.7215 -1.2245
 8346TIP3    H246530   4.136   5.619  16.957 -1.3184  1.1101  0.2067
 8347TIP3   OH246531   4.913   6.262  14.682 -0.5544 -0.2926 -0.7438
 8347TIP3    H146532   4.827   6.276  14.642 -0.4444 -0.7105 -1.1254
 8347TIP3    H246533   4.894   6.245  14.774 -0.7489  1.5567 -0.4230
 8348TIP3   OH246534   0.474   0.286  16.456  0.1508 -0.2839 -0.1919
 8348TIP3    H146535   0.474   0.195  16.486 -1.9939  0.3004  1.7908
 8348TIP3    H246536   0.391   0.296  16.409  0.3790  0.6335 -0.4195
 8349TIP3   OH246537   1.808   3.974   5.894  0.5389 -0.6157  0.3550
 8349TIP3    H146538   1.871   3.998   5.826 -0.2532  0.2273 -0.0814
 8349TIP3    H246539   1.792   4.055   5.942  1.6355 -1.3559  2.0122
 8350TIP3   OH246540   5.066   4.325   4.219  0.0463  0.0890  0.1476
 8350TIP3    H146541   5.152   4.364   4.234  0.4499 -0.5834 -0.3600
 8350TIP3    H246542   5.014   4.349   4.296  0.4171  1.2297  0.0463
 8351TIP3   OH246543   1.317   3.377   2.836  0.3574  0.2375 -0.0785
 8351TIP3    H146544   1.399   3.378   2.785  1.0238 -1.9002  0.8795
 8351TIP3    H246545   1.346   3.374   2.927 -0.7684 -1.2199  0.2475
 8352TIP3   OH246546   1.362   4.083   4.105  0.2938  0.0510 -0.4757
 8352TIP3    H146547   1.440   4.137   4.113 -0.2422  0.6704  0.6346
 8352TIP3    H246548   1.292   4.136   4.144 -0.5199 -0.8442 -0.7035
 8353TIP3   OH246549   3.925   3.269   5.106 -0.5329 -0.0769  0.2371
 8353TIP3    H146550   3.894   3.216   5.180 -0.4199 -0.5649 -0.0654
 8353TIP3    H246551   3.893   3.357   5.125  0.8660  0.1501  1.7082
 8354TIP3   OH246552   4.526   0.699   0.635  0.5337 -0.0863 -0.0109
 8354TIP3    H146553   4.588   0.752   0.586 -1.2859  1.7735 -0.3577
 8354TIP3    H246554   4.442   0.715   0.593 -0.5625 -0.8206  1.8322
 8355TIP3   OH246555   5.898   2.814  12.503 -0.5938 -0.2148 -0.0757
 8355TIP3    H146556   5.958   2.881  12.471 -0.6755 -0.1458 -0.0858
 8355TIP3    H246557   5.952   2.756  12.557 -1.0735  1.4351  2.2280
 8356TIP3   OH246558   1.081   0.808  12.301  0.0331 -0.3744  0.3005
 8356TIP3    H146559   1.013   0.818  12.234 -0.1300  0.3787  0.5715
 8356TIP3    H246560   1.141   0.743  12.265  0.3766  0.5998 -0.9267
 8357TIP3   OH246561   0.638   1.933  14.906  0.4790  0.2671  0.2462
 8357TIP3    H146562   0.708   1.966  14.849  0.9604  0.3988  0.9081
 8357TIP3    H246563   0.558   1.958  14.862  0.8518  0.7558 -0.1589
 8358TIP3   OH246564   5.971   3.627   1.510  0.0339 -0.2419  0.3059
 8358TIP3    H146565   5.952   3.721   1.508  1.7127  0.0977 -0.7108
 8358TIP3    H246566   6.037   3.617   1.579 -0.1290 -0.6721  0.4003
 8359TIP3   OH246567   2.280   5.059   0.934  0.2491  0.2893  0.2144
 8359TIP3    H146568   2.257   5.084   1.023  1.1906 -0.1999  0.5997
 8359TIP3    H246569   2.238   4.973   0.922 -0.2992  0.5851  0.0104
 8360TIP3   OH246570   5.785   3.850  14.468 -0.4241  0.0983 -0.3628
 8360TIP3    H146571   5.704   3.848  14.519  1.1065 -1.9419  2.1039
 8360TIP3    H246572   5.844   3.906  14.519  0.3253  0.1165 -1.2329
 8361TIP3   OH246573   3.084   5.117   3.978  0.0289  0.2597 -1.0707
 8361TIP3    H146574   3.135   5.046   3.940  0.4692  0.2467 -0.4702
 8361TIP3    H246575   3.051   5.167   3.903 -0.6800 -0.8490 -1.5075
 8362TIP3   OH246576   5.400   2.560   3.402 -0.0850 -0.4401 -0.1897
 8362TIP3    H146577   5.456   2.505   3.457 -0.6308  0.8013  1.6674
 8362TIP3    H246578   5.388   2.641   3.453  1.6941  1.9365 -3.3605
 8363TIP3   OH246579   6.430   2.667  12.530 -0.4529  0.0237  0.1186
 8363TIP3    H146580   6.434   2.742  12.471 -2.1749  0.3712  0.4117
 8363TIP3    H246581   6.504   2.612  12.504 -1.1828  0.1485 -2.4112
 8364TIP3   OH246582   6.011   3.375   1.236  0.3209 -0.3571  0.0664
 8364TIP3    H146583   5.917   3.368   1.252  0.1590 -2.0419 -1.5045
 8364TIP3    H246584   6.038   3.287   1.213  2.1915  0.2431 -0.1225
 8365TIP3   OH246585   6.624   5.696   2.689  0.3943 -0.2303 -0.3728
 8365TIP3    H146586   6.534   5.662   2.682  0.3272 -0.1590  0.1688
 8365TIP3    H246587   6.613   5.791   2.685 -0.0208  0.0539  4.3692
 8366TIP3   OH246588   5.781   1.001  15.535 -0.0114  0.0276  0.1359
 8366TIP3    H146589   5.758   0.909  15.549  0.0387  0.0384  0.2860
 8366TIP3    H246590   5.700   1.041  15.502 -0.1587  0.0254  0.4902
 8367TIP3   OH246591   1.518   0.027   3.345 -1.0386  0.1278  0.1603
 8367TIP3    H146592   1.427   0.018   3.370 -1.0004 -0.1723  0.1949
 8367TIP3    H246593   1.551   0.099   3.399 -1.0419 -0.3002  0.7369
 8368TIP3   OH246594   6.119   1.229  11.575 -0.0562  0.3326  0.3841
 8368TIP3    H146595   6.122   1.178  11.494 -0.4064  0.5079  0.2578
 8368TIP3    H246596   6.083   1.170  11.640 -3.5380  1.3469 -0.4857
 8369TIP3   OH246597   3.989   1.700   2.603 -0.1342 -0.1806  0.1517
 8369TIP3    H146598   4.077   1.688   2.639 -0.2659 -0.4416  0.3933
 8369TIP3    H246599   3.953   1.774   2.652  1.1649  2.1263 -2.2556
 8370TIP3   OH246600   5.231   1.719   4.307 -0.6472 -0.1211 -0.0009
 8370TIP3    H146601   5.326   1.714   4.296 -0.4483  1.4702  0.7104
 8370TIP3    H246602   5.195   1.668   4.234  0.7304  0.9366 -1.4632
 8371TIP3   OH246603   6.760   3.110   6.882 -0.2301 -0.5804  0.1985
 8371TIP3    H146604   6.735   3.078   6.969 -0.9033 -0.2568  0.1257
 8371TIP3    H246605   6.685   3.161   6.853 -0.0282 -0.7329 -0.5974
 8372TIP3   OH246606   0.940   6.358  13.481  0.2295 -0.1842  0.2743
 8372TIP3    H146607   0.939   6.415  13.404 -0.2721 -0.3751  0.1386
 8372TIP3    H246608   0.870   6.392  13.536  1.8829  1.2280  1.5839
 8373TIP3   OH246609   4.505   5.786   4.904  0.3568  0.2744  0.2809
 8373TIP3    H146610   4.509   5.692   4.924  0.5907  0.2248  0.0093
 8373TIP3    H246611   4.447   5.792   4.829 -0.9220  0.5145  1.2666
 8374TIP3   OH246612   6.136   3.966   4.349  0.3652 -0.2547 -0.3226
 8374TIP3    H146613   6.074   3.955   4.421  0.1908  0.6633 -0.3369
 8374TIP3    H246614   6.083   4.001   4.277  0.5300 -1.1929 -0.9098
 8375TIP3   OH246615   2.275   6.054   2.999  0.0518 -0.0109  0.1928
 8375TIP3    H146616   2.241   6.018   2.917 -1.1043 -0.6303  0.9308
 8375TIP3    H246617   2.370   6.039   2.994 -0.2901 -2.3073  0.0670
 8376TIP3   OH246618   5.261   0.541  13.881 -0.3165 -0.5810 -0.7034
 8376TIP3    H146619   5.207   0.525  13.959 -0.4868  2.4175 -0.1453
 8376TIP3    H246620   5.198   0.543  13.809 -0.6771  0.5179 -0.3729
 8377TIP3   OH246621   4.212   1.539  17.088 -0.5579  0.0143  0.1801
 8377TIP3    H146622   4.261   1.478  17.033  0.3410  0.0998  0.8861
 8377TIP3    H246623   4.217   1.623  17.042 -0.6418 -0.1332 -0.0990
 8378TIP3   OH246624   5.386   1.500   1.543  0.0631 -0.4259  0.0450
 8378TIP3    H146625   5.391   1.486   1.448  0.2594  1.2134 -0.2043
 8378TIP3    H246626   5.466   1.460   1.577  1.3296  1.3135 -0.7970
 8379TIP3   OH246627   4.850   2.557   3.649 -0.5204 -0.1473  0.5829
 8379TIP3    H146628   4.915   2.562   3.579 -0.9740 -0.4550  0.1353
 8379TIP3    H246629   4.902   2.558   3.729  0.2093 -2.6086  0.1995
 8380TIP3   OH246630   3.453   0.245   6.153  0.2702 -0.7969  0.1533
 8380TIP3    H146631   3.451   0.151   6.135  0.8976 -0.7688 -0.0666
 8380TIP3    H246632   3.428   0.252   6.245  1.0698 -1.2442  0.4077
 8381TIP3   OH246633   4.440   5.548  11.469 -0.2029 -0.3078 -0.1465
 8381TIP3    H146634   4.512   5.612  11.471  0.3166 -0.9055  1.4641
 8381TIP3    H246635   4.467   5.480  11.531 -1.4586 -1.3239 -0.6880
 8382TIP3   OH246636   3.544   1.992   3.016 -0.0351 -0.4147  0.1558
 8382TIP3    H146637   3.541   1.914   3.071 -1.6560  0.3941  1.2502
 8382TIP3    H246638   3.473   1.980   2.953 -1.8882  1.2136  1.8351
 8383TIP3   OH246639   5.589   2.121  16.172 -0.7878  0.0687  0.4393
 8383TIP3    H146640   5.519   2.071  16.213 -1.2678  0.2262 -0.1720
 8383TIP3    H246641   5.591   2.090  16.081 -0.2013  0.2098  0.3993
 8384TIP3   OH246642   3.039   5.889   5.334 -0.7373 -0.1474  0.4709
 8384TIP3    H146643   3.022   5.965   5.389 -1.0022 -0.8017  1.3073
 8384TIP3    H246644   3.031   5.921   5.245 -1.7808  0.6028  0.8229
 8385TIP3   OH246645   5.463   5.903  15.768  0.2798  0.4675  0.5718
 8385TIP3    H146646   5.387   5.945  15.727  0.7221  0.1890 -0.5559
 8385TIP3    H246647   5.433   5.880  15.856 -0.9436  0.3528  0.1377
 8386TIP3   OH246648   2.473   0.744  14.095 -0.2122 -0.4191  0.5663
 8386TIP3    H146649   2.491   0.834  14.121  0.9343 -0.7045  0.7949
 8386TIP3    H246650   2.401   0.751  14.032  0.6447  0.7553 -0.3078
 8387TIP3   OH246651   4.192   1.903   6.284  0.4941 -0.3458 -0.4639
 8387TIP3    H146652   4.171   1.920   6.193  2.9989 -1.4163 -1.2818
 8387TIP3    H246653   4.256   1.970   6.307  1.3544 -1.2828 -0.0951
 8388TIP3   OH246654   4.724   6.521   3.033 -0.3668  0.1593  0.4970
 8388TIP3    H146655   4.752   6.605   3.069 -1.0253  0.5074  0.2123
 8388TIP3    H246656   4.660   6.545   2.966  1.4884 -0.4115 -1.5330
 8389TIP3   OH246657   3.497   6.419  16.497 -0.4235  0.1122  0.1312
 8389TIP3    H146658   3.557   6.486  16.465 -0.2399  0.2321  0.7129
 8389TIP3    H246659   3.549   6.368  16.560 -0.6378 -0.4089 -0.1127
 8390TIP3   OH246660   5.965   3.065  12.037 -0.6025  0.0036 -0.1289
 8390TIP3    H146661   5.900   3.131  12.061  0.3780  0.6752  0.7353
 8390TIP3    H246662   5.922   2.981  12.053 -1.4011  0.4420  0.0323
 8391TIP3   OH246663   3.490   4.116   0.222 -0.0922 -0.6493 -0.4559
 8391TIP3    H146664   3.420   4.117   0.287 -0.8736 -1.4625 -1.2635
 8391TIP3    H246665   3.563   4.071   0.265  0.1584  0.7714  0.6100
 8392TIP3   OH246666   6.596   3.550   5.144 -0.7616 -0.0657 -0.6888
 8392TIP3    H146667   6.595   3.549   5.048 -2.1987  2.2175 -0.7327
 8392TIP3    H246668   6.628   3.638   5.166 -1.5939 -0.1678  0.9289
 8393TIP3   OH246669   1.253   2.456   2.805  0.5004 -0.0288 -0.1993
 8393TIP3    H146670   1.284   2.486   2.890  0.0808 -1.1978  0.3729
 8393TIP3    H246671   1.172   2.505   2.791  0.8296  0.5384 -0.1702
 8394TIP3   OH246672   3.814   6.486  16.445  0.1324  0.4551  0.1754
 8394TIP3    H146673   3.820   6.406  16.498  1.6628  0.3007 -0.2246
 8394TIP3    H246674   3.836   6.557  16.505  1.9130  0.2757 -0.2538
 8395TIP3   OH246675   3.530   5.551   0.772  0.6325  0.0531 -0.3209
 8395TIP3    H146676   3.570   5.638   0.772 -0.1180  0.4166 -2.3893
 8395TIP3    H246677   3.580   5.501   0.707  0.0444 -0.5881 -0.2859
 8396TIP3   OH246678   5.537   5.952  11.467  0.0844  0.2188 -0.4535
 8396TIP3    H146679   5.565   6.026  11.414  0.1005  0.8133  0.3800
 8396TIP3    H246680   5.478   5.903  11.410 -0.2266  1.0733 -0.8733
 8397TIP3   OH246681   4.770   3.151  13.730  0.4520 -0.1873 -0.1935
 8397TIP3    H146682   4.677   3.173  13.732  0.6828  0.7522  0.5165
 8397TIP3    H246683   4.812   3.219  13.782  1.4642 -0.9965  0.0589
 8398TIP3   OH246684   5.547   1.643  17.271 -0.1650 -0.7750 -0.0028
 8398TIP3    H146685   5.522   1.555  17.244 -0.8955 -0.3045 -0.9081
 8398TIP3    H246686   5.642   1.639  17.278 -0.2786 -1.8976  0.9445
 8399TIP3   OH246687   6.709   2.193   6.227 -0.0380 -0.5653 -0.6998
 8399TIP3    H146688   6.786   2.191   6.284 -1.1587  0.8774  0.9246
 8399TIP3    H246689   6.709   2.281   6.189 -1.1511 -0.3737 -0.2781
 8400TIP3   OH246690   5.188   2.787   4.999 -0.3240 -0.5795 -0.0790
 8400TIP3    H146691   5.161   2.786   4.907 -1.0731 -0.2257  0.1297
 8400TIP3    H246692   5.265   2.844   5.001 -0.5555 -0.2492 -0.4186
 8401TIP3   OH246693   2.318   3.415  16.964 -0.2548  0.7055  0.2080
 8401TIP3    H146694   2.224   3.402  16.954 -0.5828  1.1037  2.3551
 8401TIP3    H246695   2.354   3.327  16.969 -0.7429  0.5422  1.0348
 8402TIP3   OH246696   6.022   2.005  12.000  0.0775 -0.0789  1.0271
 8402TIP3    H146697   6.091   1.946  11.968 -1.4311 -2.1947  1.5933
 8402TIP3    H246698   5.971   2.027  11.922  1.2127  1.3173  0.6441
 8403TIP3   OH246699   1.442   1.482   3.616  0.4135 -0.0940  0.2157
 8403TIP3    H146700   1.392   1.434   3.682  1.4645  0.2605  1.2795
 8403TIP3    H246701   1.481   1.555   3.664 -1.0365  1.7401 -1.3534
 8404TIP3   OH246702   5.733   2.874  13.721  0.1293 -0.3783 -0.3404
 8404TIP3    H146703   5.685   2.799  13.685 -0.6105 -0.2619  0.3963
 8404TIP3    H246704   5.690   2.892  13.804  0.8532  0.3311 -0.1191
 8405TIP3   OH246705   3.265   0.985   4.195 -0.3281 -0.1638  0.3572
 8405TIP3    H146706   3.324   0.914   4.170 -2.2491 -1.6795  0.0097
 8405TIP3    H246707   3.228   0.959   4.279  0.7185  1.5707  1.3967
 8406TIP3   OH246708   3.555   2.890   4.413  0.5672  0.1176  0.4722
 8406TIP3    H146709   3.460   2.879   4.413  0.6659 -1.1164 -1.5783
 8406TIP3    H246710   3.571   2.961   4.475 -1.8350  1.4634 -0.3694
 8407TIP3   OH246711   6.649   2.824  10.585  0.2830 -0.2356  1.1083
 8407TIP3    H146712   6.569   2.787  10.548  0.3964  0.9301 -0.3612
 8407TIP3    H246713   6.717   2.801  10.522  0.5533  1.4381  0.7583
 8408TIP3   OH246714   3.465   2.164  14.250 -0.2169 -0.7890  0.1865
 8408TIP3    H146715   3.540   2.211  14.287 -0.1956 -0.4103 -0.3288
 8408TIP3    H246716   3.452   2.204  14.164 -2.3331  0.6084  1.1176
 8409TIP3   OH246717   1.276   5.104   3.549  0.3996 -0.0818  0.0517
 8409TIP3    H146718   1.333   5.179   3.533 -1.0108  0.7831 -1.0594
 8409TIP3    H246719   1.319   5.031   3.505  1.5341  0.1620  0.7273
 8410TIP3   OH246720   6.161   5.523   1.807 -0.0801 -0.1489  0.6158
 8410TIP3    H146721   6.084   5.475   1.837 -0.7699 -0.2051 -1.1783
 8410TIP3    H246722   6.232   5.492   1.863 -1.1428 -0.9415  1.5396
 8411TIP3   OH246723   0.299   3.354   1.334 -0.2366  0.8338 -0.0180
 8411TIP3    H146724   0.221   3.330   1.384 -0.5869 -1.0360 -1.3893
 8411TIP3    H246725   0.369   3.359   1.398 -1.0670  0.4039  0.9279
 8412TIP3   OH246726   1.943   5.499   4.489  0.1273 -0.0730  0.0811
 8412TIP3    H146727   2.027   5.515   4.530 -0.0448  0.2633  0.2996
 8412TIP3    H246728   1.883   5.561   4.531 -0.1159  0.0509 -0.4463
 8413TIP3   OH246729   4.771   3.649   0.531  0.1291  0.1698 -0.7066
 8413TIP3    H146730   4.722   3.708   0.474 -2.3307 -1.1944 -0.0443
 8413TIP3    H246731   4.715   3.573   0.541  2.4469 -1.4838  0.0144
 8414TIP3   OH246732   5.838   4.963   5.053  0.0833 -0.0166  0.3631
 8414TIP3    H146733   5.908   5.026   5.035  0.3025 -0.4703 -0.4150
 8414TIP3    H246734   5.760   5.016   5.069  0.8008  0.5329  2.1319
 8415TIP3   OH246735   3.802   2.744   1.764 -0.1475 -0.6835  0.1026
 8415TIP3    H146736   3.881   2.692   1.749  0.1401 -1.4802  4.0222
 8415TIP3    H246737   3.740   2.682   1.804 -0.2811  1.6222  3.5920
 8416TIP3   OH246738   5.377   2.882  13.815  0.1704  0.1125  0.3499
 8416TIP3    H146739   5.401   2.791  13.799  2.4416  1.1048 -2.4775
 8416TIP3    H246740   5.448   2.916  13.870 -0.2427  0.3620  0.7255
 8417TIP3   OH246741   1.836   4.304   2.820 -0.6131  0.3686 -0.8024
 8417TIP3    H146742   1.826   4.221   2.867 -1.4213  0.7284 -0.3323
 8417TIP3    H246743   1.796   4.289   2.735 -1.0057  0.3543 -0.6176
 8418TIP3   OH246744   4.928   4.703   2.197 -0.3170  0.0085  0.2225
 8418TIP3    H146745   4.874   4.758   2.253 -1.3222 -1.4521  0.7281
 8418TIP3    H246746   4.877   4.692   2.117  2.0640  3.9161 -1.9823
 8419TIP3   OH246747   3.692   3.276  14.746  0.4333  0.5753 -0.3783
 8419TIP3    H146748   3.787   3.264  14.738  0.3880  0.3609 -0.5993
 8419TIP3    H246749   3.661   3.284  14.656  0.3250  1.3217 -0.2794
 8420TIP3   OH246750   0.901   0.774  12.103  0.1586 -0.1539  0.1099
 8420TIP3    H146751   0.926   0.686  12.076  1.1923 -0.0194  0.5895
 8420TIP3    H246752   0.820   0.792  12.056 -1.2786 -2.2205  1.7110
 8421TIP3   OH246753   4.400   6.565  17.195 -0.5899  0.2116 -0.0801
 8421TIP3    H146754   4.482   6.523  17.219 -2.2400 -2.6976  0.8261
 8421TIP3    H246755   4.385   6.630  17.264  1.5996  1.7821 -1.0309
 8422TIP3   OH246756   1.872   1.387  12.572  0.0107 -0.0363 -0.7024
 8422TIP3    H146757   1.852   1.464  12.519  0.1074 -0.1898 -0.9617
 8422TIP3    H246758   1.864   1.313  12.512  0.2463 -0.1992 -0.5343
 8423TIP3   OH246759   5.611   1.856  11.686  0.4972  0.1500  0.5061
 8423TIP3    H146760   5.637   1.905  11.607  0.2397  0.1602  0.4277
 8423TIP3    H246761   5.678   1.788  11.695  0.1839 -0.2364 -0.0748
 8424TIP3   OH246762   4.875   5.436  14.062 -0.0375 -0.9309 -0.4166
 8424TIP3    H146763   4.831   5.513  14.097 -0.3783 -0.5031 -1.7486
 8424TIP3    H246764   4.960   5.434  14.107 -0.8377 -0.9598  1.1185
 8425TIP3   OH246765   0.208   2.112   4.803  0.7685 -0.0233 -0.5914
 8425TIP3    H146766   0.217   2.195   4.850 -1.0634  0.4490 -1.0415
 8425TIP3    H246767   0.228   2.134   4.712  0.3875 -0.1062 -0.6943
 8426TIP3   OH246768   2.607   4.670   0.569  0.4762 -0.2245  0.0225
 8426TIP3    H146769   2.595   4.715   0.486 -0.7338  0.3656  0.5050
 8426TIP3    H246770   2.644   4.736   0.628 -1.3670  0.1852  0.7527
 8427TIP3   OH246771   6.019   6.321  14.178  0.0380  0.7257 -0.2699
 8427TIP3    H146772   6.026   6.408  14.215 -0.9147  0.7766 -0.1974
 8427TIP3    H246773   6.101   6.277  14.202 -0.5330  0.7841  1.8211
 8428TIP3   OH246774   2.892   0.244   5.567 -0.2375  0.2382 -0.0357
 8428TIP3    H146775   2.808   0.265   5.527 -1.2720 -2.1503  0.8082
 8428TIP3    H246776   2.938   0.192   5.501 -0.2660 -0.2046  0.2905
 8429TIP3   OH246777   4.328   3.382  12.268 -0.1525 -0.0389  0.6414
 8429TIP3    H146778   4.269   3.455  12.249 -0.2584 -0.1748  0.4491
 8429TIP3    H246779   4.274   3.319  12.316 -0.0764 -0.0171  0.7547
 8430TIP3   OH246780   2.066   3.727  11.230 -0.3926  0.2264  0.2280
 8430TIP3    H146781   2.134   3.688  11.285  0.5162 -3.0349 -3.0071
 8430TIP3    H246782   1.994   3.747  11.290  2.3103  1.1399  3.2760
 8431TIP3   OH246783   4.608   4.543   2.911  0.1999 -0.0935 -0.3772
 8431TIP3    H146784   4.572   4.600   2.844  0.3822  0.3889 -0.0648
 8431TIP3    H246785   4.583   4.584   2.994 -0.9419 -1.2451 -0.1383
 8432TIP3   OH246786   3.220   2.440   1.329 -0.2037  0.6426  0.3678
 8432TIP3    H146787   3.262   2.498   1.266 -0.0471  0.0579 -0.0674
 8432TIP3    H246788   3.247   2.352   1.304 -0.4583  0.3719  1.0102
 8433TIP3   OH246789   2.001   4.991  11.993 -0.0585 -0.2646 -0.3313
 8433TIP3    H146790   2.020   5.078  12.028 -0.1891 -1.0363  1.7005
 8433TIP3    H246791   1.905   4.984  11.998 -0.2012  0.1004 -2.0718
 8434TIP3   OH246792   4.369   3.520  14.416 -0.1534  0.2743  0.7519
 8434TIP3    H146793   4.391   3.574  14.341  1.1475 -1.6925 -0.3236
 8434TIP3    H246794   4.452   3.504  14.460 -0.8736  1.2062  2.4957
 8435TIP3   OH246795   5.224   4.046   3.127 -0.3127  0.3007 -0.0106
 8435TIP3    H146796   5.167   3.977   3.094 -0.2751  1.2837 -2.2436
 8435TIP3    H246797   5.313   4.015   3.109 -0.3200  1.5810 -2.5538
 8436TIP3   OH246798   4.927   3.503   6.060  0.4243  0.1415  0.7469
 8436TIP3    H146799   4.879   3.586   6.067 -0.0576 -0.1342  0.7410
 8436TIP3    H246800   4.863   3.436   6.085 -0.0489 -0.4959 -2.0708
 8437TIP3   OH246801   1.665   5.002  10.863 -0.5655  0.0438 -0.2504
 8437TIP3    H146802   1.656   5.071  10.929  0.5284 -1.1245  1.1627
 8437TIP3    H246803   1.740   5.029  10.810 -1.6407  1.1464 -1.2696
 8438TIP3   OH246804   2.459   5.333   5.413 -0.0397 -0.0435 -0.8535
 8438TIP3    H146805   2.394   5.358   5.347  0.1946 -0.4937 -1.2518
 8438TIP3    H246806   2.492   5.249   5.384  1.1244  0.4393 -0.9388
 8439TIP3   OH246807   0.022   0.399   4.019  0.2773 -0.2814  0.2318
 8439TIP3    H146808  -0.069   0.370   4.008  0.6397 -1.7920  1.0461
 8439TIP3    H246809   0.048   0.428   3.932 -0.5568 -1.1356 -0.3217
 8440TIP3   OH246810   0.226   5.548  15.493 -0.1248 -0.0154  0.2361
 8440TIP3    H146811   0.211   5.535  15.399 -2.5366 -1.7794  0.8116
 8440TIP3    H246812   0.234   5.643  15.503  0.7094  0.1592 -1.8175
 8441TIP3   OH246813   2.451   0.692  17.167 -0.0466 -0.3674  0.1617
 8441TIP3    H146814   2.533   0.742  17.175 -0.8895  1.4587 -1.8844
 8441TIP3    H246815   2.472   0.622  17.105 -0.2056  0.5537 -0.9545
 8442TIP3   OH246816   0.723   4.776  14.806 -0.6840 -0.3437 -0.4599
 8442TIP3    H146817   0.734   4.800  14.898  1.1846 -1.7046 -0.3137
 8442TIP3    H246818   0.661   4.841  14.772  1.2756  2.3427  0.8940
 8443TIP3   OH246819   1.353   2.595  13.704 -0.0256  0.2029 -0.5831
 8443TIP3    H146820   1.265   2.561  13.688 -1.0304  1.8819  1.1478
 8443TIP3    H246821   1.354   2.681  13.660  0.2541  0.8201  0.6115
 8444TIP3   OH246822   2.747   4.773  14.359  0.0580  0.2433  0.0621
 8444TIP3    H146823   2.723   4.685  14.387 -0.0629 -0.2445 -1.4853
 8444TIP3    H246824   2.840   4.780  14.378 -0.0161 -0.0739  0.5444
 8445TIP3   OH246825   6.467   1.829   0.191  0.7491  0.3198  0.1237
 8445TIP3    H146826   6.561   1.833   0.210  0.2298  1.6048  2.7572
 8445TIP3    H246827   6.430   1.787   0.268 -1.1113  2.2214  0.3201
 8446TIP3   OH246828   5.620   0.352  12.170 -0.2093  0.0095 -0.4790
 8446TIP3    H146829   5.660   0.331  12.085 -0.0886 -0.3311 -0.3382
 8446TIP3    H246830   5.682   0.412  12.211 -1.4471  2.1398 -1.6628
 8447TIP3   OH246831   0.794   2.239  12.160  0.0662 -0.3370  0.0172
 8447TIP3    H146832   0.757   2.301  12.223  0.4035  0.0377 -0.1508
 8447TIP3    H246833   0.730   2.236  12.089  0.7269  0.9403 -0.6586
 8448TIP3   OH246834   0.516   0.783   5.435  0.2698 -0.1793 -0.1163
 8448TIP3    H146835   0.422   0.767   5.441  0.1392  0.2971 -0.8481
 8448TIP3    H246836   0.543   0.740   5.353  0.3443  1.2703 -0.8660
 8449TIP3   OH246837   3.903   1.581   3.746 -0.3202 -0.2226 -0.1867
 8449TIP3    H146838   3.875   1.608   3.659 -1.1700  0.4065  0.2709
 8449TIP3    H246839   3.994   1.551   3.734 -0.2321  0.4122 -1.1703
 8450TIP3   OH246840   2.699   1.909   2.355  0.5059  0.1363 -0.1180
 8450TIP3    H146841   2.615   1.911   2.400  0.4523  0.5137 -0.2323
 8450TIP3    H246842   2.727   1.818   2.359  1.1281  0.3854  1.8446
 8451TIP3   OH246843   2.059   3.528   5.397  0.0727  0.3570  0.1280
 8451TIP3    H146844   1.973   3.491   5.376  0.5265  0.7111 -2.4715
 8451TIP3    H246845   2.118   3.452   5.397  0.3916  0.5687 -1.8169
 8452TIP3   OH246846   4.657   4.497   5.289  0.2156  0.2677 -0.1225
 8452TIP3    H146847   4.611   4.551   5.354 -0.0339 -0.3231  0.1906
 8452TIP3    H246848   4.713   4.559   5.243 -0.5051  0.9132 -0.1564
 8453TIP3   OH246849   0.573   3.539  13.928 -0.2029  0.8386 -0.4636
 8453TIP3    H146850   0.612   3.568  14.011  1.2372  4.0121 -2.1722
 8453TIP3    H246851   0.482   3.569  13.934 -0.3282  0.3277  0.2972
 8454TIP3   OH246852   0.304   0.801   3.382  0.1751  0.0886  0.2167
 8454TIP3    H146853   0.314   0.713   3.419 -0.5138 -0.2554 -0.3905
 8454TIP3    H246854   0.211   0.806   3.358  0.1594  1.0789  0.4836
 8455TIP3   OH246855   2.053   2.058  10.698 -0.2056 -0.2534  0.0522
 8455TIP3    H146856   2.142   2.049  10.732 -0.7106 -1.8891  0.9996
 8455TIP3    H246857   2.044   1.987  10.634 -0.3441  0.8248 -1.1473
 8456TIP3   OH246858   4.254   2.081   4.151  0.4746 -0.4515  0.0226
 8456TIP3    H146859   4.222   2.019   4.217 -0.1333  0.1064  0.2656
 8456TIP3    H246860   4.326   2.035   4.108  1.1504 -0.6609  1.3516
 8457TIP3   OH246861   6.265   1.710   5.626  0.1264 -0.4087 -0.0384
 8457TIP3    H146862   6.232   1.633   5.673 -2.2895 -0.1271 -1.2326
 8457TIP3    H246863   6.289   1.772   5.695  0.4002 -1.5187  0.8851
 8458TIP3   OH246864   0.713   2.752   3.308 -0.1483  0.0053 -0.0572
 8458TIP3    H146865   0.702   2.667   3.351  1.4388  0.5048  1.3784
 8458TIP3    H246866   0.808   2.767   3.309 -0.2426  0.9637 -1.9457
 8459TIP3   OH246867   1.871   3.675   3.023 -0.3089  0.1273 -0.1385
 8459TIP3    H146868   1.840   3.764   3.005  1.3434  1.0175  1.2288
 8459TIP3    H246869   1.860   3.665   3.118  1.3454 -0.3869  0.0119
 8460TIP3   OH246870   6.302   5.130   1.349  0.3280 -0.5242  0.3324
 8460TIP3    H146871   6.298   5.036   1.371 -1.6103 -0.3944  0.5874
 8460TIP3    H246872   6.233   5.142   1.284  1.6320  0.4335 -0.8905
 8461TIP3   OH246873   2.507   2.317  14.689  0.4318  0.4049  0.4799
 8461TIP3    H146874   2.519   2.341  14.781 -2.4609 -0.3616  1.1066
 8461TIP3    H246875   2.484   2.399  14.645  1.5144  0.7154  0.4819
 8462TIP3   OH246876   1.878   5.325  10.919 -0.7592  0.0070 -0.2208
 8462TIP3    H146877   1.931   5.379  10.861 -1.7504  0.3442 -0.8272
 8462TIP3    H246878   1.788   5.340  10.890 -1.2040 -0.3985  0.9200
 8463TIP3   OH246879   1.724   4.606   5.434 -0.2720  0.2664 -0.4491
 8463TIP3    H146880   1.773   4.614   5.516 -0.4181 -2.2793 -0.0989
 8463TIP3    H246881   1.792   4.598   5.367 -0.1896 -0.6799 -0.2500
 8464TIP3   OH246882   0.294   6.596   6.793  0.0502 -0.5785 -0.4211
 8464TIP3    H146883   0.378   6.598   6.748  0.5227 -1.4833  0.4106
 8464TIP3    H246884   0.309   6.542   6.871 -0.8446  0.6813  0.6494
 8465TIP3   OH246885   3.008   5.215  14.135 -0.9510 -0.3949  0.3983
 8465TIP3    H146886   3.075   5.203  14.068 -0.8952  1.7154  0.0431
 8465TIP3    H246887   3.030   5.151  14.202  1.7256  0.5616  0.5017
 8466TIP3   OH246888   5.060   6.631  12.565  0.2160  0.1332  0.0547
 8466TIP3    H146889   4.964   6.631  12.555  0.0690  4.7442  0.5021
 8466TIP3    H246890   5.074   6.629  12.659  0.4720  1.8677  0.0645
 8467TIP3   OH246891   0.082   5.011   4.660 -0.4029  0.1450 -0.0866
 8467TIP3    H146892  -0.002   5.004   4.615 -0.6253  0.7397  0.2410
 8467TIP3    H246893   0.147   4.999   4.591 -0.7447 -2.0703 -0.0838
 8468TIP3   OH246894   5.413   5.920  13.803 -0.0237  0.3207  0.0060
 8468TIP3    H146895   5.344   5.985  13.818 -0.6690 -0.6140  1.2228
 8468TIP3    H246896   5.370   5.835  13.819  1.1031 -0.3405 -0.3957
 8469TIP3   OH246897   5.370   4.930   5.547  0.0870 -0.3054  0.2333
 8469TIP3    H146898   5.319   4.979   5.611  1.5667 -0.6288  1.6799
 8469TIP3    H246899   5.458   4.968   5.552  0.6156 -1.3902 -0.4797
 8470TIP3   OH246900   4.576   4.674  12.980  0.0310  0.0347  0.1088
 8470TIP3    H146901   4.576   4.680  12.885 -1.9039  1.0269  0.1635
 8470TIP3    H246902   4.590   4.581  12.998 -2.0699 -0.5481 -1.1733
 8471TIP3   OH246903   1.051   3.920  14.650  0.4936 -0.2696  0.1991
 8471TIP3    H146904   0.989   3.930  14.723  1.9277  0.5831  1.3212
 8471TIP3    H246905   1.136   3.912  14.692  1.4335  1.0077 -1.4082
 8472TIP3   OH246906   3.526   5.729   4.707  0.8196  0.4133  0.0412
 8472TIP3    H146907   3.452   5.753   4.763  1.5713 -0.2380  1.3277
 8472TIP3    H246908   3.590   5.691   4.767  1.8622  0.2139 -1.1877
 8473TIP3   OH246909   6.633   1.535  16.678 -0.2531 -0.0742  0.1414
 8473TIP3    H146910   6.658   1.621  16.711  0.6428  0.3704 -1.6559
 8473TIP3    H246911   6.570   1.553  16.608 -0.2363 -0.8990 -0.0920
 8474TIP3   OH246912   4.765   2.902   2.716  0.0525  0.1327  0.0227
 8474TIP3    H146913   4.712   2.978   2.739  0.6165 -0.0061  1.7987
 8474TIP3    H246914   4.704   2.828   2.721  0.2841  0.0351  1.5992
 8475TIP3   OH246915   1.551   3.885   2.230  1.0577 -0.1805  0.0676
 8475TIP3    H146916   1.490   3.873   2.156  0.4083  0.9025  0.4157
 8475TIP3    H246917   1.614   3.813   2.221  0.4274 -0.6135 -0.9944
 8476TIP3   OH246918   4.878   0.201   2.373 -0.0591 -0.5537 -0.2705
 8476TIP3    H146919   4.915   0.266   2.433 -0.3461 -2.0514  1.5667
 8476TIP3    H246920   4.783   0.214   2.379 -0.0557  0.2551 -1.5484
 8477TIP3   OH246921   3.270   4.806  13.968  0.2997  0.3014 -0.0386
 8477TIP3    H146922   3.295   4.764  13.886 -2.7182 -1.4905 -0.1160
 8477TIP3    H246923   3.348   4.799  14.023  2.2118  1.1291 -2.5606
 8478TIP3   OH246924   2.575   5.109  16.514 -0.7803  0.9368  0.3895
 8478TIP3    H146925   2.642   5.092  16.581 -0.9317  1.5722  0.7145
 8478TIP3    H246926   2.554   5.023  16.479  2.0885  0.9545 -1.5550
 8479TIP3   OH246927   1.865   4.406  13.822 -0.0020 -0.0442 -0.2582
 8479TIP3    H146928   1.903   4.377  13.739 -1.1247  1.0085 -1.1485
 8479TIP3    H246929   1.831   4.494  13.804 -1.0005 -0.1346  1.0867
 8480TIP3   OH246930   0.730   3.245   6.605 -0.7935  0.0066  0.0666
 8480TIP3    H146931   0.812   3.256   6.654  0.0226 -0.6488 -1.1221
 8480TIP3    H246932   0.743   3.296   6.525 -2.3796  1.6278  0.8119
 8481TIP3   OH246933   5.456   0.119   2.757 -0.4293  0.2551  0.1254
 8481TIP3    H146934   5.496   0.180   2.696  0.0095 -0.1097  0.0496
 8481TIP3    H246935   5.417   0.174   2.825 -2.4674  0.7590 -1.4166
 8482TIP3   OH246936   0.755   4.257  15.869  0.4270 -0.1428 -0.4446
 8482TIP3    H146937   0.686   4.207  15.913 -0.2449 -0.9364 -2.3780
 8482TIP3    H246938   0.790   4.197  15.803  1.8388  0.8348 -0.6132
 8483TIP3   OH246939   1.579   5.142   5.314  0.6899  0.7020  0.3888
 8483TIP3    H146940   1.547   5.065   5.266 -0.0215  0.9766  0.4087
 8483TIP3    H246941   1.591   5.209   5.246 -2.7080  1.8752  0.8607
 8484TIP3   OH246942   5.569   4.703  16.608  0.5731  0.4197 -0.7050
 8484TIP3    H146943   5.505   4.750  16.662 -0.0687 -0.8566 -0.3223
 8484TIP3    H246944   5.621   4.772  16.567 -1.0622  1.4907 -1.0440
 8485TIP3   OH246945   2.486   1.703   5.008 -0.5805 -0.1069  0.4570
 8485TIP3    H146946   2.452   1.618   4.980 -0.3827  0.0573 -0.2997
 8485TIP3    H246947   2.564   1.716   4.954  0.9238 -0.6483  2.4339
 8486TIP3   OH246948   5.803   6.544  12.195  0.2541  0.3017 -0.3477
 8486TIP3    H146949   5.739   6.562  12.264 -0.3373  0.3954 -0.9186
 8486TIP3    H246950   5.881   6.593  12.222  0.5392 -0.8847  1.0342
 8487TIP3   OH246951   6.310   2.824  16.444 -0.3964  0.4786  0.0906
 8487TIP3    H146952   6.227   2.798  16.485 -0.3667  0.0045 -0.1478
 8487TIP3    H246953   6.358   2.866  16.515  0.0561 -1.2335  0.8281
 8488TIP3   OH246954   2.350   2.946  17.265  0.5743 -0.0815  0.3762
 8488TIP3    H146955   2.273   3.001  17.279 -0.5688 -1.4574 -0.2991
 8488TIP3    H246956   2.322   2.859  17.295  1.0784 -1.1018 -1.9900
 8489TIP3   OH246957   6.307   5.863   2.818  0.2054 -0.4906 -0.2412
 8489TIP3    H146958   6.264   5.894   2.898 -0.2775 -0.1409 -0.6350
 8489TIP3    H246959   6.398   5.888   2.829 -0.3328  1.8821 -0.9335
 8490TIP3   OH246960   2.773   6.088   2.525  0.5276  0.1672  0.3201
 8490TIP3    H146961   2.786   6.159   2.462  0.9482  0.5135  0.7990
 8490TIP3    H246962   2.772   6.009   2.471 -1.6825  0.6670 -0.4274
 8491TIP3   OH246963   3.025   3.748  14.526  0.2027  0.5874 -0.3122
 8491TIP3    H146964   3.114   3.756  14.490  0.2127 -1.4319 -0.7812
 8491TIP3    H246965   3.039   3.742  14.621  0.6351 -0.4776 -0.4331
 8492TIP3   OH246966   6.055   3.124   4.031 -0.5814  0.3913 -0.1720
 8492TIP3    H146967   5.992   3.085   3.971 -0.6028  0.0759  0.0549
 8492TIP3    H246968   6.054   3.068   4.108  0.0357  0.3297 -0.2010
 8493TIP3   OH246969   2.687   2.292  16.585  0.5894 -0.1517 -0.0519
 8493TIP3    H146970   2.780   2.271  16.576  0.7573  0.7851 -0.5174
 8493TIP3    H246971   2.680   2.337  16.669  0.1440 -2.4570  1.2114
 8494TIP3   OH246972   0.324   6.128  13.287 -0.0501  0.7056  0.3269
 8494TIP3    H146973   0.376   6.196  13.245  1.3458  0.4492  1.6175
 8494TIP3    H246974   0.233   6.157  13.275  0.4338  1.8216 -0.7833
 8495TIP3   OH246975   5.802   5.336  11.710  0.4080 -0.3010  0.1159
 8495TIP3    H146976   5.737   5.404  11.729 -1.1142 -1.1615 -1.8365
 8495TIP3    H246977   5.829   5.353  11.620  2.0934 -0.6075  0.5530
 8496TIP3   OH246978   2.131   3.080   1.674 -0.4354  0.4909  0.6102
 8496TIP3    H146979   2.159   3.066   1.583  1.3293  1.1984  1.0266
 8496TIP3    H246980   2.188   3.022   1.725  0.0862  1.7202  1.4478
 8497TIP3   OH246981   4.321   4.385   5.314  0.1975  0.6464  0.1160
 8497TIP3    H146982   4.398   4.411   5.365 -0.7189  0.1584  1.7852
 8497TIP3    H246983   4.257   4.454   5.331 -0.1751  0.3909 -0.2431
 8498TIP3   OH246984   6.357   1.330   3.303 -0.2940  0.0248 -0.2065
 8498TIP3    H146985   6.336   1.366   3.217 -0.2402 -1.4791 -0.8617
 8498TIP3    H246986   6.430   1.384   3.334 -0.8831  1.1342 -0.7109
 8499TIP3   OH246987   3.985   6.082   0.912  0.0794  0.8161  0.5726
 8499TIP3    H146988   4.046   6.140   0.866 -0.4969  2.2663  1.6005
 8499TIP3    H246989   3.902   6.130   0.913 -1.1131 -1.1287 -0.8164
 8500TIP3   OH246990   3.830   1.819  15.636 -0.2290  0.3634 -0.1211
 8500TIP3    H146991   3.802   1.731  15.610 -0.7822  0.8240 -1.1149
 8500TIP3    H246992   3.917   1.807  15.672 -0.1857 -0.5600 -0.5341
 8501TIP3   OH246993   2.029   1.912  14.439  0.2002 -0.0424 -0.2533
 8501TIP3    H146994   2.118   1.909  14.476  0.4141  0.9802 -0.6713
 8501TIP3    H246995   1.973   1.878  14.509  1.0104 -1.5245 -0.2956
 8502TIP3   OH246996   6.615   6.332   6.583 -0.2722 -0.0837 -0.3070
 8502TIP3    H146997   6.574   6.274   6.519  0.3929  0.2286 -1.0258
 8502TIP3    H246998   6.584   6.419   6.560  1.0999  0.2066 -1.1149
 8503TIP3   OH246999   2.303   3.029   1.108 -0.0272 -0.1216  0.3787
 8503TIP3    H147000   2.354   3.107   1.130 -0.3908  0.7904 -1.8463
 8503TIP3    H247001   2.367   2.958   1.103  1.6588  1.4843 -5.1007
 8504TIP3   OH247002   2.459   1.528   6.167  0.4601  0.5068  0.1184
 8504TIP3    H147003   2.534   1.490   6.213 -0.6591 -1.7440  0.1008
 8504TIP3    H247004   2.409   1.572   6.236  0.8702  0.5317  0.4038
 8505TIP3   OH247005   4.245   5.359  15.890  0.0207 -0.0114  0.1124
 8505TIP3    H147006   4.236   5.268  15.862  1.8101  0.2855 -1.5219
 8505TIP3    H247007   4.229   5.410  15.811  1.5782  0.9899  0.4188
 8506TIP3   OH247008   1.994   4.712   4.035 -0.2594 -0.3295  0.0044
 8506TIP3    H147009   1.910   4.704   3.989 -0.3758 -0.0277  0.1678
 8506TIP3    H247010   2.055   4.659   3.983  0.0153  1.3859 -1.4453
 8507TIP3   OH247011   1.148   4.241   4.162  0.1080  0.3773 -0.0668
 8507TIP3    H147012   1.067   4.199   4.133  0.4908  0.5378 -1.3961
 8507TIP3    H247013   1.122   4.331   4.183  0.3454  1.1139 -2.7246
 8508TIP3   OH247014   4.516   3.258  13.754  0.1585  0.1111  0.0324
 8508TIP3    H147015   4.436   3.232  13.708  0.3049 -0.6449  0.2005
 8508TIP3    H247016   4.517   3.353  13.747  0.1474  0.0204 -1.4938
 8509TIP3   OH247017   2.920   1.471   0.843  0.0766 -0.2250  0.5995
 8509TIP3    H147018   2.845   1.416   0.869 -0.1545 -0.6034 -0.8414
 8509TIP3    H247019   2.880   1.553   0.814  0.1495 -0.7261 -0.9549
 8510TIP3   OH247020   1.345   0.025  11.521 -0.4422 -0.1499  0.1867
 8510TIP3    H147021   1.262  -0.019  11.538 -0.3930 -0.4354 -0.2862
 8510TIP3    H247022   1.406  -0.047  11.501 -0.4538  0.1423 -0.9556
 8511TIP3   OH247023   5.112   0.931   0.869  0.5269 -0.2496 -0.2690
 8511TIP3    H147024   5.078   1.018   0.889 -0.6267 -0.2328 -2.1329
 8511TIP3    H247025   5.057   0.872   0.920  1.0441  0.0770  0.6800
 8512TIP3   OH247026   0.704   4.436  11.579 -0.7402  0.0333 -0.5939
 8512TIP3    H147027   0.741   4.497  11.515 -2.0632 -1.8884 -3.2568
 8512TIP3    H247028   0.621   4.475  11.604  0.5453  1.6510  1.3338
 8513TIP3   OH247029   5.838   5.144   2.219  0.3118  0.0569  0.0353
 8513TIP3    H147030   5.923   5.187   2.217  0.5653 -0.4483 -0.1541
 8513TIP3    H247031   5.847   5.075   2.285  0.5525 -1.0149 -1.0950
 8514TIP3   OH247032   1.733   0.143  15.956 -0.7370  0.2051  0.1176
 8514TIP3    H147033   1.690   0.222  15.925 -0.8308  0.2845  0.4470
 8514TIP3    H247034   1.662   0.083  15.978 -0.6688  0.0870  0.0164
 8515TIP3   OH247035   1.056   5.315  11.739 -0.1965 -0.1948 -0.1198
 8515TIP3    H147036   0.978   5.362  11.769 -0.2578 -0.5879  0.3616
 8515TIP3    H247037   1.128   5.375  11.754 -0.5204  0.5377 -1.4642
 8516TIP3   OH247038   0.615   4.913   1.409  0.1158 -0.6927  0.2492
 8516TIP3    H147039   0.616   4.831   1.458 -0.4306 -0.7273  0.2050
 8516TIP3    H247040   0.707   4.931   1.391  0.1602 -2.3937 -1.5386
 8517TIP3   OH247041   4.306   2.904  13.719  0.5644 -0.2663  0.0215
 8517TIP3    H147042   4.263   2.842  13.660 -2.0490  2.3680 -0.9452
 8517TIP3    H247043   4.312   2.985  13.669  0.9897  1.1907  2.3370
 8518TIP3   OH247044   1.094   0.891   1.145 -0.2535 -0.0302 -0.5048
 8518TIP3    H147045   1.040   0.968   1.159  0.0042  0.0446  0.1128
 8518TIP3    H247046   1.050   0.842   1.076 -1.7491 -0.5776  0.8217
 8519TIP3   OH247047   3.435   2.085  11.057  1.2250  0.0600  0.1512
 8519TIP3    H147048   3.405   1.998  11.031  0.7523  0.3955 -0.4281
 8519TIP3    H247049   3.439   2.081  11.153 -0.0424 -0.2018  0.2037
 8520TIP3   OH247050   5.035   2.364  16.302 -0.7497  0.1609 -0.2761
 8520TIP3    H147051   5.083   2.443  16.275  0.0614 -0.4037 -0.5078
 8520TIP3    H247052   4.964   2.397  16.356  0.4148  0.9622  0.8094
 8521TIP3   OH247053   4.035   0.898   5.971 -0.4477  0.1057 -0.1186
 8521TIP3    H147054   4.090   0.969   6.005 -0.6792 -0.0965  0.6749
 8521TIP3    H247055   3.946   0.927   5.985 -0.5725  0.7480 -2.0557
 8522TIP3   OH247056   2.275   4.768   4.963 -0.0871  0.0604  0.5754
 8522TIP3    H147057   2.335   4.718   4.908 -0.5177 -0.5702  0.6692
 8522TIP3    H247058   2.231   4.828   4.902 -0.1816 -0.2673  0.3214
 8523TIP3   OH247059   5.367   6.241  11.928  0.1959 -0.0777  0.2332
 8523TIP3    H147060   5.326   6.241  11.842 -0.6870  0.6544  0.6463
 8523TIP3    H247061   5.348   6.328  11.964  1.0054 -0.1889  0.9534
 8524TIP3   OH247062   0.678   3.306  14.803 -0.1287  0.0832 -0.0726
 8524TIP3    H147063   0.706   3.230  14.853 -0.4165  0.2302  0.3147
 8524TIP3    H247064   0.614   3.272  14.741 -0.4915  0.0571  0.3109
 8525TIP3   OH247065   3.238   2.022   4.300  0.5930  0.0097  0.2720
 8525TIP3    H147066   3.144   2.039   4.295  0.7017  1.7100  3.0808
 8525TIP3    H247067   3.274   2.064   4.222 -0.9629 -0.7622 -0.8999
 8526TIP3   OH247068   0.802   5.756  15.400  0.3170  0.4639  0.6420
 8526TIP3    H147069   0.793   5.665  15.427  0.4244  0.6674  1.3840
 8526TIP3    H247070   0.891   5.780  15.427  0.6129  0.5099 -0.3849
 8527TIP3   OH247071   5.843   6.433  11.025  1.1749  0.2139  0.0894
 8527TIP3    H147072   5.755   6.440  11.062  0.3464  1.9351 -2.1053
 8527TIP3    H247073   5.844   6.350  10.979  0.7817  0.0894  0.3019
 8528TIP3   OH247074   2.167   4.265  12.705 -0.3593 -0.0360  0.7341
 8528TIP3    H147075   2.167   4.360  12.715  0.7735  0.0037  0.3878
 8528TIP3    H247076   2.249   4.245  12.659 -1.0292 -1.0901 -0.0336
 8529TIP3   OH247077   5.632   5.654   3.166  0.0842 -0.6318  0.2960
 8529TIP3    H147078   5.664   5.670   3.077  2.1807  1.1856  1.3006
 8529TIP3    H247079   5.599   5.739   3.194 -2.0313 -1.5814  0.7142
 8530TIP3   OH247080   5.938   5.406   1.933 -0.1767  0.7251  0.7234
 8530TIP3    H147081   5.849   5.429   1.907  0.5296  3.6216  0.6883
 8530TIP3    H247082   5.927   5.346   2.007 -2.1750  1.7923  1.3262
 8531TIP3   OH247083   2.997   4.677   3.349 -0.1817  0.5993 -0.1867
 8531TIP3    H147084   3.056   4.606   3.324  1.7359  1.5585  1.5606
 8531TIP3    H247085   3.047   4.757   3.334 -1.7252  1.5452 -0.4951
 8532TIP3   OH247086   4.922   5.260   5.568 -0.3754 -0.1742 -0.0522
 8532TIP3    H147087   4.863   5.261   5.644  0.2031  0.0410  0.3932
 8532TIP3    H247088   4.865   5.235   5.495 -1.3781  1.6535  0.0672
 8533TIP3   OH247089   4.943   2.374  11.412 -0.4448  0.1781 -0.3776
 8533TIP3    H147090   4.907   2.381  11.324 -1.4799  3.5347  0.2600
 8533TIP3    H247091   5.038   2.368  11.398 -0.7821 -2.4229 -1.8024
 8534TIP3   OH247092   2.284   3.997  16.670 -0.0510  0.2457  0.1794
 8534TIP3    H147093   2.377   3.982  16.690  0.0265 -1.6161 -1.3850
 8534TIP3    H247094   2.239   3.923  16.712 -0.8010  1.0169  0.7315
 8535TIP3   OH247095   3.697   1.244   3.725  0.4205  0.0608  0.1448
 8535TIP3    H147096   3.738   1.284   3.802 -0.8503 -0.6298  1.2067
 8535TIP3    H247097   3.702   1.150   3.742  1.0233 -0.1401 -1.0955
 8536TIP3   OH247098   3.990   0.594  13.671 -0.4938 -0.4095 -0.3580
 8536TIP3    H147099   3.918   0.650  13.639  0.7322  0.9529 -0.7711
 8536TIP3    H247100   4.025   0.640  13.747  0.1308 -0.9290 -0.3267
 8537TIP3   OH247101   0.833   4.776   3.664 -0.2330  0.8189  0.0273
 8537TIP3    H147102   0.872   4.860   3.640 -1.7953  1.6404  0.2891
 8537TIP3    H247103   0.739   4.789   3.649 -0.5553 -0.6542  0.7601
 8538TIP3   OH247104   6.527   5.135   2.270 -0.0841  0.1146  0.2940
 8538TIP3    H147105   6.620   5.141   2.294  0.3823 -2.2767 -0.7646
 8538TIP3    H247106   6.528   5.147   2.175 -0.6877 -1.4056  0.0913
 8539TIP3   OH247107   5.339   0.449  11.373  0.3964 -0.3522 -0.3081
 8539TIP3    H147108   5.388   0.367  11.377  0.0182 -0.5780 -0.2888
 8539TIP3    H247109   5.398   0.509  11.326  1.0773 -0.3390  0.5615
 8540TIP3   OH247110   3.482   6.512  14.778  0.0543 -0.0987 -0.0463
 8540TIP3    H147111   3.463   6.504  14.872 -0.7513  0.4401 -0.1547
 8540TIP3    H247112   3.400   6.486  14.735  0.2935  0.0435 -0.5891
 8541TIP3   OH247113   1.146   4.941  12.850 -0.0562 -0.2399  0.3225
 8541TIP3    H147114   1.116   4.933  12.759  0.5629 -0.7562  0.1587
 8541TIP3    H247115   1.088   5.008  12.888 -1.4634 -1.2727  0.0442
 8542TIP3   OH247116   5.453   5.808  13.388  0.1528 -0.2372  0.0906
 8542TIP3    H147117   5.427   5.742  13.324 -0.9695 -0.3353  0.6447
 8542TIP3    H247118   5.479   5.884  13.335 -3.9745  0.9127 -0.4717
 8543TIP3   OH247119   6.699   6.642   0.878  0.5256 -0.1273  1.0142
 8543TIP3    H147120   6.680   6.588   0.955 -0.1877 -0.8204  0.3708
 8543TIP3    H247121   6.776   6.693   0.902 -0.2736  0.3796  2.5397
 8544TIP3   OH247122   5.688   3.418  17.292  0.2212 -0.1922  0.8491
 8544TIP3    H147123   5.778   3.416  17.324  1.2649 -1.7131 -2.0131
 8544TIP3    H247124   5.645   3.345  17.336  2.0709 -3.2678 -2.2234
 8545TIP3   OH247125   6.632   1.681   3.046 -0.1332  0.3732  0.8832
 8545TIP3    H147126   6.659   1.706   2.958 -0.0044  1.2259  1.1593
 8545TIP3    H247127   6.707   1.632   3.081  1.3391  3.2513  1.8702
 8546TIP3   OH247128   6.301   1.365   4.203  0.0979  0.1491  0.1751
 8546TIP3    H147129   6.363   1.423   4.249  0.3044 -0.1982  0.3374
 8546TIP3    H247130   6.343   1.279   4.204 -0.6092 -0.1982  0.7198
 8547TIP3   OH247131   5.626   3.471   3.448 -0.1985 -0.2182  0.3180
 8547TIP3    H147132   5.707   3.521   3.457  0.6416 -1.2830 -1.0657
 8547TIP3    H247133   5.573   3.522   3.387 -0.1037 -0.0971  0.3359
 8548TIP3   OH247134   5.705   0.740   0.336  0.0918  0.2427 -0.4929
 8548TIP3    H147135   5.669   0.819   0.296 -0.5963 -0.2892 -0.9431
 8548TIP3    H247136   5.767   0.772   0.401 -0.3389  1.1512 -0.5228
 8549TIP3   OH247137   3.237   3.627   3.452 -0.0584  0.1528 -0.5366
 8549TIP3    H147138   3.271   3.578   3.527 -1.0341 -1.0493 -0.8524
 8549TIP3    H247139   3.293   3.601   3.379  1.2215  1.7297 -0.1207
 8550TIP3   OH247140   0.293   1.208   2.839 -0.0411  0.2022 -0.1245
 8550TIP3    H147141   0.277   1.190   2.746 -0.9003  0.0541  0.0462
 8550TIP3    H247142   0.291   1.304   2.845  0.2266  0.2180 -0.2961
 8551TIP3   OH247143   6.726   1.776   6.138 -0.8289 -0.6430 -0.0485
 8551TIP3    H147144   6.779   1.844   6.097 -0.0735 -1.8574 -1.1268
 8551TIP3    H247145   6.709   1.713   6.068 -2.2203 -1.1433  0.7226
 8552TIP3   OH247146   1.949   5.861   2.584  0.0876  0.6096  0.6349
 8552TIP3    H147147   1.874   5.822   2.630  0.4475 -0.4270  0.3655
 8552TIP3    H247148   1.909   5.910   2.512 -0.3120 -0.7445 -0.1051
 8553TIP3   OH247149   3.448   0.873  14.318 -0.2299 -0.0875 -0.0479
 8553TIP3    H147150   3.366   0.911  14.287 -1.7672 -2.6116  0.7739
 8553TIP3    H247151   3.516   0.930  14.282 -2.2391  0.9765 -2.3162
 8554TIP3   OH247152   1.988   1.613  16.031  0.4432  0.2466 -0.0900
 8554TIP3    H147153   1.984   1.587  15.939 -1.1950 -0.2114  0.1005
 8554TIP3    H247154   2.075   1.652  16.041  0.6738  0.2116 -1.8040
 8555TIP3   OH247155   1.943   6.464  12.467 -0.2105 -0.0822 -0.3581
 8555TIP3    H147156   1.951   6.466  12.372  0.6903  0.2642 -0.2804
 8555TIP3    H247157   2.003   6.532  12.498  1.3952 -1.8640  0.5593
 8556TIP3   OH247158   5.293   0.830   5.954  0.3420  0.5850  0.2059
 8556TIP3    H147159   5.207   0.866   5.975 -0.0924  0.1261 -0.7091
 8556TIP3    H247160   5.276   0.737   5.938  0.9898  0.5145 -0.0795
 8557TIP3   OH247161   4.899   4.775  16.897 -0.5825  0.2367 -0.0402
 8557TIP3    H147162   4.966   4.728  16.946 -1.0125  0.0976  0.4121
 8557TIP3    H247163   4.938   4.861  16.880  0.5718 -0.5787 -1.6575
 8558TIP3   OH247164   4.349   2.671  10.972  0.5648 -0.3285 -0.3742
 8558TIP3    H147165   4.411   2.648  10.903  0.6306 -0.8672 -0.1337
 8558TIP3    H247166   4.329   2.589  11.016  1.2692  0.1513  0.8716
 8559TIP3   OH247167   4.619   4.488  15.645 -0.3508 -0.2987 -0.1172
 8559TIP3    H147168   4.707   4.458  15.622  0.3673  1.6502  0.0083
 8559TIP3    H247169   4.576   4.410  15.680  1.7707 -0.9815  1.0781
 8560TIP3   OH247170   0.152   0.503  13.843  0.0073  0.3595  0.0174
 8560TIP3    H147171   0.099   0.432  13.807  1.7558 -0.1448 -1.6248
 8560TIP3    H247172   0.204   0.462  13.912 -1.1277  0.6847  1.0801
 8561TIP3   OH247173   1.327   1.968   4.465  0.8372 -0.4971  0.2300
 8561TIP3    H147174   1.334   1.964   4.370  0.3240  0.1834  0.1590
 8561TIP3    H247175   1.364   1.885   4.495 -0.2045 -1.3051 -0.6312
 8562TIP3   OH247176   6.211   0.951  14.109 -0.2823  0.3776 -0.1513
 8562TIP3    H147177   6.214   1.042  14.080  1.9267 -0.4346 -2.6147
 8562TIP3    H247178   6.287   0.941  14.167 -1.3706  0.4625  1.3244
 8563TIP3   OH247179   5.504   5.833   5.676  0.3232  0.3397  0.1998
 8563TIP3    H147180   5.497   5.890   5.599  0.4805  0.3334  0.1789
 8563TIP3    H247181   5.551   5.885   5.740  1.9403 -0.3373 -0.4011
 8564TIP3   OH247182   1.776   1.729  13.964 -0.4231  0.1942  0.0919
 8564TIP3    H147183   1.727   1.714  14.044  0.0444  0.0478  0.3539
 8564TIP3    H247184   1.828   1.808  13.982  0.2826 -0.2966  0.2209
 8565TIP3   OH247185   2.894   4.766  12.885  0.0241  0.7566 -0.0735
 8565TIP3    H147186   2.850   4.841  12.846 -1.4381 -0.1099 -0.1201
 8565TIP3    H247187   2.849   4.751  12.968  0.8015  0.3996  0.2999
 8566TIP3   OH247188   0.484   5.575  14.025  0.6495  0.2196  0.7819
 8566TIP3    H147189   0.484   5.535  14.112  2.1447  0.5189  0.9272
 8566TIP3    H247190   0.572   5.560  13.991  0.8187  2.1642  0.2856
 8567TIP3   OH247191   5.543   4.157   2.787 -0.1984  0.6340 -0.4550
 8567TIP3    H147192   5.476   4.198   2.842 -1.6863 -0.4823 -1.4113
 8567TIP3    H247193   5.580   4.230   2.737 -1.0502  1.1849 -0.2924
 8568TIP3   OH247194   2.656   4.403   5.325 -0.0290 -0.3324 -0.4710
 8568TIP3    H147195   2.617   4.490   5.318 -0.0601 -0.1251  1.8339
 8568TIP3    H247196   2.593   4.351   5.375  1.3172 -0.7917  0.8208
 8569TIP3   OH247197   0.272   1.867   2.029 -0.2101 -0.2593  0.0647
 8569TIP3    H147198   0.275   1.963   2.027 -1.0600 -0.2164  0.5740
 8569TIP3    H247199   0.347   1.839   1.975  1.7556  0.6794  2.2159
 8570TIP3   OH247200   2.667   5.891  15.701  0.4414 -0.0718  0.2592
 8570TIP3    H147201   2.699   5.819  15.646  0.9269 -0.4189  0.9975
 8570TIP3    H247202   2.744   5.920  15.750  0.7673  2.3519 -1.5459
 8571TIP3   OH247203   2.660   3.250   1.732  0.3498 -0.0782 -0.2656
 8571TIP3    H147204   2.694   3.336   1.710  0.7294  0.3398  1.8624
 8571TIP3    H247205   2.719   3.217   1.800  0.5701 -2.2825 -1.4515
 8572TIP3   OH247206   0.414   0.470   4.404  0.5658  0.0920  0.2399
 8572TIP3    H147207   0.376   0.401   4.458  0.0242  0.5674  0.4659
 8572TIP3    H247208   0.365   0.466   4.322  1.1251 -0.3703 -0.0775
 8573TIP3   OH247209   0.910   1.826  15.709  0.0752 -0.1146 -0.4652
 8573TIP3    H147210   0.903   1.805  15.802 -0.7295  0.1193 -0.4641
 8573TIP3    H247211   0.832   1.785  15.670  0.7483 -0.7736 -1.1369
 8574TIP3   OH247212   1.695   1.335  10.793 -0.4251  0.6003  0.3945
 8574TIP3    H147213   1.783   1.332  10.756 -0.1711  2.6201  0.7822
 8574TIP3    H247214   1.664   1.244  10.789  2.8492 -0.7702  3.1173
 8575TIP3   OH247215   0.118   5.585  16.042  0.5645 -0.0055 -0.0396
 8575TIP3    H147216   0.113   5.653  16.109 -0.1458 -1.9450  1.9417
 8575TIP3    H247217   0.047   5.524  16.064  1.6084 -1.7526 -1.3484
 8576TIP3   OH247218   2.530   0.260   0.110 -0.6131  0.2492 -0.4272
 8576TIP3    H147219   2.478   0.182   0.131 -0.8432  0.6954  0.6467
 8576TIP3    H247220   2.478   0.333   0.142  0.1392  0.7756 -0.3989
 8577TIP3   OH247221   6.354   3.998   5.835 -0.2454 -0.2975 -0.0212
 8577TIP3    H147222   6.341   4.075   5.780 -2.0939 -0.9222 -0.5106
 8577TIP3    H247223   6.352   4.031   5.925  2.7424  0.7227 -0.2930
 8578TIP3   OH247224   0.609   2.851   0.958 -0.4933 -0.2344  0.2463
 8578TIP3    H147225   0.539   2.900   0.915  0.4047 -0.8478 -2.0099
 8578TIP3    H247226   0.642   2.792   0.890  2.6243  0.4811  1.0863
 8579TIP3   OH247227   4.256   6.554  15.157 -0.5888  0.3295 -0.5741
 8579TIP3    H147228   4.343   6.525  15.130 -0.9946 -0.9320 -0.5864
 8579TIP3    H247229   4.212   6.579  15.075  0.2928  2.5364 -0.4070
 8580TIP3   OH247230   6.635   4.478   3.720  0.2637 -0.1273 -0.5585
 8580TIP3    H147231   6.668   4.524   3.643  0.1218 -0.8380 -1.0462
 8580TIP3    H247232   6.542   4.464   3.702 -0.4757  2.3065  1.0244
 8581TIP3   OH247233   2.340   4.462  14.184 -0.3141  0.2327  0.1338
 8581TIP3    H147234   2.420   4.475  14.234 -0.6187  0.6242  0.5236
 8581TIP3    H247235   2.311   4.374  14.206 -0.1831  0.2245  0.2712
 8582TIP3   OH247236   3.650   4.741   3.058 -0.3747  0.7381 -0.3149
 8582TIP3    H147237   3.635   4.764   3.149  1.1705 -1.2251  0.4520
 8582TIP3    H247238   3.744   4.724   3.051 -1.0722 -3.3612 -1.2235
 8583TIP3   OH247239   4.469   6.763   0.569  0.4218  0.0319 -0.5794
 8583TIP3    H147240   4.480   6.672   0.540  2.2735 -0.3930  1.3153
 8583TIP3    H247241   4.400   6.759   0.635  0.9230 -0.1230 -0.0549
 8584TIP3   OH247242   1.354   6.536   3.470 -0.2714  0.2309 -0.3962
 8584TIP3    H147243   1.265   6.548   3.438 -1.3034 -0.1385  2.1833
 8584TIP3    H247244   1.363   6.600   3.540  1.6371  0.5304 -0.8949
 8585TIP3   OH247245   3.798   2.400   3.187  0.0499  0.1094  0.1093
 8585TIP3    H147246   3.748   2.347   3.125  1.1617 -0.4741 -0.3100
 8585TIP3    H247247   3.887   2.365   3.181 -0.0091 -0.5352  2.7124
 8586TIP3   OH247248   3.555   3.499   4.617 -0.4165  0.1880  0.3257
 8586TIP3    H147249   3.621   3.521   4.682 -0.6966 -1.6377  1.2785
 8586TIP3    H247250   3.599   3.512   4.533  1.4338 -1.6623  0.9465
 8587TIP3   OH247251   6.697   5.741   4.665  0.1982  0.5264 -0.5195
 8587TIP3    H147252   6.769   5.781   4.713  1.1358 -1.0196 -0.6189
 8587TIP3    H247253   6.739   5.691   4.595 -0.8066 -2.2645  0.7880
 8588TIP3   OH247254   4.946   1.091  12.593 -0.4186 -0.0072  0.8051
 8588TIP3    H147255   4.981   1.106  12.505 -2.8350  0.9492 -0.0152
 8588TIP3    H247256   4.920   0.999  12.593 -1.7510  0.3576  0.0194
 8589TIP3   OH247257   0.539   0.481   5.540 -0.6557 -0.0230  0.4245
 8589TIP3    H147258   0.456   0.530   5.539 -0.2175  0.7764  1.5384
 8589TIP3    H247259   0.571   0.492   5.630  0.8810  0.0438 -0.1326
 8590TIP3   OH247260   2.379   6.782  16.535  0.0210  0.3111  0.4014
 8590TIP3    H147261   2.290   6.806  16.560 -0.1197  0.0204  0.1999
 8590TIP3    H247262   2.409   6.853  16.479 -0.4183 -0.0146 -0.2546
 8591TIP3   OH247263   2.589   2.376   3.656  0.2472  0.2140  0.3113
 8591TIP3    H147264   2.623   2.462   3.633  0.8583 -0.6538 -2.1748
 8591TIP3    H247265   2.667   2.323   3.672 -0.1092 -0.0682  1.1414
 8592TIP3   OH247266   1.425   2.301   4.224  0.4083  0.0154 -0.3509
 8592TIP3    H147267   1.508   2.297   4.175  0.0213 -0.3958 -0.9795
 8592TIP3    H247268   1.426   2.222   4.279  1.2309  0.9112  0.9466
 8593TIP3   OH247269   5.115   1.618  14.894  0.2814  0.0489  0.3053
 8593TIP3    H147270   5.170   1.565  14.953  0.7706  1.3328  1.0159
 8593TIP3    H247271   5.057   1.666  14.952  1.3390  1.9768 -0.1971
 8594TIP3   OH247272   2.187   3.448  14.882  0.0540  0.5671  0.0702
 8594TIP3    H147273   2.145   3.380  14.831 -1.5777 -0.1639  2.3131
 8594TIP3    H247274   2.253   3.402  14.934  0.8939  1.1208 -0.4953
 8595TIP3   OH247275   4.152   1.401   1.513  0.1867 -0.9245 -0.0458
 8595TIP3    H147276   4.191   1.383   1.599 -0.2761  0.1578  0.4089
 8595TIP3    H247277   4.225   1.429   1.458  0.4033 -1.1189  0.1420
 8596TIP3   OH247278   3.303   5.174   2.060  0.2168  0.1963 -0.5142
 8596TIP3    H147279   3.350   5.216   2.132 -0.6608  1.2087 -0.5296
 8596TIP3    H247280   3.310   5.236   1.988 -1.2034  0.3843 -0.4945
 8597TIP3   OH247281   2.003   1.572   0.204  0.0193  0.3527 -0.7969
 8597TIP3    H147282   2.073   1.552   0.266 -1.1442 -2.2896 -0.2744
 8597TIP3    H247283   1.945   1.632   0.250 -0.0151 -0.3858  0.1351
 8598TIP3   OH247284   5.739   1.153   3.304 -0.4927  0.2560 -0.8503
 8598TIP3    H147285   5.758   1.059   3.304 -0.4953  0.2458 -1.8558
 8598TIP3    H247286   5.801   1.191   3.366  0.1280 -0.2926 -1.1326
 8599TIP3   OH247287   3.781   3.361   2.524 -0.2122  0.2981 -0.0170
 8599TIP3    H147288   3.776   3.357   2.620  0.4696 -0.7959 -0.0143
 8599TIP3    H247289   3.723   3.433   2.500 -1.2883 -0.1502  1.1461
 8600TIP3   OH247290   1.504   3.607  15.684 -0.2139  0.1417  0.0760
 8600TIP3    H147291   1.476   3.619  15.594 -1.3666 -2.4964  0.0372
 8600TIP3    H247292   1.530   3.515  15.690 -1.0129  0.0213  2.6394
 8601TIP3   OH247293   3.009   6.402  12.784 -0.4920  0.2568 -0.1861
 8601TIP3    H147294   3.004   6.495  12.805 -1.0549  0.0838  0.4931
 8601TIP3    H247295   3.046   6.361  12.863 -2.1592 -0.3422  0.3228
 8602TIP3   OH247296   6.074   2.059   5.328 -0.0986 -0.5459  0.0733
 8602TIP3    H147297   6.150   2.118   5.330 -1.2322  0.9036  1.9456
 8602TIP3    H247298   6.002   2.112   5.361 -2.1443 -1.6485 -2.5056
 8603TIP3   OH247299   2.683   5.721   5.409 -0.1417  0.0717  0.4314
 8603TIP3    H147300   2.716   5.730   5.499 -0.1892 -1.4386  0.6152
 8603TIP3    H247301   2.758   5.687   5.360 -0.1205  0.8822 -0.1073
 8604TIP3   OH247302   4.287   4.825  14.508  0.0694  0.4956 -0.2477
 8604TIP3    H147303   4.257   4.788  14.591  1.1969  0.8262  0.3078
 8604TIP3    H247304   4.207   4.861  14.469 -0.9960 -2.1613 -0.6370
 8605TIP3   OH247305   3.791   4.378  14.448 -0.5009 -0.2119  0.3551
 8605TIP3    H147306   3.709   4.341  14.415 -1.0652 -1.7108  3.2920
 8605TIP3    H247307   3.764   4.449  14.506  0.3772  0.6462 -0.2655
 8606TIP3   OH247308   3.934   0.104  11.153  0.0332 -0.0780 -0.5075
 8606TIP3    H147309   3.926   0.094  11.059 -1.1042  1.2247 -0.5561
 8606TIP3    H247310   3.955   0.197  11.166 -1.5314  0.1338  0.6161
 8607TIP3   OH247311   2.877   1.606  15.438  0.2650 -0.6005 -0.1531
 8607TIP3    H147312   2.824   1.560  15.503  0.3224 -1.4953 -0.7348
 8607TIP3    H247313   2.946   1.648  15.489 -0.2153 -0.5451  0.4625
 8608TIP3   OH247314   5.836   5.334   5.140  0.0185  0.2667  0.5023
 8608TIP3    H147315   5.785   5.314   5.218 -0.4054  0.5004  0.2908
 8608TIP3    H247316   5.799   5.278   5.072  0.6596 -0.2351  0.5675
 8609TIP3   OH247317   1.200   3.827   1.599 -0.5024 -0.2889 -0.4818
 8609TIP3    H147318   1.150   3.847   1.519 -0.3664  0.8511 -0.2853
 8609TIP3    H247319   1.230   3.912   1.630  0.8983 -0.8916 -0.1544
 8610TIP3   OH247320   0.072   2.547   3.825 -0.5464 -0.2622 -0.0089
 8610TIP3    H147321   0.125   2.468   3.830  0.4798  0.5140  1.8829
 8610TIP3    H247322   0.129   2.616   3.861 -2.1135  0.9551  0.1681
 8611TIP3   OH247323   1.114   0.378   6.168 -0.0189  0.3192  0.1741
 8611TIP3    H147324   1.111   0.298   6.221  0.7998  0.5002  0.4844
 8611TIP3    H247325   1.203   0.381   6.133  0.1758  1.5074  0.7688
 8612TIP3   OH247326   5.739   4.504   4.050 -0.4098  0.5483  0.9163
 8612TIP3    H147327   5.648   4.484   4.071 -0.2323  0.1029  1.2593
 8612TIP3    H247328   5.790   4.459   4.116  0.0934  0.2691  0.3466
 8613TIP3   OH247329   5.749   6.349   6.364  0.3916  0.1792 -0.1129
 8613TIP3    H147330   5.827   6.299   6.388 -0.4187 -0.9829  0.1164
 8613TIP3    H247331   5.678   6.285   6.364 -0.5303  1.1828 -0.5487
 8614TIP3   OH247332   4.740   6.375   0.744 -0.5150 -0.4676 -0.0768
 8614TIP3    H147333   4.771   6.312   0.679  1.0177 -0.7356  0.9074
 8614TIP3    H247334   4.678   6.325   0.798  0.5243 -1.0665  0.5627
 8615TIP3   OH247335   1.715   5.136   5.663 -0.1218 -0.3419 -0.1431
 8615TIP3    H147336   1.669   5.202   5.611  0.1021 -1.0765 -1.2815
 8615TIP3    H247337   1.663   5.057   5.653 -0.5199 -0.2915  1.4140
 8616TIP3   OH247338   5.756   4.802  14.708 -0.4445  0.4431 -0.0706
 8616TIP3    H147339   5.709   4.885  14.697 -1.1049  0.3293  1.6648
 8616TIP3    H247340   5.745   4.756  14.625  0.0515  2.1591 -1.1052
 8617TIP3   OH247341   6.493   2.671   4.584 -0.0535 -0.0271  0.0124
 8617TIP3    H147342   6.519   2.735   4.649  1.1178  0.5698 -1.0256
 8617TIP3    H247343   6.438   2.609   4.632  0.5603  0.5533  1.4941
 8618TIP3   OH247344   0.058   5.010   3.487 -0.4793  0.2629 -0.4705
 8618TIP3    H147345   0.057   4.937   3.425 -0.2568 -0.0144 -0.1539
 8618TIP3    H247346   0.082   4.969   3.571  1.1954  0.9253 -0.6016
 8619TIP3   OH247347   3.689   4.988  15.134  0.6328 -0.1572 -0.3341
 8619TIP3    H147348   3.781   4.985  15.108  1.2063 -2.0752  1.7683
 8619TIP3    H247349   3.641   4.960  15.055  1.8848 -0.0065 -1.1627
 8620TIP3   OH247350   0.439   6.478  10.771 -0.1281  0.1348 -0.6641
 8620TIP3    H147351   0.490   6.400  10.795 -0.7942  0.1000  0.7183
 8620TIP3    H247352   0.452   6.487  10.677  0.1057 -1.5462 -0.8201
 8621TIP3   OH247353   4.700   2.749   5.876  0.6670  0.2217 -0.1726
 8621TIP3    H147354   4.782   2.700   5.881  0.6127  0.1429 -0.0643
 8621TIP3    H247355   4.650   2.705   5.807 -0.4441 -1.4545  1.6563
 8622TIP3   OH247356   3.549   3.895  15.849  0.2369 -0.0060 -0.5231
 8622TIP3    H147357   3.570   3.863  15.937  0.6502 -0.1770 -0.6841
 8622TIP3    H247358   3.455   3.913  15.852  0.2085 -0.2135 -0.1096
 8623TIP3   OH247359   2.937   2.947  10.587  0.9389  0.3132 -0.1399
 8623TIP3    H147360   3.016   2.902  10.560  0.3746  0.5579 -2.2536
 8623TIP3    H247361   2.920   3.011  10.518 -2.0282 -0.8537 -0.5731
 8624TIP3   OH247362   5.420   6.134  14.086 -0.3177  0.0402 -0.1598
 8624TIP3    H147363   5.380   6.122  14.000 -1.0074 -0.7185  0.2671
 8624TIP3    H247364   5.512   6.110  14.073 -0.4151 -0.0475 -0.6886
 8625TIP3   OH247365   4.950   3.391   4.683  0.3701  0.4227  0.1833
 8625TIP3    H147366   4.880   3.328   4.700  0.4183 -0.0312 -1.2715
 8625TIP3    H247367   4.933   3.463   4.744  0.9114 -1.4392  2.6071
 8626TIP3   OH247368   2.192   0.173   0.028 -0.2893 -0.4919 -0.3581
 8626TIP3    H147369   2.233   0.088   0.012 -0.0143 -0.2467 -0.9882
 8626TIP3    H247370   2.239   0.210   0.102 -0.4279 -0.8984 -0.0658
 8627TIP3   OH247371   0.313   2.837   2.703  0.5257  0.0307  0.8150
 8627TIP3    H147372   0.270   2.893   2.768  3.0921  1.5267  1.2670
 8627TIP3    H247373   0.370   2.780   2.754 -1.9351 -3.0175  0.3515
 8628TIP3   OH247374   6.559   5.013  13.375 -0.7000 -0.3352 -0.1370
 8628TIP3    H147375   6.630   5.065  13.412 -0.7808 -0.2606 -0.0871
 8628TIP3    H247376   6.574   4.924  13.407 -0.4224 -0.3900 -0.4219
 8629TIP3   OH247377   3.686   3.169   0.549  0.1021  0.2255 -0.0321
 8629TIP3    H147378   3.774   3.153   0.584 -0.2655 -0.4556  0.6088
 8629TIP3    H247379   3.676   3.264   0.550  0.2045  0.2359  1.4870
 8630TIP3   OH247380   6.658   4.942   2.566 -0.8485  0.1114 -0.5828
 8630TIP3    H147381   6.720   4.869   2.559 -0.9133 -0.0709  0.7014
 8630TIP3    H247382   6.713   5.020   2.562 -0.3576 -0.0629  1.9946
 8631TIP3   OH247383   4.851   0.576  11.948  0.1929  0.7360 -0.1302
 8631TIP3    H147384   4.901   0.534  12.018 -0.7554 -0.6452 -0.2465
 8631TIP3    H247385   4.889   0.540  11.867  1.2628  2.2964 -0.3478
 8632TIP3   OH247386   2.237   0.612  15.563  0.1686  0.3142  0.0933
 8632TIP3    H147387   2.232   0.682  15.498 -0.8945 -0.8012 -1.0713
 8632TIP3    H247388   2.145   0.588  15.580  0.4971 -0.4536  0.8319
 8633TIP3   OH247389   4.051   1.685   3.238  0.3919  0.1876  0.4605
 8633TIP3    H147390   4.086   1.749   3.177 -0.7678 -0.0323 -0.4504
 8633TIP3    H247391   4.117   1.679   3.307  0.9970  1.5697  0.0156
 8634TIP3   OH247392   4.822   1.152   1.785  0.2488 -0.3084  0.3610
 8634TIP3    H147393   4.905   1.117   1.753  0.0404  1.0951 -1.7812
 8634TIP3    H247394   4.839   1.244   1.802 -1.3058  0.4174 -1.8054
 8635TIP3   OH247395   3.315   0.066  13.312  0.3846 -0.5707  0.2352
 8635TIP3    H147396   3.310   0.014  13.392 -0.4691 -0.4825  0.2389
 8635TIP3    H247397   3.229   0.108  13.305  0.2893 -0.9698 -0.9948
 8636TIP3   OH247398   4.451   3.233   3.200 -0.0432  0.2807 -1.1253
 8636TIP3    H147399   4.533   3.268   3.235 -0.9237  1.4192 -0.1385
 8636TIP3    H247400   4.464   3.233   3.105  0.7591  1.3249 -1.0305
 8637TIP3   OH247401   0.879   6.764  12.973  0.0852 -0.7415 -0.0184
 8637TIP3    H147402   0.846   6.728  12.891  0.6123 -1.1396 -0.0618
 8637TIP3    H247403   0.973   6.749  12.970  0.2641  0.3392  0.1312
 8638TIP3   OH247404   0.088   5.074   1.103  0.3057  0.0824  0.6651
 8638TIP3    H147405   0.017   5.010   1.095 -0.5597  0.6695  3.2447
 8638TIP3    H247406   0.167   5.021   1.116  0.2097 -0.5319 -1.0696
 8639TIP3   OH247407   4.040   0.462   3.185 -0.1838  0.0421 -0.1466
 8639TIP3    H147408   4.115   0.416   3.148  0.6233 -0.1791  1.7092
 8639TIP3    H247409   3.991   0.394   3.231 -1.4039  0.2337 -1.1424
 8640TIP3   OH247410   4.251   1.265  13.516  0.1077  0.0717  0.1102
 8640TIP3    H147411   4.227   1.337  13.457  0.1826  0.3211  0.3875
 8640TIP3    H247412   4.169   1.244  13.562 -0.3916 -1.3142 -1.3674
 8641TIP3   OH247413   5.028   3.123  16.881  0.4193  0.2700 -0.0860
 8641TIP3    H147414   4.965   3.099  16.949 -1.4345 -0.3468 -1.9593
 8641TIP3    H247415   5.059   3.039  16.847  0.6134  0.5688 -0.6566
 8642TIP3   OH247416   4.020   6.176   3.375  0.1674  0.2966 -0.2118
 8642TIP3    H147417   3.987   6.088   3.391 -2.7938  1.2812 -0.7051
 8642TIP3    H247418   4.070   6.169   3.294  1.0276 -1.1452  0.4107
 8643TIP3   OH247419   4.399   5.646  16.678 -0.2220  0.5500  0.1801
 8643TIP3    H147420   4.379   5.711  16.746 -1.5977 -0.1277  0.4530
 8643TIP3    H247421   4.325   5.586  16.681  0.7518 -0.7015 -0.4756
 8644TIP3   OH247422   1.804   1.956  11.044 -0.0305  0.7753 -0.2015
 8644TIP3    H147423   1.806   1.868  11.008 -1.1886  0.6886 -0.0663
 8644TIP3    H247424   1.786   2.012  10.968  0.0705  0.8412 -0.1771
 8645TIP3   OH247425   1.194   0.110  10.772 -0.2674 -0.0421  0.0644
 8645TIP3    H147426   1.106   0.109  10.733 -0.5616  0.9141  0.6670
 8645TIP3    H247427   1.252   0.086  10.700 -0.9985 -0.4656 -0.4024
 8646TIP3   OH247428   3.271   5.224   5.703  0.0317  0.0317  0.4983
 8646TIP3    H147429   3.186   5.189   5.675 -0.4575  0.0443  1.9648
 8646TIP3    H247430   3.330   5.149   5.698 -0.1543 -0.0813 -0.1030
 8647TIP3   OH247431   3.922   3.024   0.747 -0.0731 -0.2425 -0.2587
 8647TIP3    H147432   3.900   3.049   0.837 -0.6819  0.2807 -0.5487
 8647TIP3    H247433   3.858   2.957   0.724 -0.2577  0.0039 -0.4794
 8648TIP3   OH247434   3.848   4.120  14.179  0.8402  0.0043 -0.2563
 8648TIP3    H147435   3.815   4.158  14.098 -2.5823 -1.2295  0.4428
 8648TIP3    H247436   3.813   4.031  14.180  1.1858 -0.1617  2.3313
 8649TIP3   OH247437   1.830   1.687   2.111  0.2366 -0.0471 -0.4395
 8649TIP3    H147438   1.745   1.664   2.150  0.2330  0.7542  0.0341
 8649TIP3    H247439   1.818   1.669   2.018 -0.5944  0.4413 -0.4388
 8650TIP3   OH247440   0.772   4.336   2.604  0.5084 -0.0556  0.0585
 8650TIP3    H147441   0.800   4.420   2.569  0.1620  1.0309  2.3280
 8650TIP3    H247442   0.794   4.339   2.697  0.7521 -2.5906  0.1417
 8651TIP3   OH247443   5.223   6.375  11.307 -0.4044  0.0956 -0.6538
 8651TIP3    H147444   5.270   6.455  11.332 -1.4610  0.3790  0.4646
 8651TIP3    H247445   5.285   6.304  11.327 -0.0020  0.5386 -0.3001
 8652TIP3   OH247446   0.756   3.709  13.017  0.1274  0.3016 -0.0722
 8652TIP3    H147447   0.790   3.630  13.058  0.2825  1.3464  1.8613
 8652TIP3    H247448   0.669   3.720  13.054 -0.4423  0.3087 -1.3651
 8653TIP3   OH247449   0.935   0.408  13.204  0.6511  0.6597 -0.0253
 8653TIP3    H147450   0.908   0.328  13.160  1.4065  0.1861  0.3629
 8653TIP3    H247451   0.924   0.389  13.297  1.8133  0.6281  0.1224
 8654TIP3   OH247452   6.369   5.073   5.470  0.4211  0.1036  0.0225
 8654TIP3    H147453   6.409   5.129   5.536 -0.8578  1.9887 -0.7510
 8654TIP3    H247454   6.276   5.096   5.472  0.0204 -1.3352 -0.9578
 8655TIP3   OH247455   2.129   4.284   2.832 -0.2194 -0.3459 -0.6658
 8655TIP3    H147456   2.041   4.322   2.830 -0.3583 -0.7149 -1.3936
 8655TIP3    H247457   2.184   4.355   2.864 -0.8672 -0.2838  0.3599
 8656TIP3   OH247458   1.063   4.815  13.471  0.4282 -0.0197 -0.4005
 8656TIP3    H147459   1.006   4.809  13.548 -1.7221  0.5867 -1.8839
 8656TIP3    H247460   1.077   4.725  13.444  0.1201 -0.1797 -0.0266
 8657TIP3   OH247461   4.421   1.988  11.887  0.3947 -0.2878  0.3138
 8657TIP3    H147462   4.467   1.973  11.970  1.0968  0.4978  0.0753
 8657TIP3    H247463   4.378   1.904  11.868  0.1171 -0.4340  1.5318
 8658TIP3   OH247464   6.770   6.721   6.520  0.5136 -0.2314  0.1954
 8658TIP3    H147465   6.683   6.688   6.500 -0.4101  0.4360  2.8874
 8658TIP3    H247466   6.782   6.796   6.462  0.0270 -1.3991 -1.4275
 8659TIP3   OH247467   1.721   0.811   0.736 -0.2742 -0.0386  0.3676
 8659TIP3    H147468   1.778   0.848   0.669  0.0775 -1.3082 -0.0450
 8659TIP3    H247469   1.742   0.717   0.737 -2.3901 -0.5604  0.1413
 8660TIP3   OH247470   4.858   5.523   1.625  0.3085  0.0984 -0.6571
 8660TIP3    H147471   4.881   5.567   1.707 -0.5839  0.5961 -0.6742
 8660TIP3    H247472   4.937   5.528   1.572  0.9586 -0.3860  0.2387
 8661TIP3   OH247473   6.102   0.994  14.871 -0.4422  0.1081  0.1186
 8661TIP3    H147474   6.095   0.943  14.952 -1.4604 -0.9989 -0.6630
 8661TIP3    H247475   6.023   1.048  14.870  0.5205  1.5767  0.8282
 8662TIP3   OH247476   6.590   6.720   2.125 -0.5120 -0.0227  0.0185
 8662TIP3    H147477   6.685   6.733   2.125 -0.3375 -1.2381  0.3057
 8662TIP3    H247478   6.556   6.797   2.079  0.7273 -0.3592 -1.5287
 8663TIP3   OH247479   4.611   3.130   5.102 -0.1436  0.1591 -0.2851
 8663TIP3    H147480   4.523   3.166   5.116 -0.7491 -0.7056 -1.7763
 8663TIP3    H247481   4.644   3.114   5.191 -1.1858  1.2023  0.3077
 8664TIP3   OH247482   4.014   5.931  12.176 -0.6453 -0.3844  0.3385
 8664TIP3    H147483   4.035   6.021  12.151 -1.2442  0.5291  2.9533
 8664TIP3    H247484   3.925   5.935  12.211 -0.7470 -2.0213  0.3226
 8665TIP3   OH247485   5.920   1.041   1.560 -0.0505 -0.5733  0.1138
 8665TIP3    H147486   5.979   1.052   1.486  1.0706  0.4166  1.1415
 8665TIP3    H247487   5.853   1.109   1.548  0.0169 -0.5460 -0.0968
 8666TIP3   OH247488   6.359   1.435   1.327 -0.0746  0.3681 -0.7756
 8666TIP3    H147489   6.270   1.423   1.360  0.3346  0.6080  0.4410
 8666TIP3    H247490   6.406   1.478   1.399  1.6781 -2.0222 -0.4456
 8667TIP3   OH247491   4.378   6.611  13.477  0.3940 -0.1943 -0.1141
 8667TIP3    H147492   4.407   6.528  13.439 -0.2837  0.6104 -2.5116
 8667TIP3    H247493   4.432   6.677  13.433  0.8187  0.6606  1.6581
 8668TIP3   OH247494   5.185   5.143   4.432  0.1051 -0.5111 -0.7135
 8668TIP3    H147495   5.240   5.117   4.358  0.6055  0.6499 -0.7662
 8668TIP3    H247496   5.165   5.235   4.415 -1.5538 -0.8264 -0.4942
 8669TIP3   OH247497   2.452   2.950   1.746 -0.1001  0.7489  0.4014
 8669TIP3    H147498   2.450   2.856   1.764 -0.4946  0.5085 -0.8264
 8669TIP3    H247499   2.511   2.959   1.671  0.0032  1.4977  0.5647
 8670TIP3   OH247500   3.211   1.366   3.820  0.5415 -0.1401  0.1656
 8670TIP3    H147501   3.150   1.412   3.878 -0.0756 -0.4406 -0.2393
 8670TIP3    H247502   3.290   1.420   3.821 -0.4268  1.3775 -0.8849
 8671TIP3   OH247503   6.059   5.843  13.335  0.0397 -0.7271  0.6141
 8671TIP3    H147504   5.971   5.808  13.330  0.1008 -0.8996  0.7618
 8671TIP3    H247505   6.061   5.891  13.418 -0.6694  1.3231 -0.5019
 8672TIP3   OH247506   2.010   1.829  17.264 -0.2005 -0.1197  0.1461
 8672TIP3    H147507   2.085   1.827  17.324 -0.0485  0.5954 -0.0186
 8672TIP3    H247508   1.992   1.737  17.244 -2.0324 -0.5718  3.5099
 8673TIP3   OH247509   3.965   2.623  11.597  1.0199  0.0383 -0.1537
 8673TIP3    H147510   3.990   2.550  11.654  0.2093 -0.3058 -0.2335
 8673TIP3    H247511   3.869   2.625  11.601  0.9597 -0.0089 -1.5343
 8674TIP3   OH247512   0.593   2.645   1.534 -0.2295 -0.2888  0.3667
 8674TIP3    H147513   0.549   2.608   1.457 -1.2239  0.6497  0.4812
 8674TIP3    H247514   0.646   2.717   1.500 -1.0123  0.4072  0.6225
 8675TIP3   OH247515   1.482   4.860   4.764  0.1753 -0.3566 -0.0095
 8675TIP3    H147516   1.391   4.853   4.793 -0.4408  2.2735 -1.1761
 8675TIP3    H247517   1.490   4.793   4.696 -1.3952  0.5261 -1.0972
 8676TIP3   OH247518   3.395   2.645  12.181  0.1838 -0.3058  0.2826
 8676TIP3    H147519   3.424   2.688  12.101  0.3632  0.4842  0.7657
 8676TIP3    H247520   3.330   2.704  12.219 -0.1208 -0.8170  0.5654
 8677TIP3   OH247521   0.490   1.844   4.115  0.6648  0.8896 -0.1222
 8677TIP3    H147522   0.581   1.817   4.110  0.8213  1.0008  1.6298
 8677TIP3    H247523   0.485   1.895   4.196 -1.3892 -0.8789  0.9133
 8678TIP3   OH247524   4.740   4.850   3.757  1.3652 -0.5344  0.3092
 8678TIP3    H147525   4.661   4.841   3.810  0.9182 -0.1809 -0.2900
 8678TIP3    H247526   4.798   4.906   3.809 -0.2643  2.3812 -0.8829
 8679TIP3   OH247527   2.270   2.118  15.465 -0.4265  0.0485 -0.0822
 8679TIP3    H147528   2.195   2.102  15.522 -1.0183  1.7667 -0.3521
 8679TIP3    H247529   2.238   2.181  15.401  1.4585  1.3974  0.2594
 8680TIP3   OH247530   0.408   5.627   3.220 -0.0298  0.5066 -0.6565
 8680TIP3    H147531   0.443   5.613   3.308 -0.5101  0.0111 -0.5390
 8680TIP3    H247532   0.483   5.615   3.162  0.3624  1.1755 -0.2940
 8681TIP3   OH247533   5.851   3.547  15.710 -0.0292  0.1918  0.4124
 8681TIP3    H147534   5.890   3.597  15.781  1.0506  0.9885 -0.7190
 8681TIP3    H247535   5.901   3.571  15.633 -1.2198 -0.6150 -0.6466
 8682TIP3   OH247536   1.887   2.397   5.455  0.5486  0.2535  0.3141
 8682TIP3    H147537   1.922   2.320   5.500 -0.0348 -1.1147 -1.4919
 8682TIP3    H247538   1.956   2.463   5.464  0.7670 -0.2239  2.4805
 8683TIP3   OH247539   0.981   5.390  12.042 -0.1232 -0.2221 -0.3146
 8683TIP3    H147540   1.072   5.413  12.020 -0.5292  1.4698 -0.2269
 8683TIP3    H247541   0.981   5.294  12.041  1.2711 -0.2363 -1.9602
 8684TIP3   OH247542   0.273   1.641  11.750 -0.0762  0.2432  0.1513
 8684TIP3    H147543   0.194   1.694  11.741  0.2428  0.5848 -0.7024
 8684TIP3    H247544   0.274   1.585  11.672 -0.4178 -1.0399  1.0473
 8685TIP3   OH247545   3.738   4.662   4.019  0.2512 -0.3589 -0.0855
 8685TIP3    H147546   3.730   4.730   4.087  0.1288 -1.1305  0.6787
 8685TIP3    H247547   3.831   4.641   4.017  0.5604  1.0819 -1.5635
 8686TIP3   OH247548   0.328   6.741  16.325 -0.3278  0.4368  0.5618
 8686TIP3    H147549   0.363   6.814  16.274  0.7009 -0.2609  0.2341
 8686TIP3    H247550   0.354   6.760  16.415  0.2856  0.2811  0.4206
 8687TIP3   OH247551   2.264   1.694   1.439 -0.4002 -0.3522 -0.4151
 8687TIP3    H147552   2.328   1.763   1.422 -0.3970 -0.5125 -1.0772
 8687TIP3    H247553   2.277   1.671   1.531  2.4133 -2.3231 -1.2288
 8688TIP3   OH247554   3.701   5.554   4.900 -0.1735 -0.3051 -0.3680
 8688TIP3    H147555   3.704   5.459   4.884  1.9238 -0.8541  2.7466
 8688TIP3    H247556   3.788   5.585   4.875  0.2529  0.2169  1.7118
 8689TIP3   OH247557   5.885   5.523  17.082  0.0507  0.1136  0.0177
 8689TIP3    H147558   5.939   5.555  17.010  2.6588 -0.2442  1.7287
 8689TIP3    H247559   5.820   5.592  17.097  0.4695  0.8871 -1.6135
 8690TIP3   OH247560   6.695   4.212  15.797  0.0705 -0.2935 -0.2157
 8690TIP3    H147561   6.782   4.213  15.758  0.7013 -0.2084  1.1466
 8690TIP3    H247562   6.693   4.290  15.853 -1.0801 -0.0011 -0.6402
 8691TIP3   OH247563   2.932   6.134  13.180 -0.3170 -0.2233  0.0648
 8691TIP3    H147564   2.882   6.203  13.136 -1.8947 -0.1014  1.9835
 8691TIP3    H247565   2.865   6.076  13.215  0.9956 -2.6093 -1.2824
 8692TIP3   OH247566   1.134   2.892   0.717 -0.6309 -0.1414 -0.2466
 8692TIP3    H147567   1.154   2.855   0.803  0.3825  0.0884 -0.3806
 8692TIP3    H247568   1.138   2.987   0.730 -0.9539 -0.1003 -0.4396
 8693TIP3   OH247569   0.503   4.344   2.962  0.0333  0.1749 -0.0237
 8693TIP3    H147570   0.472   4.409   3.026  0.5271  0.7051 -0.3100
 8693TIP3    H247571   0.562   4.394   2.905  0.4280 -0.5343 -0.2397
 8694TIP3   OH247572   6.167   6.368   3.355  0.0656 -0.0582  0.0889
 8694TIP3    H147573   6.094   6.413   3.314  0.2450 -0.3370 -0.5358
 8694TIP3    H247574   6.126   6.311   3.421 -0.3463 -0.9306 -0.9185
 8695TIP3   OH247575   5.642   4.672   1.682 -1.1405  0.0169  0.2302
 8695TIP3    H147576   5.557   4.641   1.711 -0.8779  0.6040  1.6925
 8695TIP3    H247577   5.634   4.768   1.682 -0.6498  0.0632 -0.1537
 8696TIP3   OH247578   3.779   1.533  13.579 -0.0195 -0.3632  0.3576
 8696TIP3    H147579   3.789   1.534  13.674  0.2922  0.7718  0.3223
 8696TIP3    H247580   3.738   1.448  13.560  0.3007 -0.7779  1.4576
 8697TIP3   OH247581   2.695   3.650  12.994  0.3802  0.7195  0.4803
 8697TIP3    H147582   2.714   3.640  12.901 -0.8804  0.5916  0.2185
 8697TIP3    H247583   2.673   3.561  13.024  0.0454  0.8800  0.7199
 8698TIP3   OH247584   2.388   3.952   3.599  0.7927 -0.1367 -0.3440
 8698TIP3    H147585   2.397   4.044   3.574  1.2365  0.3490  1.4975
 8698TIP3    H247586   2.323   3.953   3.669  0.3559 -1.3025 -0.7369
 8699TIP3   OH247587   6.414   3.846  16.405  0.5944 -0.1043 -0.1688
 8699TIP3    H147588   6.352   3.834  16.477  1.5716  0.4299  0.7683
 8699TIP3    H247589   6.444   3.757  16.385  0.2461 -0.2660  0.0115
 8700TIP3   OH247590   0.179   2.881   1.599  0.0015 -0.1913  0.6765
 8700TIP3    H147591   0.259   2.913   1.558  0.3296  0.6048  1.9490
 8700TIP3    H247592   0.182   2.786   1.586 -0.5165  0.1506 -2.2571
 8701TIP3   OH247593   4.960   3.597  14.532 -0.4973 -0.3092  0.0661
 8701TIP3    H147594   5.054   3.607  14.514 -0.8370  1.4338 -0.8512
 8701TIP3    H247595   4.920   3.583  14.447 -1.1607 -0.3119  0.3720
 8702TIP3   OH247596   3.578   6.354  13.150  0.1302 -0.2982 -0.1712
 8702TIP3    H147597   3.580   6.380  13.058 -0.1587 -3.3215 -1.0850
 8702TIP3    H247598   3.530   6.425  13.194 -0.3669  0.8316 -2.4387
 8703TIP3   OH247599   2.509   5.297  12.696 -0.6535  0.1866  0.6608
 8703TIP3    H147600   2.474   5.383  12.718 -1.0970  0.2778 -0.3533
 8703TIP3    H247601   2.462   5.237  12.753 -0.0195  0.6587  1.6845
 8704TIP3   OH247602   4.173   6.067  12.461  0.9631  0.1495  0.4126
 8704TIP3    H147603   4.111   6.092  12.531 -0.2168  0.8050 -0.8377
 8704TIP3    H247604   4.211   5.985  12.491  0.1761  0.2254  1.6601
 8705TIP3   OH247605   5.283   6.392   0.239 -0.5253  0.1414  0.7046
 8705TIP3    H147606   5.336   6.371   0.317 -1.7756 -2.4974  0.9144
 8705TIP3    H247607   5.327   6.345   0.168 -0.5463  0.8919  0.1998
 8706TIP3   OH247608   4.154   0.161   3.283 -0.1025 -0.1866 -0.6081
 8706TIP3    H147609   4.175   0.232   3.223  2.2677 -0.7067 -0.4485
 8706TIP3    H247610   4.165   0.082   3.232  1.8021 -0.6275  0.4249
 8707TIP3   OH247611   3.441   4.765   4.734  0.1669  0.4549 -0.2102
 8707TIP3    H147612   3.503   4.813   4.790  0.7308  2.1411 -2.2019
 8707TIP3    H247613   3.362   4.819   4.734 -1.0061 -1.1942  1.5231
 8708TIP3   OH247614   0.929   4.680  16.509 -0.1702 -0.0371 -0.0776
 8708TIP3    H147615   0.892   4.734  16.579  0.8159  1.0815 -0.3983
 8708TIP3    H247616   0.970   4.743  16.450  0.7575 -1.1283 -0.6018
 8709TIP3   OH247617   3.663   0.570   0.063  0.3148  0.1041  0.4294
 8709TIP3    H147618   3.677   0.649   0.116  0.0949 -0.6022  1.5669
 8709TIP3    H247619   3.666   0.600  -0.027  1.5095  1.2136  0.8311
 8710TIP3   OH247620   6.702   4.349  13.565 -0.3221 -0.2978 -0.0301
 8710TIP3    H147621   6.615   4.377  13.538 -0.4561 -0.7136 -0.0348
 8710TIP3    H247622   6.687   4.282  13.632 -0.0608 -2.0354 -1.6467
 8711TIP3   OH247623   4.136   3.421  14.643 -0.1377  0.0560 -0.0890
 8711TIP3    H147624   4.061   3.363  14.658  0.5638 -0.7036  0.4869
 8711TIP3    H247625   4.175   3.390  14.562 -0.4210  0.4299 -0.3708
 8712TIP3   OH247626   3.550   4.633   0.764 -0.1704 -0.1594  0.1724
 8712TIP3    H147627   3.629   4.634   0.818  1.1012  0.0099 -1.6676
 8712TIP3    H247628   3.582   4.634   0.674 -2.2818  0.4524 -0.5985
 8713TIP3   OH247629   2.690   2.575   7.050  0.5266  0.1084  0.5422
 8713TIP3    H147630   2.619   2.527   7.092 -1.0838  1.2503 -0.7899
 8713TIP3    H247631   2.753   2.591   7.120  0.0101 -1.9307  1.4839
 8714TIP3   OH247632   0.028   6.548   0.048 -0.1255  0.6213  0.2366
 8714TIP3    H147633   0.027   6.623   0.107  2.5446  0.5704  0.4067
 8714TIP3    H247634   0.117   6.546   0.013 -0.0493 -2.6450  0.4706
 8715TIP3   OH247635   2.766   2.042  12.085  0.0298  0.2395  0.0866
 8715TIP3    H147636   2.862   2.044  12.080  0.1574 -0.2391  1.8820
 8715TIP3    H247637   2.744   2.113  12.145 -0.6139 -0.6892  0.9613
 8716TIP3   OH247638   1.905   6.186   1.200  0.0033  0.0773 -0.5452
 8716TIP3    H147639   1.977   6.183   1.263 -0.0883 -0.9650 -0.4797
 8716TIP3    H247640   1.922   6.113   1.140 -0.6783  0.1784 -0.8745
 8717TIP3   OH247641   5.558   5.099   5.672  0.5590  0.1765  0.0784
 8717TIP3    H147642   5.601   5.101   5.587  1.4437  0.7790  0.5308
 8717TIP3    H247643   5.508   5.181   5.675  0.0488 -0.1287 -0.1073
 8718TIP3   OH247644   2.068   6.607   5.192  0.0792  0.4346  0.2291
 8718TIP3    H147645   2.039   6.612   5.283  0.7652 -0.1316  0.4847
 8718TIP3    H247646   2.013   6.538   5.154 -0.0257  0.4858  0.2858
 8719TIP3   OH247647   5.005   2.209   0.774 -0.8469 -0.4929 -0.1306
 8719TIP3    H147648   5.009   2.257   0.858 -0.1010 -0.1261 -0.3662
 8719TIP3    H247649   4.940   2.256   0.723  0.5124  0.8322 -0.6869
 8720TIP3   OH247650   5.470   3.977  13.824  0.8164 -0.9940 -0.0100
 8720TIP3    H147651   5.434   3.888  13.822 -0.2485 -0.5863  0.2947
 8720TIP3    H247652   5.557   3.967  13.861  0.8030 -1.9468 -0.2198
 8721TIP3   OH247653   6.347   1.105   1.965  0.2375  0.0203 -0.1105
 8721TIP3    H147654   6.289   1.099   2.041 -0.4852 -2.0936 -0.8142
 8721TIP3    H247655   6.414   1.039   1.980  0.9714  0.6547 -0.5728
 8722TIP3   OH247656   1.585   5.433   1.170 -0.5229  0.3616 -0.5755
 8722TIP3    H147657   1.678   5.454   1.169 -0.3619 -0.2792  0.2110
 8722TIP3    H247658   1.548   5.488   1.238 -0.1743 -1.5357  1.1985
 8723TIP3   OH247659   5.952   5.826  13.056  0.1321  0.0808  0.9269
 8723TIP3    H147660   6.009   5.844  13.131  0.5312  1.2040  0.3581
 8723TIP3    H247661   5.875   5.881  13.071 -1.1784 -1.9936  2.0902
 8724TIP3   OH247662   6.415   1.927  12.900 -0.4072  0.6295 -0.0780
 8724TIP3    H147663   6.460   2.001  12.860  0.7236 -0.7133 -1.3548
 8724TIP3    H247664   6.468   1.906  12.977 -0.7428  1.1647  0.2970
 8725TIP3   OH247665   4.821   5.399   0.422  0.7862 -0.0335 -0.1098
 8725TIP3    H147666   4.761   5.439   0.359  0.0398 -1.9469 -0.6840
 8725TIP3    H247667   4.802   5.305   0.416  2.0949 -0.4363  1.5410
 8726TIP3   OH247668   5.866   3.707   4.925  0.0977 -0.4593 -0.8324
 8726TIP3    H147669   5.823   3.744   5.002  0.5659  2.0649 -1.7262
 8726TIP3    H247670   5.948   3.671   4.958  0.3727  0.7526 -0.1664
 8727TIP3   OH247671   0.182   0.492  11.825 -0.2614  0.3281  0.0555
 8727TIP3    H147672   0.263   0.463  11.865 -0.6933  1.5821  1.9179
 8727TIP3    H247673   0.208   0.526  11.740  1.0237 -0.1712  0.2399
 8728TIP3   OH247674   3.285   6.674   6.294 -0.0202 -0.3124 -0.1106
 8728TIP3    H147675   3.370   6.711   6.272 -0.0200  0.7322  1.5580
 8728TIP3    H247676   3.292   6.582   6.269  1.1286  0.0568 -1.2220
 8729TIP3   OH247677   1.503   0.435  10.918 -0.4756 -0.2802 -0.0988
 8729TIP3    H147678   1.456   0.403  10.841 -2.1312  2.7380 -0.4216
 8729TIP3    H247679   1.435   0.453  10.982  0.8388 -2.1168  1.8461
 8730TIP3   OH247680   0.697   2.781   3.608 -0.1924 -0.5470  0.2480
 8730TIP3    H147681   0.715   2.853   3.549 -1.0765  0.3327  1.0374
 8730TIP3    H247682   0.666   2.822   3.689 -0.3914 -1.7825  0.8254
 8731TIP3   OH247683   3.425   6.728  15.818 -0.1430  0.0253  0.0927
 8731TIP3    H147684   3.349   6.737  15.876 -1.3611 -1.3770 -1.2274
 8731TIP3    H247685   3.497   6.770  15.866 -1.8375  1.8033  1.1695
 8732TIP3   OH247686   2.723   5.779   0.428  0.5526  0.0993  0.6036
 8732TIP3    H147687   2.715   5.875   0.423  0.1522  0.1677  2.1136
 8732TIP3    H247688   2.711   5.749   0.338 -1.0143  1.3664  0.3596
 8733TIP3   OH247689   4.599   5.707  14.035 -0.1391  0.5093  0.1279
 8733TIP3    H147690   4.533   5.768  14.000  1.4034  1.1402 -1.7664
 8733TIP3    H247691   4.598   5.634  13.973 -0.3081 -0.3267  1.1009
 8734TIP3   OH247692   5.057   6.402  15.680  0.2155  0.2077  0.5262
 8734TIP3    H147693   5.121   6.438  15.619  1.2658  2.2716  2.7514
 8734TIP3    H247694   4.991   6.471  15.690 -1.4845 -1.2332 -0.4257
 8735TIP3   OH247695   1.458   2.945   6.016 -0.2908 -0.0142  0.1142
 8735TIP3    H147696   1.439   3.038   6.004  3.7220  0.7216 -1.3882
 8735TIP3    H247697   1.510   2.941   6.096 -0.7879 -0.9956  0.3870
 8736TIP3   OH247698   1.900   3.999  16.916 -0.2671 -0.2480 -0.3873
 8736TIP3    H147699   1.942   4.048  16.846  1.3318 -0.6392  0.2641
 8736TIP3    H247700   1.970   3.983  16.979 -1.3583 -1.1262  0.6279
 8737TIP3   OH247701   4.832   3.573   3.572 -0.2894  0.7068 -0.0545
 8737TIP3    H147702   4.802   3.524   3.649 -1.1606  1.0953 -0.1414
 8737TIP3    H247703   4.843   3.663   3.602 -0.4957  0.8322 -0.3460
 8738TIP3   OH247704   4.433   0.058  12.527 -0.0492 -0.0359  0.4637
 8738TIP3    H147705   4.345   0.087  12.505 -0.2090 -0.5407  0.4406
 8738TIP3    H247706   4.421  -0.012  12.591  0.3093 -0.4939  0.0331
 8739TIP3   OH247707   6.064   1.050  15.839 -0.0477  0.3149 -0.0102
 8739TIP3    H147708   6.047   0.956  15.850  2.1793 -0.0970  0.0920
 8739TIP3    H247709   6.158   1.060  15.855 -0.5292  2.8312  1.6688
 8740TIP3   OH247710   1.834   5.566   4.248  0.1281 -0.0478  0.1139
 8740TIP3    H147711   1.889   5.526   4.315  2.0103  0.3547 -1.1485
 8740TIP3    H247712   1.866   5.529   4.165 -1.6574  0.0316 -0.6390
 8741TIP3   OH247713   2.258   4.662   2.308 -0.6232 -0.2726 -1.1269
 8741TIP3    H147714   2.256   4.617   2.393 -0.3225  1.2124 -0.3085
 8741TIP3    H247715   2.176   4.711   2.305 -0.3788  0.1215 -1.4336
 8742TIP3   OH247716   1.666   2.496   2.514  0.3207 -0.5421 -0.2831
 8742TIP3    H147717   1.587   2.443   2.529 -0.9389  1.5006  0.4380
 8742TIP3    H247718   1.726   2.468   2.583  0.3527 -2.2846 -0.9771
 8743TIP3   OH247719   5.469   0.482   0.611 -0.4922  0.5015  0.0822
 8743TIP3    H147720   5.445   0.408   0.666 -1.1331  0.3197 -0.4444
 8743TIP3    H247721   5.394   0.541   0.614  0.3586  1.5668  1.2220
 8744TIP3   OH247722   5.686   5.022   1.039  0.0258  0.0638 -0.6534
 8744TIP3    H147723   5.770   5.061   1.017  0.1198  1.3457  1.8517
 8744TIP3    H247724   5.622   5.093   1.028 -0.6508 -0.7086 -1.8467
 8745TIP3   OH247725   4.187   2.685   3.704 -0.1682 -0.1160 -0.1927
 8745TIP3    H147726   4.178   2.636   3.786 -0.4598 -1.1732 -0.8507
 8745TIP3    H247727   4.278   2.714   3.704 -0.0366 -0.5136  0.2814
 8746TIP3   OH247728   6.007   0.531   2.380  0.0713 -0.5411  0.0971
 8746TIP3    H147729   6.010   0.601   2.315 -0.9857  1.1060  1.7504
 8746TIP3    H247730   6.051   0.569   2.457 -0.1310 -1.8584  0.8672
 8747TIP3   OH247731   5.939   2.897  10.288  0.2322  0.1178  0.1723
 8747TIP3    H147732   5.909   2.832  10.352  0.7463 -0.6290 -0.3290
 8747TIP3    H247733   5.987   2.962  10.340 -2.6226  1.5956  1.0605
 8748TIP3   OH247734   0.263   5.010   0.203  0.2243  0.2356 -0.1519
 8748TIP3    H147735   0.241   5.103   0.199  0.0550  0.2724  1.3756
 8748TIP3    H247736   0.259   4.988   0.296 -0.6187 -1.5121 -0.5688
 8749TIP3   OH247737   6.108   6.341   2.589  0.0934 -0.1768 -0.8524
 8749TIP3    H147738   6.118   6.248   2.610  0.6231  0.0069 -0.2767
 8749TIP3    H247739   6.196   6.377   2.599  0.0512  0.2340 -1.8515
 8750TIP3   OH247740   0.234   0.053   2.928 -0.2496  0.4707 -0.2218
 8750TIP3    H147741   0.188   0.042   3.011  2.2429 -3.6562  0.7315
 8750TIP3    H247742   0.326   0.063   2.953  0.8275 -2.9211 -2.4676
 8751TIP3   OH247743   4.909   3.329   5.527 -0.1349 -0.1084 -0.4560
 8751TIP3    H147744   4.849   3.395   5.491  1.3652  1.5524  0.0410
 8751TIP3    H247745   4.996   3.360   5.504  0.6345 -1.4512  0.5873
 8752TIP3   OH247746   2.351   3.302   4.742 -0.0215 -0.5826  0.0995
 8752TIP3    H147747   2.324   3.393   4.735  3.2011  0.5048  0.5180
 8752TIP3    H247748   2.367   3.274   4.652  0.0697 -0.3729  0.0502
 8753TIP3   OH247749   1.196   1.299  13.858  0.2787  0.5158  0.1659
 8753TIP3    H147750   1.171   1.304  13.950  0.9294  3.2454  0.2409
 8753TIP3    H247751   1.246   1.217  13.851  1.0222  0.7397  2.4499
 8754TIP3   OH247752   1.018   6.757   3.635 -0.1397  0.0948  0.9738
 8754TIP3    H147753   0.980   6.746   3.548 -0.8005  1.2055  1.1060
 8754TIP3    H247754   1.042   6.669   3.663  0.1545 -0.2546 -0.3656
 8755TIP3   OH247755   5.318   3.062  14.322  0.5902 -0.0146 -0.0773
 8755TIP3    H147756   5.377   2.986  14.322  0.6802  0.0551  0.3373
 8755TIP3    H247757   5.252   3.040  14.256  2.1491  0.7504 -1.9361
 8756TIP3   OH247758   5.945   2.431  13.344  0.2560 -0.0010 -0.0838
 8756TIP3    H147759   5.858   2.458  13.316  0.7384  1.5803 -0.1281
 8756TIP3    H247760   5.988   2.401  13.264 -1.3348 -3.9966  0.4698
 8757TIP3   OH247761   2.537   6.817   3.068 -0.4403  0.4771 -0.3418
 8757TIP3    H147762   2.578   6.731   3.071  0.3962  0.8612 -0.6902
 8757TIP3    H247763   2.610   6.879   3.068 -1.0032  1.1584 -1.1469
 8758TIP3   OH247764   2.640   2.118  11.864  0.1859  0.3345  0.5127
 8758TIP3    H147765   2.554   2.083  11.841 -0.7438  1.0117  2.8598
 8758TIP3    H247766   2.665   2.072  11.944  1.1565  1.4943  0.8913
 8759TIP3   OH247767   4.232   0.446  11.760 -0.3213  0.3183 -0.0816
 8759TIP3    H147768   4.322   0.455  11.728 -0.9113  1.4194 -1.4949
 8759TIP3    H247769   4.214   0.353  11.754 -0.0522  0.3574 -2.0739
 8760TIP3   OH247770   5.147   3.222   5.972 -0.7001 -0.0903  0.2014
 8760TIP3    H147771   5.161   3.289   5.905 -0.8007  1.5811  1.8122
 8760TIP3    H247772   5.053   3.203   5.966 -0.1584 -2.2166 -2.1886
 8761TIP3   OH247773   1.461   6.237   2.804  0.3025  0.3607  0.2560
 8761TIP3    H147774   1.421   6.164   2.757  0.1499  0.3952  0.3327
 8761TIP3    H247775   1.496   6.293   2.734  0.2505  0.3122  0.1904
 8762TIP3   OH247776   5.432   4.672   0.847 -0.0228 -0.2033 -1.0116
 8762TIP3    H147777   5.464   4.615   0.777 -1.2317 -1.6299 -0.4373
 8762TIP3    H247778   5.468   4.758   0.827  0.1650 -0.7403 -3.0218
 8763TIP3   OH247779   6.740   1.939  16.114 -0.6315  0.0696 -0.0595
 8763TIP3    H147780   6.646   1.947  16.094 -0.6640 -1.2670 -0.4502
 8763TIP3    H247781   6.767   1.858  16.072  0.7809  0.5980 -0.1969
 8764TIP3   OH247782   4.868   2.426   4.986  0.1780  0.3209  0.6611
 8764TIP3    H147783   4.895   2.340   5.020  0.5124 -0.0649 -0.5591
 8764TIP3    H247784   4.947   2.460   4.943 -0.0286  1.1309  0.9202
 8765TIP3   OH247785   5.828   5.066   6.434  0.2509  0.4270  0.0431
 8765TIP3    H147786   5.769   5.024   6.497  1.1475 -0.1500  0.5074
 8765TIP3    H247787   5.793   5.040   6.348 -1.8657  2.4412  0.2564
 8766TIP3   OH247788   0.985   0.968  16.916 -0.5524 -0.4669 -0.3210
 8766TIP3    H147789   1.037   1.040  16.951  0.7942 -1.7927  0.4662
 8766TIP3    H247790   1.034   0.889  16.941 -2.2363 -1.6708 -0.7594
 8767TIP3   OH247791   3.181   4.220  17.005  0.5107  0.3619 -0.0714
 8767TIP3    H147792   3.273   4.245  17.007  0.5177  0.2690  0.9714
 8767TIP3    H247793   3.172   4.165  16.927  1.5247 -0.3661  0.3197
 8768TIP3   OH247794   2.603   6.518  13.632 -0.4141  0.2154 -0.4719
 8768TIP3    H147795   2.566   6.508  13.545  0.1496  0.2985 -0.7246
 8768TIP3    H247796   2.528   6.541  13.688 -0.6199  1.1481 -1.1136
 8769TIP3   OH247797   4.059   6.071   1.556  0.0157 -0.2926  0.5995
 8769TIP3    H147798   4.132   6.015   1.582  0.3317 -0.4123 -0.5158
 8769TIP3    H247799   4.062   6.071   1.461  1.3919  3.3981  0.5441
 8770TIP3   OH247800   3.124   0.062  15.057  0.1625  0.3156 -0.5414
 8770TIP3    H147801   3.188   0.049  14.988  0.0983  2.0516 -0.9402
 8770TIP3    H247802   3.061   0.124  15.021  0.6289  1.9546  1.3817
 8771TIP3   OH247803   0.815   0.821  16.337 -0.1885 -0.8007 -0.2072
 8771TIP3    H147804   0.884   0.813  16.402 -1.0260  0.9251  0.9113
 8771TIP3    H247805   0.734   0.815  16.387 -0.8369  1.0311 -0.9983
 8772TIP3   OH247806   2.091   1.137  14.286 -0.2443 -0.1721 -0.2307
 8772TIP3    H147807   2.040   1.113  14.363 -0.3355 -0.2155 -0.3044
 8772TIP3    H247808   2.126   1.054  14.253  0.5423 -0.0540  0.2912
 8773TIP3   OH247809   4.440   2.179  14.920  0.3547  0.2921  0.1842
 8773TIP3    H147810   4.354   2.207  14.950  0.5821  0.9456  0.2333
 8773TIP3    H247811   4.487   2.260  14.903  1.4738 -0.0320  1.6141
 8774TIP3   OH247812   2.081   2.684  13.601 -0.1433  0.2399  0.5135
 8774TIP3    H147813   2.118   2.744  13.536 -1.5709 -0.3325 -0.8426
 8774TIP3    H247814   2.005   2.731  13.637  1.3189  1.0471  2.6494
 8775TIP3   OH247815   3.275   4.111   0.801  0.2222  0.0542  0.0623
 8775TIP3    H147816   3.248   4.166   0.874 -0.6141  1.6812 -1.4214
 8775TIP3    H247817   3.359   4.148   0.773  2.1565 -2.5419  2.1587
 8776TIP3   OH247818   1.274   2.373  12.465  0.2932  0.0422  0.1741
 8776TIP3    H147819   1.288   2.281  12.488 -1.9674 -0.6067 -0.8711
 8776TIP3    H247820   1.264   2.418  12.549  1.7505 -0.5801  0.7004
 8777TIP3   OH247821   0.521   2.215  13.732 -0.2852 -0.2996 -0.0842
 8777TIP3    H147822   0.570   2.189  13.654 -1.5551 -1.3004 -0.5580
 8777TIP3    H247823   0.539   2.146  13.796 -1.4761 -0.9192 -0.4237
 8778TIP3   OH247824   6.189   4.784   0.840  0.1335  0.2682  0.0427
 8778TIP3    H147825   6.170   4.858   0.783  0.3293 -0.5055 -1.0340
 8778TIP3    H247826   6.229   4.824   0.918 -1.6272  1.4672  0.3602
 8779TIP3   OH247827   1.308   4.068  14.248  0.1065  0.2288  0.2129
 8779TIP3    H147828   1.362   4.017  14.187  1.5452  1.6922  0.2162
 8779TIP3    H247829   1.321   4.026  14.333 -0.5091 -0.7517 -0.1727
 8780TIP3   OH247830   5.570   5.230  12.870  0.5850  0.1469 -0.0285
 8780TIP3    H147831   5.636   5.253  12.804  0.7555  1.3434  0.5527
 8780TIP3    H247832   5.605   5.151  12.912  1.2660  0.3219 -0.2558
 8781TIP3   OH247833   5.506   5.045  16.695 -0.0707 -0.3642 -0.2017
 8781TIP3    H147834   5.415   5.054  16.666 -0.2362  0.9182  0.6952
 8781TIP3    H247835   5.503   4.982  16.766 -0.2914 -0.1915 -0.0572
 8782TIP3   OH247836   6.126   1.302   4.769  0.2781  0.1695  0.2515
 8782TIP3    H147837   6.082   1.219   4.750 -0.7931 -0.0147  3.2368
 8782TIP3    H247838   6.215   1.290   4.737  0.4859 -2.5967  1.7220
 8783TIP3   OH247839   1.990   3.414  13.459  0.3266  0.2578 -0.1921
 8783TIP3    H147840   1.964   3.498  13.497  0.4895  0.5376 -0.6919
 8783TIP3    H247841   1.950   3.348  13.516  0.4534  0.6725  0.3792
 8784TIP3   OH247842   5.432   6.633  13.421  0.1944  0.1809 -0.6038
 8784TIP3    H147843   5.524   6.618  13.440 -0.4033 -1.2737  1.3326
 8784TIP3    H247844   5.404   6.695  13.489 -0.4176  0.1017 -0.7802
 8785TIP3   OH247845   3.881   4.694  14.300 -0.0335 -0.1120  0.0208
 8785TIP3    H147846   3.869   4.681  14.394 -1.7965  0.8952 -0.0442
 8785TIP3    H247847   3.856   4.611  14.260 -0.3305 -0.1811  0.3596
 8786TIP3   OH247848   3.574   0.910  17.062  0.1326 -0.0141 -0.1774
 8786TIP3    H147849   3.603   0.858  17.138 -2.2764 -0.4230  0.5029
 8786TIP3    H247850   3.638   0.890  16.994  0.9541 -1.5436  1.0061
 8787TIP3   OH247851   3.572   5.020   6.263  0.2247  0.1012  0.2154
 8787TIP3    H147852   3.530   5.084   6.206  0.3617  0.8017  0.8798
 8787TIP3    H247853   3.546   5.047   6.352  1.6067  0.2101  0.5963
 8788TIP3   OH247854   0.268   5.854  17.226  0.4310 -0.2624 -0.0754
 8788TIP3    H147855   0.177   5.828  17.235  0.0794  0.3892 -1.4738
 8788TIP3    H247856   0.318   5.773  17.236 -0.2415 -0.5125  1.4001
 8789TIP3   OH247857   5.127   0.548  11.510 -0.5235 -0.1148  0.4792
 8789TIP3    H147858   5.151   0.640  11.507 -1.6676  0.2068  0.7586
 8789TIP3    H247859   5.198   0.502  11.465  0.4823  0.8093  1.1331
 8790TIP3   OH247860   4.474   4.351  16.364  0.7281 -0.7038 -0.4814
 8790TIP3    H147861   4.517   4.266  16.378  1.8496  0.0258  0.6397
 8790TIP3    H247862   4.537   4.415  16.396 -1.0484  0.4325  0.8217
 8791TIP3   OH247863   4.277   3.377   1.560  0.1714  0.0310  0.0848
 8791TIP3    H147864   4.192   3.412   1.588 -0.2591 -0.3454 -0.7560
 8791TIP3    H247865   4.290   3.414   1.473 -0.6108 -2.4409 -1.1273
 8792TIP3   OH247866   0.200   5.798  15.680  0.1088 -0.1865  0.4424
 8792TIP3    H147867   0.266   5.839  15.735  1.7579 -1.3126 -0.6280
 8792TIP3    H247868   0.217   5.831  15.592 -1.7331  0.6703  0.3681
 8793TIP3   OH247869   4.554   5.867  16.393 -0.1409  0.1903  0.3664
 8793TIP3    H147870   4.619   5.937  16.399 -1.8542  1.9943 -1.5836
 8793TIP3    H247871   4.565   5.831  16.305 -1.1754 -0.0840  0.3386
 8794TIP3   OH247872   3.454   6.700  11.150 -0.0874  0.1366 -0.0310
 8794TIP3    H147873   3.432   6.715  11.058  0.7352 -0.0189 -0.2611
 8794TIP3    H247874   3.431   6.608  11.165 -0.5378  0.2554  0.0128
 8795TIP3   OH247875   2.236   6.136  13.442  0.7879 -0.0054 -0.2621
 8795TIP3    H147876   2.198   6.199  13.504 -2.5509 -2.1973  0.1078
 8795TIP3    H247877   2.182   6.144  13.364  1.2659 -1.2973 -0.7469
 8796TIP3   OH247878   0.921   5.022   5.783  0.5407 -0.4229 -0.3945
 8796TIP3    H147879   0.890   5.008   5.873  0.4736 -0.5397 -0.4356
 8796TIP3    H247880   0.987   5.090   5.791  1.8381 -1.7151 -0.0200
 8797TIP3   OH247881   0.817   2.296  15.303  0.4445 -0.0483 -0.2854
 8797TIP3    H147882   0.905   2.263  15.322 -1.2052 -3.9279  1.1223
 8797TIP3    H247883   0.763   2.263  15.375 -2.5263  0.6124 -2.1425
 8798TIP3   OH247884   2.907   2.797   6.395  0.5654  0.4656 -0.8395
 8798TIP3    H147885   2.879   2.883   6.425 -0.7784 -0.4829  0.7462
 8798TIP3    H247886   2.916   2.745   6.476  0.5941 -1.0983 -1.8139
 8799TIP3   OH247887   5.054   6.210  15.479  0.0821  0.2156 -0.2020
 8799TIP3    H147888   5.137   6.166  15.460  0.2729  0.6135 -0.2976
 8799TIP3    H247889   5.076   6.276  15.545 -0.1545  0.3461 -0.2521
 8800TIP3   OH247890   0.996   2.511   4.118 -0.5814 -0.8291  0.2168
 8800TIP3    H147891   1.088   2.491   4.135 -0.4727 -1.5521 -1.1744
 8800TIP3    H247892   0.949   2.473   4.192  0.3670  0.8883  1.7427
 8801TIP3   OH247893   3.823   2.088  13.404  0.0337 -0.3448  0.0369
 8801TIP3    H147894   3.820   2.131  13.489  2.5490 -0.4302  0.2222
 8801TIP3    H247895   3.878   2.011  13.418  0.7910 -0.1554 -1.7320
 8802TIP3   OH247896   6.362   5.730  10.998 -0.6950 -0.3099 -0.1545
 8802TIP3    H147897   6.293   5.764  10.941 -0.3471  1.2414  0.3203
 8802TIP3    H247898   6.351   5.779  11.080  1.0943  0.1127 -0.1473
 8803TIP3   OH247899   4.480   0.382  12.994 -0.0092  0.3379 -0.5507
 8803TIP3    H147900   4.521   0.298  12.975 -0.6663 -0.2816  0.7484
 8803TIP3    H247901   4.386   0.364  12.994 -0.1755  1.1887 -0.8402
 8804TIP3   OH247902   5.477   6.299   3.280  0.2788 -0.6188  0.3906
 8804TIP3    H147903   5.437   6.212   3.269 -1.7025  0.2562  0.4648
 8804TIP3    H247904   5.482   6.312   3.374 -2.3849  0.6335  0.3997
 8805TIP3   OH247905   3.993   6.813   2.190  0.1721  0.0125  0.7455
 8805TIP3    H147906   4.080   6.835   2.157 -1.2218  1.5258 -2.0768
 8805TIP3    H247907   3.974   6.881   2.255  0.6695  0.2583  0.6358
 8806TIP3   OH247908   1.360   5.942   3.310 -0.2941  0.1723 -0.3582
 8806TIP3    H147909   1.441   5.992   3.295 -0.1468  0.1781  0.4544
 8806TIP3    H247910   1.380   5.884   3.383 -0.5527 -0.9015 -1.1091
 8807TIP3   OH247911   6.294   3.768  15.947 -0.1410  0.1501  0.0880
 8807TIP3    H147912   6.214   3.748  15.996 -0.2461  0.1762 -0.0739
 8807TIP3    H247913   6.267   3.770  15.855  0.5801 -2.5462 -0.2229
 8808TIP3   OH247914   1.465   4.258  17.231 -0.6649  0.7345  0.1343
 8808TIP3    H147915   1.398   4.307  17.184 -1.0571 -0.3807 -0.4918
 8808TIP3    H247916   1.537   4.321  17.241 -1.7820  1.9361  0.8159
 8809TIP3   OH247917   1.027   1.883  12.134  0.1597 -0.6211  0.0677
 8809TIP3    H147918   1.098   1.930  12.179  1.3029 -3.6819  1.6242
 8809TIP3    H247919   1.067   1.799  12.108 -2.0993 -1.2047 -1.6555
 8810TIP3   OH247920   2.147   5.042  14.034  0.2675 -0.2552 -0.0825
 8810TIP3    H147921   2.217   5.101  14.008 -0.7459  1.4764  1.0085
 8810TIP3    H247922   2.112   5.008  13.951 -0.0119  1.7355 -0.8137
 8811TIP3   OH247923   3.116   2.526   3.068  0.5525 -0.1648  0.2905
 8811TIP3    H147924   3.083   2.444   3.103  1.0589 -1.0942 -1.3399
 8811TIP3    H247925   3.086   2.527   2.977  2.0736  0.5791 -0.2261
 8812TIP3   OH247926   4.674   3.877   4.375 -0.4839 -1.3314 -0.4579
 8812TIP3    H147927   4.624   3.855   4.454  0.0391  2.6315  1.0981
 8812TIP3    H247928   4.610   3.922   4.319  0.1813 -0.4843 -0.5279
 8813TIP3   OH247929   2.190   0.909  11.699 -0.4646 -0.4765 -0.2996
 8813TIP3    H147930   2.232   0.852  11.763 -0.1914 -1.7100 -1.5594
 8813TIP3    H247931   2.097   0.903  11.719 -0.3939 -0.9801 -0.1285
 8814TIP3   OH247932   0.625   5.960  14.226 -0.3202  0.2883 -0.2060
 8814TIP3    H147933   0.612   5.967  14.131 -1.3812 -1.1246 -0.1757
 8814TIP3    H247934   0.589   5.874  14.249  1.3305 -0.0473  1.2361
 8815TIP3   OH247935   3.559   1.418   3.557 -0.7536 -0.1082  0.3483
 8815TIP3    H147936   3.530   1.501   3.595  0.5342  0.8808 -0.7531
 8815TIP3    H247937   3.587   1.365   3.632  0.1172  1.1511  0.9382
 8816TIP3   OH247938   0.279   2.273   2.844 -0.0761 -0.4234 -0.0849
 8816TIP3    H147939   0.317   2.292   2.758  0.8681 -1.2496  0.1398
 8816TIP3    H247940   0.187   2.254   2.826  0.0692 -0.3772 -0.8893
 8817TIP3   OH247941   4.923   6.488  12.877  0.1640 -0.3094  0.2317
 8817TIP3    H147942   4.857   6.557  12.873  1.0484  0.5244 -0.2799
 8817TIP3    H247943   5.007   6.534  12.876  0.7873 -1.4100 -1.0809
 8818TIP3   OH247944   4.547   5.702  14.747 -0.3866 -0.6559 -0.1066
 8818TIP3    H147945   4.481   5.688  14.815 -1.9180 -0.8587 -1.5867
 8818TIP3    H247946   4.596   5.779  14.776 -0.6179 -1.1045  1.5122
 8819TIP3   OH247947   4.747   3.473   5.379  0.1262 -0.2504 -0.2881
 8819TIP3    H147948   4.719   3.432   5.298 -0.1274  2.4318 -1.6118
 8819TIP3    H247949   4.832   3.514   5.358  1.2076 -1.5142  1.4567
 8820TIP3   OH247950   2.637   5.319  13.855  0.6734  0.2172 -0.7890
 8820TIP3    H147951   2.574   5.384  13.823  1.5963  1.0570 -0.9080
 8820TIP3    H247952   2.674   5.280  13.776  0.0044 -0.5785 -0.7185
 8821TIP3   OH247953   3.193   4.073  16.766 -0.2585 -0.2208 -0.3238
 8821TIP3    H147954   3.227   4.069  16.677 -1.0010  0.2783 -0.6409
 8821TIP3    H247955   3.130   4.000  16.771  1.4420 -1.6664  0.5239
 8822TIP3   OH247956   0.341   1.325   5.426 -0.4889 -0.1388  0.8931
 8822TIP3    H147957   0.436   1.334   5.434 -0.4010 -0.0710 -0.1224
 8822TIP3    H247958   0.329   1.275   5.345 -1.3256  0.0607  0.8908
 8823TIP3   OH247959   4.473   6.060   3.886 -0.1027  0.1273  0.2350
 8823TIP3    H147960   4.514   6.063   3.799 -0.2686  0.0824  0.1550
 8823TIP3    H247961   4.546   6.069   3.947  0.3226 -2.3729  0.1509
 8824TIP3   OH247962   1.406   1.834  14.951  0.7322 -0.2744 -0.3712
 8824TIP3    H147963   1.469   1.766  14.974  1.0747  0.4417  0.8369
 8824TIP3    H247964   1.322   1.789  14.950  1.0049 -0.8016  0.0067
 8825TIP3   OH247965   6.399   1.819   6.286 -0.1853 -0.6328 -0.0903
 8825TIP3    H147966   6.361   1.883   6.346 -0.5520  0.5504 -1.5725
 8825TIP3    H247967   6.328   1.757   6.269 -0.5840 -0.0439 -0.5884
 8826TIP3   OH247968   4.490   0.482   3.748 -0.1049 -0.1246  0.1168
 8826TIP3    H147969   4.570   0.435   3.723 -1.2927 -2.8872  1.2206
 8826TIP3    H247970   4.434   0.476   3.671  0.8560  2.1638 -0.7998
 8827TIP3   OH247971   3.388   6.444   1.608 -0.1806  0.0728 -0.4129
 8827TIP3    H147972   3.443   6.475   1.680  0.0861 -0.5748 -0.3323
 8827TIP3    H247973   3.444   6.385   1.558 -0.2059  0.9491 -1.4720
 8828TIP3   OH247974   0.268   6.122  14.009  0.6287 -0.9305 -0.4484
 8828TIP3    H147975   0.357   6.130  14.044  0.9122 -1.2015 -1.1073
 8828TIP3    H247976   0.239   6.036  14.039 -0.0266 -0.1578  1.1643
 8829TIP3   OH247977   6.614   5.685  14.913 -0.4339  0.2421  0.4144
 8829TIP3    H147978   6.560   5.740  14.856 -0.4504  1.6854  1.7920
 8829TIP3    H247979   6.576   5.598  14.905 -0.5403  0.4464 -1.6545
 8830TIP3   OH247980   6.045   1.525   0.980  0.8492 -0.1367 -0.4771
 8830TIP3    H147981   6.066   1.443   0.936  0.9203  0.0737 -0.8403
 8830TIP3    H247982   6.041   1.503   1.073 -0.4123 -0.8132 -0.6851
 8831TIP3   OH247983   0.810   6.344   3.963  0.2231 -0.4990 -0.0427
 8831TIP3    H147984   0.736   6.291   3.994 -0.1491 -0.0592 -0.1881
 8831TIP3    H247985   0.771   6.415   3.914  0.8634 -1.8492 -2.5886
 8832TIP3   OH247986   3.052   4.823  14.917  0.5854  0.2512 -0.2509
 8832TIP3    H147987   3.145   4.815  14.939  0.3336 -0.8381  0.4322
 8832TIP3    H247988   3.052   4.871  14.834  1.7474  0.3369 -0.2208
 8833TIP3   OH247989   1.916   2.505   6.433  0.4207 -0.0063  0.3267
 8833TIP3    H147990   1.846   2.558   6.397 -1.0906 -2.2830 -0.2136
 8833TIP3    H247991   1.996   2.556   6.419 -0.7203  1.1750 -1.9951
 8834TIP3   OH247992   3.100   3.791  15.873  0.1492  0.5036  0.2435
 8834TIP3    H147993   3.116   3.697  15.871  1.2921  0.7076 -1.6334
 8834TIP3    H247994   3.030   3.802  15.937 -0.7386 -1.7433 -0.2796
 8835TIP3   OH247995   3.650   2.491   4.837  0.1028  0.0852 -0.0532
 8835TIP3    H147996   3.675   2.583   4.849 -0.2142  0.5342 -2.5948
 8835TIP3    H247997   3.705   2.460   4.766  0.5915 -1.8856  1.1459
 8836TIP3   OH247998   3.722   0.027  14.977  0.4086 -0.6950 -0.4379
 8836TIP3    H147999   3.757  -0.062  14.980 -0.5395 -1.0692 -0.2314
 8836TIP3    H248000   3.664   0.032  15.053  1.4356  0.5178  0.2745
 8837TIP3   OH248001   3.047   0.175   4.074 -0.1166 -0.4907  0.1423
 8837TIP3    H148002   3.042   0.244   4.140  1.3734 -1.1474  0.9669
 8837TIP3    H248003   2.999   0.102   4.112 -0.4188 -0.4054 -0.0809
 8838TIP3   OH248004   3.543   1.210   3.968  0.1726  0.6920 -0.1348
 8838TIP3    H148005   3.627   1.255   3.971  0.2655  0.5858 -0.9029
 8838TIP3    H248006   3.523   1.188   4.059  1.7130 -0.6737 -0.1147
 8839TIP3   OH248007   0.661   5.232  14.133  0.3952 -0.2917 -0.1072
 8839TIP3    H148008   0.715   5.211  14.057  1.1759  0.7951  0.1404
 8839TIP3    H248009   0.704   5.307  14.174 -0.9091  0.1531  0.4993
 8840TIP3   OH248010   2.391   6.773   0.437  0.3669  0.4945 -0.0797
 8840TIP3    H148011   2.339   6.705   0.481  0.2464 -0.0765 -1.0984
 8840TIP3    H248012   2.470   6.728   0.408  0.0988  0.6864 -1.1286
 8841TIP3   OH248013   5.157   1.408  15.143 -0.2645  0.3415 -0.1143
 8841TIP3    H148014   5.234   1.352  15.133 -0.0328  0.5322  0.6139
 8841TIP3    H248015   5.084   1.347  15.153  0.0022  0.1768  0.7960
 8842TIP3   OH248016   0.278   4.526  15.937  0.1293  0.4843 -0.3459
 8842TIP3    H148017   0.300   4.494  16.024 -1.5603  1.4293  0.4650
 8842TIP3    H248018   0.348   4.588  15.916 -0.3684  1.5607  1.0950
 8843TIP3   OH248019   3.866   1.966   2.252  0.3272 -0.2107  0.0699
 8843TIP3    H148020   3.814   2.045   2.263  0.1683 -0.3871  0.5926
 8843TIP3    H248021   3.942   1.994   2.201  0.2444  0.2667  0.2095
 8844TIP3   OH248022   0.647   2.536   4.053 -0.2289  0.0684 -0.2458
 8844TIP3    H148023   0.697   2.554   4.133 -0.3715  0.5506 -0.2609
 8844TIP3    H248024   0.650   2.618   4.004 -0.9004  0.0549 -0.3164
 8845TIP3   OH248025   1.291   5.804  12.991  0.4572  0.3640  0.3684
 8845TIP3    H148026   1.313   5.889  12.952 -1.9843  0.3308 -1.2015
 8845TIP3    H248027   1.262   5.825  13.080  0.6249  1.0674  0.2578
 8846TIP3   OH248028   2.772   5.149   5.572  0.0919 -0.3709  0.3323
 8846TIP3    H148029   2.707   5.197   5.624 -1.8353 -1.5566 -0.9536
 8846TIP3    H248030   2.721   5.095   5.513  2.2676 -0.1615 -1.8083
 8847TIP3   OH248031   3.466   1.699   1.441  0.0675  0.5532 -0.1361
 8847TIP3    H148032   3.378   1.716   1.408 -0.0459 -1.2561 -0.8286
 8847TIP3    H248033   3.466   1.605   1.462  2.0133  0.3707 -0.8105
 8848TIP3   OH248034   3.035   2.711   3.307  0.4800  0.2553 -0.7443
 8848TIP3    H148035   3.116   2.677   3.270 -0.2313 -1.3338 -0.8597
 8848TIP3    H248036   3.059   2.744   3.393  1.2409 -0.1981 -0.7894
 8849TIP3   OH248037   5.793   0.298  13.601 -0.4149 -0.4244 -0.3571
 8849TIP3    H148038   5.812   0.205  13.596 -3.7376 -1.2153  0.5708
 8849TIP3    H248039   5.699   0.305  13.581 -0.9243  2.3782  2.4877
 8850TIP3   OH248040   5.491   0.562   5.946  0.0865  0.4464  0.2483
 8850TIP3    H148041   5.400   0.567   5.918 -0.1555 -1.7731  0.5934
 8850TIP3    H248042   5.538   0.617   5.883 -1.1897 -0.1106 -1.2276
 8851TIP3   OH248043   1.535   5.884  16.667 -0.3060 -0.3241 -0.2852
 8851TIP3    H148044   1.471   5.829  16.711 -0.9030 -0.3714 -1.2003
 8851TIP3    H248045   1.548   5.843  16.582  0.5409 -0.0156 -0.3097
 8852TIP3   OH248046   1.965   2.347  12.790 -0.2271 -0.3251  0.2385
 8852TIP3    H148047   1.985   2.433  12.753  1.4577 -0.4572  0.8067
 8852TIP3    H248048   1.922   2.367  12.874 -3.5225 -0.0338 -1.4536
 8853TIP3   OH248049   2.328   1.279  14.360 -0.0603 -0.3708 -0.5577
 8853TIP3    H148050   2.329   1.350  14.425 -0.5096 -0.3410 -0.5819
 8853TIP3    H248051   2.242   1.238  14.371  0.1749 -0.8706 -0.5882
 8854TIP3   OH248052   0.515   6.224   0.427 -0.3524  0.3258 -0.2359
 8854TIP3    H148053   0.517   6.318   0.411  0.4494  0.2447 -0.6400
 8854TIP3    H248054   0.601   6.204   0.462 -0.1805 -0.4216 -1.0837
 8855TIP3   OH248055   1.258   2.841  13.948 -0.0859  0.5500 -0.2173
 8855TIP3    H148056   1.318   2.855  14.022  0.3703 -0.9819 -0.2620
 8855TIP3    H248057   1.311   2.860  13.871  0.2856 -0.5768 -0.2479
 8856TIP3   OH248058   1.553   0.152   0.044 -0.2510 -0.2666  0.7452
 8856TIP3    H148059   1.607   0.079   0.012 -1.1901 -0.1202 -1.2799
 8856TIP3    H248060   1.613   0.205   0.096  0.1772 -3.0845  3.2652
 8857TIP3   OH248061   5.911   4.396  10.851 -0.1733 -0.3236 -0.9138
 8857TIP3    H148062   5.948   4.445  10.924 -3.5225  1.7596 -0.5078
 8857TIP3    H248063   5.966   4.318  10.845  1.7404  0.6661  2.1693
 8858TIP3   OH248064   2.974   2.401  13.319  0.0463  0.3338 -0.3691
 8858TIP3    H148065   2.996   2.366  13.405 -1.0323 -1.1496 -0.6650
 8858TIP3    H248066   2.882   2.428  13.328 -1.4965 -3.9650 -2.2704
 8859TIP3   OH248067   0.702   5.234   2.252  0.3796 -0.1954  0.0885
 8859TIP3    H148068   0.698   5.278   2.167  1.3174  0.8402  0.5630
 8859TIP3    H248069   0.796   5.228   2.271  0.1545  0.2494  1.3768
 8860TIP3   OH248070   1.406   1.506  16.790 -0.8052  0.2721 -0.3095
 8860TIP3    H148071   1.441   1.443  16.727 -2.4569 -0.6806 -0.3311
 8860TIP3    H248072   1.312   1.507  16.772 -1.1326  0.9138  1.3261
 8861TIP3   OH248073   5.306   5.660   0.932 -0.2644  0.3554  0.6056
 8861TIP3    H148074   5.333   5.574   0.900 -0.4669  0.3346  0.4921
 8861TIP3    H248075   5.301   5.649   1.027  0.7825  0.5407  0.6900
 8862TIP3   OH248076   0.921   1.440   2.977 -0.4040  0.0862 -0.2320
 8862TIP3    H148077   0.937   1.409   3.066  2.0020 -0.8521 -0.9542
 8862TIP3    H248078   1.004   1.480   2.950 -1.4904  1.4556 -1.6166
 8863TIP3   OH248079   5.974   6.368  10.647 -0.3182  0.2694 -0.0097
 8863TIP3    H148080   5.925   6.448  10.666  0.5074  1.0923 -1.2819
 8863TIP3    H248081   5.925   6.326  10.576 -1.0997 -0.6991  1.0713
 8864TIP3   OH248082   2.190   5.810   0.079  0.0763  0.3955 -0.0827
 8864TIP3    H148083   2.266   5.866   0.063  0.3601  0.0387  0.0125
 8864TIP3    H248084   2.225   5.721   0.079 -0.1939  0.2787  0.8031
 8865TIP3   OH248085   4.279   2.830  14.538  0.2506  0.0596  0.2287
 8865TIP3    H148086   4.369   2.855  14.559  0.3625 -0.0524 -0.1066
 8865TIP3    H248087   4.262   2.754  14.594  0.5238 -0.2005 -0.0387
 8866TIP3   OH248088   1.807   0.575   0.617 -0.1650  0.1490  0.1004
 8866TIP3    H148089   1.747   0.548   0.546 -0.7412  1.4227  0.0990
 8866TIP3    H248090   1.868   0.502   0.624 -1.4113 -0.9661 -0.2449
 8867TIP3   OH248091   6.790   6.526   3.579  0.3822  0.5458 -0.0504
 8867TIP3    H148092   6.834   6.479   3.650  1.1833 -0.6919 -1.3295
 8867TIP3    H248093   6.738   6.459   3.534 -1.6120  1.7002  0.5027
 8868TIP3   OH248094   5.140   5.652   4.568  0.4394 -0.6346  0.3476
 8868TIP3    H148095   5.212   5.701   4.528  2.2155 -2.7793  0.8499
 8868TIP3    H248096   5.126   5.695   4.652  1.7084 -0.6974  0.6050
 8869TIP3   OH248097   1.875   4.892  15.702 -0.5174 -0.2210  0.6103
 8869TIP3    H148098   1.952   4.926  15.747 -0.0925  0.2014 -0.4090
 8869TIP3    H248099   1.909   4.822  15.646 -0.9403 -0.3450  0.5039
 8870TIP3   OH248100   2.974   6.722  11.335 -0.6163  0.7716 -0.1203
 8870TIP3    H148101   2.979   6.659  11.407  1.4312  1.3317  0.2611
 8870TIP3    H248102   2.952   6.669  11.259 -2.9421  0.1844  0.8963
 8871TIP3   OH248103   1.255   1.315  16.911  0.9741 -0.1529 -0.2434
 8871TIP3    H148104   1.331   1.368  16.891  1.7289 -1.6250 -1.3353
 8871TIP3    H248105   1.274   1.229  16.873 -0.8234 -0.8059  0.2583
 8872TIP3   OH248106   3.190   5.214  11.259  0.2001 -0.0002  0.1930
 8872TIP3    H148107   3.208   5.139  11.203  2.6375  1.6660 -1.3646
 8872TIP3    H248108   3.232   5.288  11.214 -1.3627  2.1250  2.1277
 8873TIP3   OH248109   0.860   3.501  13.152  0.0144  0.2769  0.4787
 8873TIP3    H148110   0.900   3.549  13.225  0.5825 -0.7095  0.8151
 8873TIP3    H248111   0.786   3.455  13.190 -0.0527  0.2394  0.3064
 8874TIP3   OH248112   3.455   1.969  12.690  0.3822  0.4952  0.4250
 8874TIP3    H148113   3.499   2.043  12.649  2.3904 -0.8070  0.1120
 8874TIP3    H248114   3.523   1.929  12.745 -0.7063 -0.9842  0.7349
 8875TIP3   OH248115   1.692   5.290  14.337  0.1357  0.0592 -0.0991
 8875TIP3    H148116   1.776   5.252  14.311 -0.5444 -1.0820 -0.6161
 8875TIP3    H248117   1.648   5.220  14.385 -0.0894  1.0035  1.0956
 8876TIP3   OH248118   6.663   2.856   3.753  0.3002  0.8434  0.1030
 8876TIP3    H148119   6.615   2.916   3.696 -1.7619 -0.9816 -0.1706
 8876TIP3    H248120   6.717   2.913   3.808 -0.3424  2.8310 -1.2518
 8877TIP3   OH248121   1.204   2.072  14.337  0.2905 -0.3038 -0.1205
 8877TIP3    H148122   1.244   2.109  14.416 -0.2437  0.7653 -0.3446
 8877TIP3    H248123   1.139   2.137  14.310  1.4697  0.0120 -2.2757
 8878TIP3   OH248124   0.697   3.543   5.675  0.5334  0.5104 -0.0570
 8878TIP3    H148125   0.690   3.530   5.580  2.8016  2.2462 -0.5070
 8878TIP3    H248126   0.788   3.523   5.695  0.2563  0.8968  1.6509
 8879TIP3   OH248127   5.341   2.149   1.509 -0.3938 -0.0463  0.0055
 8879TIP3    H148128   5.362   2.239   1.533 -0.0885 -0.6095  1.9018
 8879TIP3    H248129   5.246   2.150   1.495 -0.1448  0.9606 -1.8270
 8880TIP3   OH248130   3.514   0.838   3.454 -0.1488  0.4109 -0.4620
 8880TIP3    H148131   3.496   0.876   3.368  1.0782 -0.7493 -1.2493
 8880TIP3    H248132   3.522   0.914   3.512 -1.4761  1.1798 -1.2600
 8881TIP3   OH248133   2.595   5.298  15.944  0.2285  0.0211  0.0288
 8881TIP3    H148134   2.532   5.370  15.943  0.3361  0.1119 -1.1914
 8881TIP3    H248135   2.680   5.342  15.945  0.2826 -0.0908  0.2352
 8882TIP3   OH248136   3.549   2.947  15.474 -0.2569 -0.2152 -0.1743
 8882TIP3    H148137   3.580   2.858  15.494  0.5940  0.5169  1.8814
 8882TIP3    H248138   3.623   2.989  15.431 -0.8879 -0.6763 -1.7665
 8883TIP3   OH248139   6.314   6.721  10.474  0.1140 -0.5499 -0.1150
 8883TIP3    H148140   6.349   6.796  10.426 -0.0955  0.3073  1.0620
 8883TIP3    H248141   6.346   6.645  10.424 -1.4683  0.3194 -2.5493
 8884TIP3   OH248142   4.224   5.910   2.543 -0.2973  0.0107  0.6604
 8884TIP3    H148143   4.310   5.916   2.502 -0.4281 -0.6887  0.2585
 8884TIP3    H248144   4.201   5.817   2.536 -1.4633  0.3276 -0.0436
 8885TIP3   OH248145   3.183   2.873   3.621  0.0762 -0.0026 -0.4486
 8885TIP3    H148146   3.149   2.787   3.647  0.5353  0.1163  0.5847
 8885TIP3    H248147   3.277   2.867   3.638  0.1539  0.5978 -0.6706
 8886TIP3   OH248148   1.594   6.555  11.670 -0.1455  0.2700 -0.3811
 8886TIP3    H148149   1.656   6.609  11.620 -0.0831  2.0301  1.5273
 8886TIP3    H248150   1.639   6.471  11.681  0.6333  0.5033 -1.6011
 8887TIP3   OH248151   3.282   5.519  13.216  0.2572  0.8875  0.2604
 8887TIP3    H148152   3.313   5.443  13.167  0.4923  1.4016 -0.3895
 8887TIP3    H248153   3.332   5.515  13.298  2.0222  1.6571 -0.7384
 8888TIP3   OH248154   0.203   5.655   5.624  0.5763 -0.1032 -0.3456
 8888TIP3    H148155   0.285   5.606   5.637  1.9953  2.0037 -1.0470
 8888TIP3    H248156   0.215   5.700   5.540 -1.3614  0.1846 -0.4941
 8889TIP3   OH248157   5.381   3.186   5.187  0.0990 -0.2183  0.4591
 8889TIP3    H148158   5.433   3.256   5.147 -0.2462 -0.3334 -0.1899
 8889TIP3    H248159   5.312   3.168   5.123  0.3473 -1.3471  0.5071
 8890TIP3   OH248160   3.000   2.300   5.251 -0.0932 -0.5607 -0.7071
 8890TIP3    H148161   3.037   2.388   5.255 -0.1956 -0.5412 -0.0966
 8890TIP3    H248162   2.980   2.278   5.342 -0.8941 -0.8579 -0.9482
 8891TIP3   OH248163   4.589   5.426  14.687 -0.2677 -0.2016 -0.0886
 8891TIP3    H148164   4.660   5.413  14.623 -0.6623  0.8933 -0.7630
 8891TIP3    H248165   4.593   5.519  14.708 -0.4101 -0.4829  1.1855
 8892TIP3   OH248166   6.153   6.607   1.729 -0.3234  0.0263 -0.2249
 8892TIP3    H148167   6.067   6.567   1.740 -0.1226 -0.4552 -0.4287
 8892TIP3    H248168   6.210   6.536   1.703  0.2794  0.2185  0.5342
 8893TIP3   OH248169   1.564   0.090  11.778 -0.3134 -0.1415  0.4917
 8893TIP3    H148170   1.562   0.185  11.769 -1.1238 -0.3348 -1.9424
 8893TIP3    H248171   1.477   0.061  11.750  0.8749 -1.7711 -1.7148
 8894TIP3   OH248172   4.234   3.863  13.340  0.0142 -0.0195 -0.7761
 8894TIP3    H148173   4.160   3.872  13.400 -1.4163  2.8799 -2.7886
 8894TIP3    H248174   4.217   3.782  13.292 -1.3281  0.0591 -0.4561
 8895TIP3   OH248175   0.880   6.748   3.354  0.1548 -0.1815  0.4211
 8895TIP3    H148176   0.831   6.830   3.364 -2.2280 -1.5917  0.6794
 8895TIP3    H248177   0.891   6.738   3.260  1.7714  1.1659  0.4439
 8896TIP3   OH248178   6.191   3.034  14.396 -0.1623 -0.2050 -0.5127
 8896TIP3    H148179   6.122   2.988  14.444 -0.6232  1.1189  0.1147
 8896TIP3    H248180   6.272   3.008  14.441 -0.6525  1.6234  1.5309
 8897TIP3   OH248181   0.566   4.303   5.183 -0.4317 -0.3308 -0.2121
 8897TIP3    H148182   0.563   4.309   5.278  3.1356 -2.5623  0.1378
 8897TIP3    H248183   0.502   4.367   5.152 -2.0497  0.0292  3.6749
 8898TIP3   OH248184   1.181   4.636  12.262 -0.0745  0.0143 -0.0208
 8898TIP3    H148185   1.254   4.676  12.310 -1.1234  1.2245  0.6082
 8898TIP3    H248186   1.103   4.666  12.308 -1.0569  0.1990 -1.7375
 8899TIP3   OH248187   2.178   5.400  13.707 -0.2226  0.1612  0.4333
 8899TIP3    H148188   2.143   5.412  13.795 -2.4096 -2.0873 -0.0930
 8899TIP3    H248189   2.164   5.484  13.664  1.3449  1.4571  2.3497
 8900TIP3   OH248190   0.892   5.653   2.584  0.1274 -0.4054 -0.4440
 8900TIP3    H148191   0.830   5.724   2.564 -0.0696 -0.3149  0.4566
 8900TIP3    H248192   0.866   5.581   2.527  1.0467  0.6398 -2.2066
 8901TIP3   OH248193   2.984   3.363  11.711 -0.2535 -0.1793  0.5292
 8901TIP3    H148194   2.908   3.421  11.708  0.0722  0.3283  1.6407
 8901TIP3    H248195   2.958   3.291  11.768  0.8334  1.1387  2.7855
 8902TIP3   OH248196   6.782   3.881  14.673  0.3547 -0.4061 -0.0427
 8902TIP3    H148197   6.803   3.793  14.702 -0.9296 -0.2665  1.3966
 8902TIP3    H248198   6.691   3.876  14.643  1.1453 -0.1776 -2.5882
 8903TIP3   OH248199   2.630   5.432   1.936  0.3463 -0.0752 -0.2143
 8903TIP3    H148200   2.602   5.479   1.857  1.0920 -0.8218 -0.9363
 8903TIP3    H248201   2.722   5.455   1.946  0.0164  0.7728  1.0032
 8904TIP3   OH248202   4.892   0.631   3.777 -0.3076 -0.6665 -0.2880
 8904TIP3    H148203   4.877   0.692   3.704 -0.0349 -1.1775 -0.7670
 8904TIP3    H248204   4.901   0.545   3.736  1.5932 -0.7208  0.1881
 8905TIP3   OH248205   6.689   2.589   4.393  0.1459  0.0579 -0.1161
 8905TIP3    H148206   6.622   2.595   4.461 -1.9728 -2.7919 -1.8433
 8905TIP3    H248207   6.709   2.680   4.371 -0.2396  1.0171  3.1617
 8906TIP3   OH248208   6.161   0.456   4.487  0.4846 -0.0163 -0.4440
 8906TIP3    H148209   6.195   0.368   4.505 -0.3319 -0.1530  0.5318
 8906TIP3    H248210   6.108   0.477   4.565 -0.6195  0.6911 -1.3736
 8907TIP3   OH248211   2.288   5.307   5.688 -0.3506 -0.0739 -0.0200
 8907TIP3    H148212   2.328   5.295   5.601  1.6868 -0.6712  0.9724
 8907TIP3    H248213   2.325   5.389   5.720 -1.5395  0.4362  0.0589
 8908TIP3   OH248214   5.048   0.850   5.024 -0.5797  0.1633 -0.1398
 8908TIP3    H148215   5.126   0.878   5.070 -0.7829 -0.6319  0.6951
 8908TIP3    H248216   4.998   0.799   5.088 -2.3361  1.6009 -0.2987
 8909TIP3   OH248217   3.216   0.816  16.189 -0.1337 -0.6354  0.0894
 8909TIP3    H148218   3.190   0.890  16.244 -1.8121 -1.4138  0.3908
 8909TIP3    H248219   3.309   0.830  16.172 -0.0432  0.6634  1.5064
 8910TIP3   OH248220   1.343   6.009  15.895  0.0171  0.0082 -0.3069
 8910TIP3    H148221   1.425   6.039  15.934 -0.1011 -0.8625  0.6472
 8910TIP3    H248222   1.286   6.086  15.898  1.2113  0.9997 -2.2056
 8911TIP3   OH248223   5.414   1.048  12.535 -0.5977  0.2658 -0.5613
 8911TIP3    H148224   5.351   0.990  12.578  0.1305  1.0654  1.6322
 8911TIP3    H248225   5.362   1.125  12.510 -0.5674  0.8770  1.1510
 8912TIP3   OH248226   6.255   2.066   0.518 -0.1529 -0.0988 -0.6364
 8912TIP3    H148227   6.307   2.132   0.472 -0.2796  0.4166 -0.0517
 8912TIP3    H248228   6.167   2.104   0.522  0.4727  1.2130  2.5764
 8913TIP3   OH248229   4.993   3.058   4.781  0.5120  0.0158 -0.2048
 8913TIP3    H148230   4.926   3.045   4.848 -0.7730 -2.1139 -1.8669
 8913TIP3    H248231   4.950   3.107   4.712  1.3319  0.6655 -0.2630
 8914TIP3   OH248232   5.260   4.134  14.841 -0.0804 -0.5131  0.5455
 8914TIP3    H148233   5.271   4.078  14.918 -1.3290 -0.9786  0.4042
 8914TIP3    H248234   5.256   4.223  14.876  2.3202 -0.4430  0.7404
 8915TIP3   OH248235   4.921   3.130  14.411  0.0089 -0.1361 -0.2923
 8915TIP3    H148236   4.912   3.115  14.317 -0.5478  0.7370 -0.3786
 8915TIP3    H248237   4.975   3.208  14.419  0.7908 -0.7064  0.1334
 8916TIP3   OH248238   3.572   2.168  16.271 -0.2487 -0.1869 -0.1334
 8916TIP3    H148239   3.525   2.093  16.234  0.7148 -0.2907 -1.1473
 8916TIP3    H248240   3.635   2.193  16.203  1.4683 -0.3169  1.3975
 8917TIP3   OH248241   4.818   3.781  12.108  0.5591 -0.2347 -0.4246
 8917TIP3    H148242   4.736   3.735  12.122 -0.0193  0.8128 -0.3329
 8917TIP3    H248243   4.876   3.749  12.177 -0.9517  1.7906  1.8559
 8918TIP3   OH248244   0.594   5.575   2.679  0.8397  0.6838  0.1368
 8918TIP3    H148245   0.630   5.487   2.676  2.3728  1.3295 -1.3083
 8918TIP3    H248246   0.552   5.587   2.594  1.9697  1.8494 -0.2856
 8919TIP3   OH248247   0.188   2.305   1.184 -0.3385  0.0313  0.0045
 8919TIP3    H148248   0.141   2.375   1.139  1.8636  0.9405 -0.8949
 8919TIP3    H248249   0.245   2.267   1.118  0.1221 -1.1617  1.0602
 8920TIP3   OH248250   3.724   3.185   5.638  0.0521  0.1210  0.6090
 8920TIP3    H148251   3.771   3.102   5.636  1.2920  0.8136  0.6037
 8920TIP3    H248252   3.747   3.225   5.722 -0.3894  0.5414  0.5370
 8921TIP3   OH248253   1.600   4.745   1.749 -0.1941 -0.0630  0.2635
 8921TIP3    H148254   1.567   4.705   1.830 -1.1600  0.0577 -0.0616
 8921TIP3    H248255   1.522   4.758   1.695  0.2605  1.1676 -0.1194
 8922TIP3   OH248256   3.115   2.418  15.650 -0.0816 -0.9808 -0.1082
 8922TIP3    H148257   3.091   2.352  15.715 -0.8531  0.5587  1.2136
 8922TIP3    H248258   3.088   2.382  15.566 -1.8361 -1.7078  0.7590
 8923TIP3   OH248259   5.176   3.616   1.255 -0.5276  0.7176  0.2042
 8923TIP3    H148260   5.193   3.538   1.201  0.0269  0.8956  0.1089
 8923TIP3    H248261   5.155   3.685   1.191 -3.4400  0.0793  0.4101
 8924TIP3   OH248262   2.771   2.725  16.726  0.6576 -1.0243 -0.1414
 8924TIP3    H148263   2.789   2.692  16.639  0.1682 -0.3221 -0.5198
 8924TIP3    H248264   2.798   2.655  16.785  1.6317 -1.2361 -0.8195
 8925TIP3   OH248265   2.932   1.147   0.655 -0.4465 -0.4187  1.0324
 8925TIP3    H148266   2.917   1.240   0.635  1.7830 -0.1639  0.4995
 8925TIP3    H248267   2.900   1.101   0.578  2.0434  0.1733 -0.4115
 8926TIP3   OH248268   3.794   0.125   0.804  0.4119 -0.0472 -0.3652
 8926TIP3    H148269   3.879   0.088   0.780  0.4247  0.3609 -0.9938
 8926TIP3    H248270   3.794   0.212   0.763 -0.9947 -0.7196 -1.8441
 8927TIP3   OH248271   3.763   5.043  14.347  0.0741  0.0770 -0.1571
 8927TIP3    H148272   3.773   5.121  14.402  0.6299  0.1251 -0.3236
 8927TIP3    H248273   3.798   5.069  14.262 -0.3731 -0.1395 -0.4073
 8928TIP3   OH248274   0.742   6.548  14.745  0.2394  0.3888  0.0406
 8928TIP3    H148275   0.822   6.555  14.797  0.3760 -1.4153  0.1214
 8928TIP3    H248276   0.773   6.527  14.657 -0.1076  0.5333 -0.1178
 8929TIP3   OH248277   1.318   1.361   1.937 -0.0988 -0.5065  0.3298
 8929TIP3    H148278   1.321   1.324   1.849  0.9489  0.9001 -0.2452
 8929TIP3    H248279   1.225   1.360   1.960 -0.2916 -1.6730 -0.4375
 8930TIP3   OH248280   0.269   2.417  15.954 -0.2920  0.1452 -0.0661
 8930TIP3    H148281   0.252   2.501  15.910 -1.3619  0.2989  0.6087
 8930TIP3    H248282   0.351   2.386  15.915 -0.0064  1.3863 -0.5008
 8931TIP3   OH248283   4.362   0.964  11.960  0.5922  0.1420  0.4137
 8931TIP3    H148284   4.396   0.882  11.995  0.7039  0.7115  1.6467
 8931TIP3    H248285   4.303   0.997  12.027  0.8026  1.2399  0.0722
 8932TIP3   OH248286   5.777   1.337   1.977 -0.4568 -0.4356  0.6539
 8932TIP3    H148287   5.765   1.280   2.053  2.5772 -2.9301 -0.6455
 8932TIP3    H248288   5.725   1.297   1.908 -1.1688  0.4072  0.6883
 8933TIP3   OH248289   5.616   4.180   5.304  0.1072 -0.0982 -0.7141
 8933TIP3    H148290   5.554   4.130   5.357  0.6180 -0.1152 -0.1276
 8933TIP3    H248291   5.682   4.210   5.366  0.7163 -0.1187 -1.3438
 8934TIP3   OH248292   1.402   3.334  10.849 -0.0726 -0.4145 -0.0406
 8934TIP3    H148293   1.338   3.271  10.882 -1.4770  0.6606 -0.6332
 8934TIP3    H248294   1.354   3.417  10.846  1.0362  0.2035 -1.5089
 8935TIP3   OH248295   0.220   5.609   1.940  0.2473  0.1281  0.6160
 8935TIP3    H148296   0.254   5.656   1.864 -0.2653 -1.3407 -0.5408
 8935TIP3    H248297   0.275   5.639   2.013  0.0894  2.3313 -0.1102
 8936TIP3   OH248298   1.685   3.882   6.368 -0.3311 -0.0527 -0.1540
 8936TIP3    H148299   1.712   3.808   6.423 -0.8918  0.0051  0.1998
 8936TIP3    H248300   1.653   3.947   6.430 -0.7925  0.0859 -0.5386
 8937TIP3   OH248301   4.667   4.605  13.282  0.1763  0.0231  0.0081
 8937TIP3    H148302   4.597   4.627  13.220  1.3020  2.0723 -0.6111
 8937TIP3    H248303   4.656   4.512  13.299 -0.9039 -0.3214 -2.3513
 8938TIP3   OH248304   2.223   3.266   0.323 -0.0643  0.5637 -0.3389
 8938TIP3    H148305   2.297   3.280   0.264  0.0869  0.2546 -0.2258
 8938TIP3    H248306   2.259   3.282   0.410  0.0588 -0.3111 -0.2257
 8939TIP3   OH248307   5.591   0.276  16.929 -0.2018 -0.4208 -0.5947
 8939TIP3    H148308   5.667   0.273  16.987 -0.5259 -0.9443 -0.1881
 8939TIP3    H248309   5.578   0.185  16.901 -1.6400 -0.6060  0.6060
 8940TIP3   OH248310   1.005   4.450   5.696 -0.0080 -0.6147 -0.4988
 8940TIP3    H148311   1.019   4.463   5.790 -1.0170  0.5233 -0.4823
 8940TIP3    H248312   1.043   4.528   5.655  0.1597 -0.9628 -1.0092
 8941TIP3   OH248313   0.349   5.234   2.935  1.0340  0.5338 -0.4088
 8941TIP3    H148314   0.307   5.176   2.871  0.3984  1.3212 -0.7128
 8941TIP3    H248315   0.282   5.300   2.955  1.7205  1.1120  0.0008
 8942TIP3   OH248316   0.693   3.117  14.988  0.9570  0.3788  0.3944
 8942TIP3    H148317   0.697   3.034  15.034 -0.9352  0.6259  1.0603
 8942TIP3    H248318   0.639   3.173  15.043  0.8153  1.5135 -0.8545
 8943TIP3   OH248319   5.337   6.394   1.377  0.1711  0.4592  0.0921
 8943TIP3    H148320   5.353   6.422   1.286  1.5391 -0.7961 -0.0578
 8943TIP3    H248321   5.274   6.323   1.369 -0.5664  1.0879  0.2213
 8944TIP3   OH248322   1.537   5.209  12.346 -0.2625  0.0525 -0.0260
 8944TIP3    H148323   1.489   5.230  12.267 -1.7834 -1.2087  0.5313
 8944TIP3    H248324   1.472   5.210  12.416  1.2289  2.0817  1.3854
 8945TIP3   OH248325   2.125   2.033   6.545  0.2434 -0.0484 -0.2494
 8945TIP3    H148326   2.106   1.941   6.530  0.4429 -1.1215  5.1507
 8945TIP3    H248327   2.039   2.074   6.556  0.2285 -0.4126  1.1619
 8946TIP3   OH248328   0.888   3.847   3.142 -0.1092  0.8370  0.5105
 8946TIP3    H148329   0.938   3.775   3.102  2.2262  2.8014 -0.2624
 8946TIP3    H248330   0.891   3.829   3.236  1.4149  0.4933  0.4087
 8947TIP3   OH248331   2.762   1.537  11.326  0.0871 -0.6208 -0.1141
 8947TIP3    H148332   2.724   1.545  11.239 -1.1718  0.1804  0.4739
 8947TIP3    H248333   2.703   1.588  11.382  0.0336 -2.3398  1.4579
 8948TIP3   OH248334   4.839   4.996  13.554 -0.2045 -0.4488  0.4225
 8948TIP3    H148335   4.918   5.037  13.518 -1.3952  0.2039 -1.5231
 8948TIP3    H248336   4.852   4.902  13.540 -0.4031 -0.2377 -1.2391
 8949TIP3   OH248337   1.594   6.276  15.301 -0.5364 -0.1935 -0.0348
 8949TIP3    H148338   1.564   6.359  15.337  0.0214  0.1768 -0.4221
 8949TIP3    H248339   1.529   6.212  15.331 -0.3527  0.1939  1.2285
 8950TIP3   OH248340   6.408   6.342  11.705 -0.2928 -0.1903 -0.0782
 8950TIP3    H148341   6.347   6.357  11.777 -0.8997  4.0213 -1.3028
 8950TIP3    H248342   6.494   6.338  11.747 -0.7797  0.8336  1.0664
 8951TIP3   OH248343   5.989   0.869  16.386  0.3647 -0.3456 -0.6803
 8951TIP3    H148344   6.041   0.789  16.374  0.0511 -0.6198 -0.1912
 8951TIP3    H248345   6.021   0.928  16.317  1.2121 -0.5713 -0.4944
 8952TIP3   OH248346   3.682   5.621   3.732  0.0650  0.5377  0.0258
 8952TIP3    H148347   3.719   5.553   3.788 -1.4136  0.1698  0.5727
 8952TIP3    H248348   3.676   5.580   3.645  2.3567  1.1087 -0.4499
 8953TIP3   OH248349   0.337   0.934  12.390  0.1496  0.4139 -0.1137
 8953TIP3    H148350   0.385   0.931  12.473  1.2167  0.2308 -0.7311
 8953TIP3    H248351   0.398   0.896  12.326 -0.3076  1.4254 -1.1540
 8954TIP3   OH248352   6.269   0.422  12.170 -0.3867  1.0939 -0.0473
 8954TIP3    H148353   6.358   0.456  12.166  0.7164 -1.5577  0.8851
 8954TIP3    H248354   6.227   0.473  12.239  1.2408  0.5509  1.3653
 8955TIP3   OH248355   2.235   0.275   5.449 -0.1590 -0.0331 -0.1672
 8955TIP3    H148356   2.172   0.221   5.496 -1.2996  0.2710 -1.3281
 8955TIP3    H248357   2.222   0.363   5.485  1.3900 -0.4190  1.4046
 8956TIP3   OH248358   5.267   1.669  14.106  0.3807  0.5684  0.9630
 8956TIP3    H148359   5.231   1.612  14.174  0.3028 -0.3100  0.1973
 8956TIP3    H248360   5.361   1.669  14.122  0.3424  0.5405  1.1964
 8957TIP3   OH248361   1.437   5.756   2.871 -0.5324 -0.1625 -0.3300
 8957TIP3    H148362   1.385   5.818   2.921 -1.0937  1.7742 -3.1798
 8957TIP3    H248363   1.374   5.690   2.842 -0.8429  0.5075 -1.2016
 8958TIP3   OH248364   2.721   1.872  13.116  0.3100 -0.5024 -0.1721
 8958TIP3    H148365   2.783   1.902  13.049  0.1710  0.2253  0.0167
 8958TIP3    H248366   2.681   1.953  13.148  0.3502 -0.8521  0.7634
 8959TIP3   OH248367   6.640   3.705   6.466  0.3964 -0.7392 -0.4697
 8959TIP3    H148368   6.630   3.612   6.446 -0.2336 -0.8410  0.2917
 8959TIP3    H248369   6.551   3.737   6.477  0.6757 -0.5939  1.6666
 8960TIP3   OH248370   4.926   3.470  15.533 -0.0871  0.1359  0.1664
 8960TIP3    H148371   4.850   3.500  15.483  0.2949  2.6122  1.0040
 8960TIP3    H248372   4.908   3.378  15.550 -2.5694  0.4988 -0.2429
 8961TIP3   OH248373   3.399   2.144   5.544 -0.8034  0.3422  0.5858
 8961TIP3    H148374   3.479   2.172   5.498 -0.1570 -0.6394  1.0967
 8961TIP3    H248375   3.379   2.058   5.507 -2.0162  0.8721 -0.0144
 8962TIP3   OH248376   1.023   0.409   5.000 -0.1134  0.2089  0.1553
 8962TIP3    H148377   0.961   0.338   5.014  1.7379 -1.3190  0.9111
 8962TIP3    H248378   0.991   0.481   5.055 -0.7440 -0.8485  1.2017
 8963TIP3   OH248379   3.438   2.344   1.864 -0.1356 -0.0762  0.2225
 8963TIP3    H148380   3.510   2.329   1.803 -0.2383 -0.7004  0.2584
 8963TIP3    H248381   3.446   2.274   1.929 -1.1291 -0.4832 -0.0999
 8964TIP3   OH248382   3.813   4.222  15.246 -0.2093  0.1691 -0.3511
 8964TIP3    H148383   3.903   4.238  15.275 -0.0725  0.3555 -0.8792
 8964TIP3    H248384   3.775   4.168  15.315  0.5469 -0.5613 -0.5012
 8965TIP3   OH248385   4.934   6.235  13.004 -0.5085 -0.4063 -0.2959
 8965TIP3    H148386   5.006   6.251  13.065 -0.6564  0.3757 -0.3245
 8965TIP3    H248387   4.930   6.314  12.950  0.0490 -1.3420 -1.7625
 8966TIP3   OH248388   1.121   6.019   3.479 -0.0703 -1.1691 -0.3155
 8966TIP3    H148389   1.178   5.992   3.407 -0.9014  1.6395 -2.0998
 8966TIP3    H248390   1.147   6.109   3.498 -0.4356 -1.6032  2.3706
 8967TIP3   OH248391   1.073   1.339   5.435  0.4161  0.1095  0.6197
 8967TIP3    H148392   1.117   1.420   5.408  1.3505 -0.1590  1.2787
 8967TIP3    H248393   1.141   1.272   5.429 -0.5896 -0.8155 -0.7977
 8968TIP3   OH248394   0.926   1.409  13.256 -0.3108 -0.7951 -0.3137
 8968TIP3    H148395   0.941   1.463  13.333 -1.0835  0.0993 -0.7860
 8968TIP3    H248396   0.875   1.334  13.288  0.5447 -1.1222  0.2938
 8969TIP3   OH248397   5.952   5.310  15.678 -0.3974  0.0550  0.1850
 8969TIP3    H148398   5.876   5.262  15.711 -0.4132 -1.4802 -1.9747
 8969TIP3    H248399   5.921   5.400  15.668 -2.3020 -0.7618 -1.6979
 8970TIP3   OH248400   5.546   5.205   0.614 -0.7449  0.1453  0.3139
 8970TIP3    H148401   5.611   5.143   0.580 -0.7657  0.6037 -0.5673
 8970TIP3    H248402   5.558   5.202   0.709 -1.0847 -1.5850  0.3194
 8971TIP3   OH248403   6.647   3.958  13.195 -0.8424  0.8151 -0.5240
 8971TIP3    H148404   6.591   4.035  13.194 -1.3534  0.4363 -1.5057
 8971TIP3    H248405   6.648   3.927  13.104  0.5910  0.5547 -0.4360
 8972TIP3   OH248406   2.705   6.756  16.922  0.0488  0.3268 -0.0091
 8972TIP3    H148407   2.727   6.687  16.985  0.8128  0.6628  0.0983
 8972TIP3    H248408   2.789   6.778  16.881 -0.3625  0.4583 -0.7901
 8973TIP3   OH248409   4.851   0.225  14.225  0.2153 -0.6001 -0.2618
 8973TIP3    H148410   4.943   0.218  14.251  0.2283 -0.4495 -0.2643
 8973TIP3    H248411   4.850   0.202  14.132  0.2614 -0.5435 -0.2775
 8974TIP3   OH248412   5.111   4.619   4.840 -0.0206 -0.2411 -0.0441
 8974TIP3    H148413   5.035   4.676   4.831  1.0629  1.3326  0.5460
 8974TIP3    H248414   5.156   4.651   4.918  0.9559 -1.4993 -0.0739
 8975TIP3   OH248415   2.389   0.119  11.231  0.2517 -0.4861 -0.0895
 8975TIP3    H148416   2.317   0.071  11.192  0.0605 -0.2830  0.0152
 8975TIP3    H248417   2.460   0.112  11.168 -0.3290  0.5870 -0.8622
 8976TIP3   OH248418   5.487   5.726  14.075 -0.6344 -0.0802  0.2380
 8976TIP3    H148419   5.513   5.790  14.141 -0.1219 -0.5687  0.5143
 8976TIP3    H248420   5.392   5.730  14.073 -0.6223  0.3982  0.5432
 8977TIP3   OH248421   1.946   5.007   1.682  0.2803  0.2352 -0.3791
 8977TIP3    H148422   1.935   5.083   1.739  0.1424 -0.3008  0.3207
 8977TIP3    H248423   2.040   4.987   1.686 -0.0939 -1.3503  1.7163
 8978TIP3   OH248424   2.390   2.003  13.459 -0.5206  0.1071  0.2772
 8978TIP3    H148425   2.328   2.066  13.496  1.2365  1.0282  1.6696
 8978TIP3    H248426   2.405   2.034  13.370 -1.3007  0.4308  0.2499
 8979TIP3   OH248427   0.465   0.837   1.996  0.2588  0.0951  0.4184
 8979TIP3    H148428   0.474   0.774   1.924  2.0896 -1.3482  1.8758
 8979TIP3    H248429   0.534   0.902   1.980  1.1370 -0.6266  1.2649
 8980TIP3   OH248430   5.346   1.322  14.332 -0.4820 -0.5706  0.2514
 8980TIP3    H148431   5.334   1.365  14.248 -2.3932 -2.4411 -0.4877
 8980TIP3    H248432   5.267   1.345  14.382  0.5347  0.3496  1.4643
 8981TIP3   OH248433   1.240   2.282   1.005  0.2569 -0.4110 -0.1557
 8981TIP3    H148434   1.299   2.210   1.027  0.9799 -0.1413 -1.2308
 8981TIP3    H248435   1.272   2.316   0.922 -0.9682  0.2120 -0.3877
 8982TIP3   OH248436   3.693   3.469  14.938 -0.1813  0.7454 -0.6786
 8982TIP3    H148437   3.769   3.439  14.988  1.0805  3.0621 -1.1182
 8982TIP3    H248438   3.675   3.399  14.876 -1.4947 -2.0130  2.6549
 8983TIP3   OH248439   2.374   5.186  15.784 -0.3467 -0.2054 -0.4458
 8983TIP3    H148440   2.442   5.245  15.754  0.8291 -1.3956 -0.1929
 8983TIP3    H248441   2.406   5.098  15.762 -1.3637 -0.8447  0.5044
 8984TIP3   OH248442   3.678   1.313   5.464 -0.0405 -0.9273  0.6072
 8984TIP3    H148443   3.772   1.318   5.481 -0.2005  2.5706  0.6664
 8984TIP3    H248444   3.647   1.403   5.464 -2.8049 -1.7059 -2.9420
 8985TIP3   OH248445   0.116   4.333  11.773 -0.1150 -0.4260 -0.5325
 8985TIP3    H148446   0.077   4.417  11.750  2.6578  1.9847  2.9940
 8985TIP3    H248447   0.209   4.344  11.753  0.3400 -2.5415  0.2798
 8986TIP3   OH248448   1.083   4.973   2.511 -0.3517 -0.1484 -0.3106
 8986TIP3    H148449   1.144   5.009   2.446 -1.1079  0.0589 -0.9082
 8986TIP3    H248450   1.114   4.884   2.525 -1.4792 -0.9490 -2.6092
 8987TIP3   OH248451   5.602   6.458   1.233 -0.0645 -0.5353  0.2828
 8987TIP3    H148452   5.579   6.376   1.191  1.2073 -1.1806  0.7981
 8987TIP3    H248453   5.610   6.521   1.162 -1.1537 -0.8376 -0.1019
 8988TIP3   OH248454   2.000   6.183   2.409 -0.1535  0.1885  0.2212
 8988TIP3    H148455   2.042   6.121   2.469 -0.2205 -0.1611 -0.0850
 8988TIP3    H248456   2.072   6.214   2.353 -0.1120  0.4243  0.4032
 8989TIP3   OH248457   2.111   4.519  15.310  0.0302  0.4044  0.1078
 8989TIP3    H148458   2.118   4.549  15.220 -1.2874 -2.2412 -0.9313
 8989TIP3    H248459   2.190   4.552  15.353  0.0953  2.6762 -1.6941
 8990TIP3   OH248460   1.871   3.096  16.404 -0.7984  0.2568 -0.4540
 8990TIP3    H148461   1.912   3.113  16.319  0.6925  1.1235  0.4269
 8990TIP3    H248462   1.907   3.011  16.431 -1.0664  0.1063 -0.5762
 8991TIP3   OH248463   3.867   3.796  17.132  0.2237  0.2324 -0.1032
 8991TIP3    H148464   3.773   3.789  17.144 -0.1837  1.9365 -2.0506
 8991TIP3    H248465   3.884   3.891  17.130  1.6093 -0.0256 -2.3579
 8992TIP3   OH248466   5.093   0.608  16.151  0.7324 -0.1084  0.0912
 8992TIP3    H148467   5.067   0.562  16.071 -0.4868  0.0444  0.3900
 8992TIP3    H248468   5.034   0.683  16.156  1.9480  0.8591  0.2176
 8993TIP3   OH248469   0.634   2.020   3.868 -0.3922 -0.5942  0.0179
 8993TIP3    H148470   0.609   2.100   3.821 -1.0079 -0.6103  0.3097
 8993TIP3    H248471   0.635   2.046   3.960 -0.2894 -0.8471  0.0874
 8994TIP3   OH248472   2.733   0.604  13.802 -0.2784 -0.4070 -0.4425
 8994TIP3    H148473   2.743   0.652  13.719  1.6537 -1.0210 -0.5962
 8994TIP3    H248474   2.765   0.516  13.783 -0.9320 -0.8884  0.6561
 8995TIP3   OH248475   2.447   4.560  13.170  0.4821  0.1909 -0.0563
 8995TIP3    H148476   2.429   4.569  13.076 -0.1607 -2.9736 -0.2792
 8995TIP3    H248477   2.379   4.611  13.213  0.6020  1.4113 -1.2720
 8996TIP3   OH248478   2.549   0.776   3.079 -0.1775  0.2316  0.0560
 8996TIP3    H148479   2.483   0.714   3.112  2.2351 -1.1676  2.3810
 8996TIP3    H248480   2.582   0.734   2.999 -0.5144 -0.1343  0.1041
 8997TIP3   OH248481   5.133   6.531  13.518  0.4045  0.2190  0.3648
 8997TIP3    H148482   5.143   6.445  13.478 -0.0082 -0.3284  1.4206
 8997TIP3    H248483   5.186   6.527  13.597 -0.6038  0.5130  1.0621
 8998TIP3   OH248484   2.933   6.710  14.748 -0.0586  0.2359  0.1447
 8998TIP3    H148485   2.946   6.672  14.661 -0.4553 -1.9252  1.0152
 8998TIP3    H248486   3.002   6.777  14.755  0.7892 -0.4660 -1.3199
 8999TIP3   OH248487   3.287   4.814   1.680 -0.3602  0.5777 -0.2488
 8999TIP3    H148488   3.285   4.762   1.600 -2.4974 -0.5297  0.4645
 8999TIP3    H248489   3.239   4.894   1.658 -0.7165  0.3897 -0.1648
 9000TIP3   OH248490   4.119   3.168  10.245 -0.3223  0.2807  0.6261
 9000TIP3    H148491   4.163   3.141  10.325  0.1015  3.2362  1.4790
 9000TIP3    H248492   4.187   3.168  10.178  0.0768  0.8945  1.0217
 9001TIP3   OH248493   0.816   5.590   2.084 -0.0205  0.3434  0.2818
 9001TIP3    H148494   0.793   5.683   2.078  1.3324  0.6095 -0.9914
 9001TIP3    H248495   0.844   5.578   2.174  1.4298  1.5751  0.0235
 9002TIP3   OH248496   4.925   2.249  11.782 -0.0260  0.8745 -0.0989
 9002TIP3    H148497   4.942   2.332  11.738 -0.0621  1.9752  1.8754
 9002TIP3    H248498   5.011   2.209  11.791  0.1508  1.2651 -0.0166
 9003TIP3   OH248499   5.361   3.397  15.844  0.1913 -0.4917  0.1071
 9003TIP3    H148500   5.446   3.374  15.806  0.0912 -1.4765  0.4513
 9003TIP3    H248501   5.315   3.443  15.774  1.3127  0.7996  0.1913
 9004TIP3   OH248502   6.695   0.070  12.980 -0.3678 -0.1460  0.0145
 9004TIP3    H148503   6.757   0.141  12.963  1.3893 -2.0502 -1.9746
 9004TIP3    H248504   6.713   0.006  12.911 -1.2697 -2.9216  2.2352
 9005TIP3   OH248505   2.389   4.911   3.070  0.1888 -0.5107  0.3754
 9005TIP3    H148506   2.403   4.922   2.976 -0.8571 -1.6806  0.0687
 9005TIP3    H248507   2.475   4.886   3.104  0.5708 -0.0779 -0.2621
 9006TIP3   OH248508   2.095   1.389  13.432  0.7347  0.3086 -0.6474
 9006TIP3    H148509   2.125   1.479  13.418  0.2614  0.1891 -2.5898
 9006TIP3    H248510   2.042   1.369  13.355  0.0832 -1.3291  0.1925
 9007TIP3   OH248511   5.378   1.104  14.671 -0.3113  0.6926  0.2159
 9007TIP3    H148512   5.454   1.046  14.668  0.5882  1.8841 -0.3569
 9007TIP3    H248513   5.409   1.187  14.635 -1.5814  1.5379  1.0085
 9008TIP3   OH248514   5.611   0.959  13.694  0.2648  0.3922  0.1343
 9008TIP3    H148515   5.643   0.870  13.683  2.1609  1.0155  0.4404
 9008TIP3    H248516   5.518   0.949  13.715  0.9665 -1.6442  2.4992
 9009TIP3   OH248517   4.331   2.366   4.939 -0.2773  0.3516 -0.5449
 9009TIP3    H148518   4.423   2.366   4.966 -0.4349 -1.5416  0.0221
 9009TIP3    H248519   4.329   2.313   4.859 -0.7406  1.1492 -1.0749
 9010TIP3   OH248520   2.883   1.556   3.158  0.3847  0.4444 -0.1524
 9010TIP3    H148521   2.847   1.625   3.213 -0.1647 -0.7523  1.0371
 9010TIP3    H248522   2.829   1.557   3.079 -0.8884  0.1150  0.6865
 9011TIP3   OH248523   1.581   0.765   0.406  0.5800 -0.5574 -0.0152
 9011TIP3    H148524   1.662   0.758   0.356  0.6433  1.1076 -0.1653
 9011TIP3    H248525   1.594   0.840   0.464 -0.8396 -0.2877 -0.0084
 9012TIP3   OH248526   4.098   5.580  12.886 -0.3785 -0.2132 -0.2668
 9012TIP3    H148527   4.144   5.512  12.836  2.0252  1.1780 -0.0232
 9012TIP3    H248528   4.056   5.634  12.819  0.6629  0.1172 -0.6653
 9013TIP3   OH248529   4.382   0.871   1.270  0.3804 -0.3396 -0.0199
 9013TIP3    H148530   4.337   0.787   1.268 -0.4664  0.1365 -1.3639
 9013TIP3    H248531   4.471   0.851   1.241  0.2019 -0.7851 -0.2675
 9014TIP3   OH248532   3.253   1.203  15.956  0.0404 -0.1244  0.4354
 9014TIP3    H148533   3.297   1.154  15.887  1.0212  1.3281  0.0191
 9014TIP3    H248534   3.167   1.225  15.919  0.8077  1.2045 -0.5687
 9015TIP3   OH248535   4.158   2.642   1.240  0.1093 -0.0090 -0.1202
 9015TIP3    H148536   4.218   2.690   1.184 -1.5052 -1.6482 -3.4248
 9015TIP3    H248537   4.074   2.687   1.230 -0.3169 -0.6182  0.5983
 9016TIP3   OH248538   2.752   3.329   0.995 -0.1668  0.5504  0.6759
 9016TIP3    H148539   2.720   3.319   1.084  0.1408 -0.0707  0.7142
 9016TIP3    H248540   2.694   3.395   0.956 -1.4580 -0.5248  0.7562
 9017TIP3   OH248541   2.466   5.205  14.735  0.2837 -0.2672 -0.4724
 9017TIP3    H148542   2.478   5.226  14.827  2.7258 -0.1094 -0.7795
 9017TIP3    H248543   2.388   5.150  14.732 -0.0958  0.1379  1.6162
 9018TIP3   OH248544   4.088   2.012   6.054  0.0679 -0.0658 -0.0504
 9018TIP3    H148545   4.001   2.018   6.014  0.0582  0.9623  0.1239
 9018TIP3    H248546   4.148   2.033   5.982  0.0862  0.9936  0.2668
 9019TIP3   OH248547   3.191   1.486   1.645  0.5244 -0.4319 -0.1517
 9019TIP3    H148548   3.278   1.473   1.608 -0.3439  1.1675 -2.8585
 9019TIP3    H248549   3.183   1.581   1.654 -0.6366 -0.6135  0.8379
 9020TIP3   OH248550   0.261   5.398   1.307  0.1361  0.4792  0.4964
 9020TIP3    H148551   0.252   5.351   1.390  3.5667 -2.1721 -0.5069
 9020TIP3    H248552   0.220   5.342   1.242 -0.7823  1.6158  0.0717
 9021TIP3   OH248553   5.948   0.716  12.870 -0.7510  0.5616 -0.3372
 9021TIP3    H148554   5.920   0.741  12.958 -0.8217 -1.2347  0.1645
 9021TIP3    H248555   6.013   0.782  12.846 -1.0896  1.3430  0.8639
 9022TIP3   OH248556   0.952   2.662  11.899  0.1785  0.2877  0.1775
 9022TIP3    H148557   0.881   2.615  11.855  1.5660 -2.0240  0.3609
 9022TIP3    H248558   0.983   2.602  11.966  2.9906  0.8550 -0.5617
 9023TIP3   OH248559   4.933   0.566   2.665  0.2015 -0.0625 -0.1392
 9023TIP3    H148560   4.986   0.629   2.616 -1.7730  2.3262  0.7092
 9023TIP3    H248561   4.903   0.504   2.599  1.2885  0.4979 -1.1821
 9024TIP3   OH248562   2.811   5.993  11.491  0.7931  0.1659 -0.2433
 9024TIP3    H148563   2.725   5.953  11.497  1.2809 -0.8185  0.3116
 9024TIP3    H248564   2.862   5.932  11.437  1.0070  0.9778 -0.9678
 9025TIP3   OH248565   1.321   2.073   1.495 -0.2826  0.0851 -0.0408
 9025TIP3    H148566   1.241   2.021   1.493 -1.4769  1.9152 -1.9848
 9025TIP3    H248567   1.320   2.117   1.581 -1.6046  0.4460 -0.2329
 9026TIP3   OH248568   5.575   5.680   0.440  0.5016  0.1877  0.2082
 9026TIP3    H148569   5.485   5.697   0.414  0.6995  0.9616  0.0292
 9026TIP3    H248570   5.625   5.753   0.404  1.0018  0.4847  1.4754
 9027TIP3   OH248571   1.614   1.080   1.471  0.3257  0.3249  0.6600
 9027TIP3    H148572   1.565   1.022   1.529  1.3927  0.6146  1.8930
 9027TIP3    H248573   1.703   1.077   1.505  1.1968 -0.3247 -1.6557
 9028TIP3   OH248574   6.390   5.836  13.832  0.4130  0.5313  0.6240
 9028TIP3    H148575   6.392   5.883  13.915 -1.0564  0.9798  0.4177
 9028TIP3    H248576   6.305   5.793  13.830  1.1815 -1.0286  0.1846
 9029TIP3   OH248577   3.824   5.937  13.695  0.0602  0.1793  0.5356
 9029TIP3    H148578   3.906   5.950  13.744  0.4746  3.4582 -0.8750
 9029TIP3    H248579   3.761   5.909  13.762  1.2191  2.0846  2.5241
 9030TIP3   OH248580   5.708   5.792  12.068 -0.2790  0.2943  0.0453
 9030TIP3    H148581   5.734   5.881  12.044 -0.2449  0.3391  0.2492
 9030TIP3    H248582   5.684   5.798  12.160 -1.9222  0.4569 -0.3709
 9031TIP3   OH248583   5.948   0.678   1.364 -1.1691 -0.2317  0.0482
 9031TIP3    H148584   6.015   0.666   1.297 -0.9206 -3.7578  0.8647
 9031TIP3    H248585   5.875   0.719   1.317 -1.2000 -3.0908 -2.5756
 9032TIP3   OH248586   5.859   2.065  11.743  0.2224 -0.0074  0.1722
 9032TIP3    H148587   5.783   2.007  11.745 -0.2774  0.6223 -0.2556
 9032TIP3    H248588   5.910   2.035  11.667 -0.1507  0.2500 -0.1847
 9033TIP3   OH248589   0.602   4.415  13.895 -0.0226 -0.2433 -0.2742
 9033TIP3    H148590   0.508   4.415  13.909 -0.2849 -0.5199 -1.8749
 9033TIP3    H248591   0.640   4.411  13.983 -1.4695  1.5722  0.4617
 9034TIP3   OH248592   6.157   3.884   5.674 -0.9318 -0.4798 -0.5988
 9034TIP3    H148593   6.220   3.943   5.716 -1.6474  0.2404 -0.5166
 9034TIP3    H248594   6.207   3.840   5.606 -0.6452  1.0159 -1.3731
 9035TIP3   OH248595   3.275   3.470  16.998 -0.0809 -0.5757 -0.2546
 9035TIP3    H148596   3.241   3.523  16.925  1.5145 -0.8398 -1.2185
 9035TIP3    H248597   3.254   3.380  16.974  1.5765 -0.7704 -1.0283
 9036TIP3   OH248598   1.626   6.127  16.261  0.3621  0.2115  0.2846
 9036TIP3    H148599   1.630   6.174  16.344  0.9727 -2.2759  1.7051
 9036TIP3    H248600   1.533   6.116  16.244  0.2009 -2.4630  2.5579
 9037TIP3   OH248601   3.543   5.873   3.774  0.0962  0.4424  0.5284
 9037TIP3    H148602   3.495   5.863   3.692  0.6767  0.9557  0.1175
 9037TIP3    H248603   3.596   5.793   3.780 -0.3498  0.1593  0.6710
 9038TIP3   OH248604   1.912   4.736   2.773  0.6112 -0.3713  0.7043
 9038TIP3    H148605   1.956   4.817   2.800 -1.5583  0.9105  0.5927
 9038TIP3    H248606   1.863   4.708   2.850  0.9284 -1.2684  0.5763
 9039TIP3   OH248607   4.358   2.250  11.870  0.3807  0.4298 -0.0121
 9039TIP3    H148608   4.439   2.286  11.906  1.4939 -0.7229 -1.3058
 9039TIP3    H248609   4.371   2.155  11.871 -2.0677  0.0661  2.3317
 9040TIP3   OH248610   4.469   5.448   3.373 -0.7248  0.2626 -0.4833
 9040TIP3    H148611   4.527   5.473   3.302  1.1706  1.3261  1.3707
 9040TIP3    H248612   4.510   5.370   3.411 -1.8558 -0.4473 -0.6941
 9041TIP3   OH248613   3.162   3.339  12.846 -0.1297 -0.0753 -0.0775
 9041TIP3    H148614   3.242   3.339  12.898 -0.0438  1.4551 -0.1760
 9041TIP3    H248615   3.191   3.327  12.756 -0.2688 -2.6130  0.1957
 9042TIP3   OH248616   3.505   0.359   0.926 -0.0412 -0.2157 -0.5865
 9042TIP3    H148617   3.582   0.329   0.974 -0.4035 -0.7643 -0.3405
 9042TIP3    H248618   3.535   0.368   0.835  0.6973  1.0340 -0.2236
 9043TIP3   OH248619   5.060   3.934   5.713 -0.0707 -0.0496 -0.1492
 9043TIP3    H148620   5.017   3.967   5.792  1.0596  0.1919  0.3795
 9043TIP3    H248621   5.016   3.851   5.694 -0.1654 -0.2468  0.9032
 9044TIP3   OH248622   6.265   3.715   2.652  0.0358 -0.2728 -0.2711
 9044TIP3    H148623   6.313   3.632   2.654 -0.8664 -0.7914 -0.1439
 9044TIP3    H248624   6.183   3.697   2.698 -0.3483  0.5736 -0.6164
 9045TIP3   OH248625   2.851   1.857   5.718  0.0700  0.3938 -0.4053
 9045TIP3    H148626   2.844   1.951   5.735  0.5682  0.1481  1.2060
 9045TIP3    H248627   2.896   1.822   5.794  0.0137 -1.1443 -1.0637
 9046TIP3   OH248628   3.865   4.963   3.046  0.3755  0.4829 -0.8179
 9046TIP3    H148629   3.921   5.010   2.984  0.0282 -0.5080 -1.9149
 9046TIP3    H248630   3.909   4.879   3.058 -0.1170  0.2612 -0.5495
 9047TIP3   OH248631   3.775   6.053   0.143 -0.5244 -0.2611 -0.1314
 9047TIP3    H148632   3.806   6.104   0.068  1.7563 -1.0242  0.2627
 9047TIP3    H248633   3.783   6.113   0.217 -1.6459  0.1019 -0.2991
 9048TIP3   OH248634   5.535   2.141   5.351 -0.0516 -0.0855  0.0912
 9048TIP3    H148635   5.494   2.218   5.311  0.7930  0.2537 -0.1229
 9048TIP3    H248636   5.463   2.079   5.361 -0.9267  1.0640  1.1156
 9049TIP3   OH248637   0.664   3.304  12.117  0.4084 -0.0696 -0.4263
 9049TIP3    H148638   0.627   3.302  12.205  0.1125 -0.0188 -0.5478
 9049TIP3    H248639   0.741   3.361  12.125  0.4395 -0.1446 -0.1810
 9050TIP3   OH248640   3.304   4.516   0.814  0.9041  0.3305  0.2998
 9050TIP3    H148641   3.379   4.556   0.770 -0.4013  3.2852  0.6178
 9050TIP3    H248642   3.241   4.501   0.744  1.1334 -0.5678  0.2848
 9051TIP3   OH248643   3.953   3.496   0.940 -0.1709 -0.1145  0.2399
 9051TIP3    H148644   4.024   3.432   0.935 -0.9215 -1.0370  1.0707
 9051TIP3    H248645   3.990   3.570   0.987 -0.2749 -1.3597  2.3786
 9052TIP3   OH248646   5.477   5.895   2.453  0.0292  0.0382 -0.0127
 9052TIP3    H148647   5.534   5.920   2.526 -1.5476 -0.5705  1.4810
 9052TIP3    H248648   5.529   5.835   2.401  0.1756 -2.0005  2.3693
 9053TIP3   OH248649   1.634   6.333   1.475  0.0228  1.0155  0.3722
 9053TIP3    H148650   1.685   6.413   1.479 -0.8796  1.5483  1.3607
 9053TIP3    H248651   1.598   6.322   1.563  1.1828 -1.1688  0.6161
 9054TIP3   OH248652   3.171   6.428  17.128  0.2986 -0.0236  0.1259
 9054TIP3    H148653   3.142   6.518  17.112 -0.1296 -0.2963 -0.6849
 9054TIP3    H248654   3.265   6.436  17.145  0.0832  0.6736  1.0214
 9055TIP3   OH248655   2.843   0.840  11.502 -0.6847 -0.3484  0.5529
 9055TIP3    H148656   2.777   0.903  11.473 -0.5680 -0.2320  0.5471
 9055TIP3    H248657   2.831   0.765  11.443  0.4681  0.4310 -0.6734
 9056TIP3   OH248658   6.750   1.245   0.650  0.2658 -0.3639 -0.1478
 9056TIP3    H148659   6.778   1.229   0.740  0.2218  2.9350  0.5433
 9056TIP3    H248660   6.672   1.190   0.640  0.8843 -1.5965  1.4506
 9057TIP3   OH248661   1.713   5.290   2.334 -0.4508  0.5148 -0.7331
 9057TIP3    H148662   1.629   5.336   2.329 -1.9305 -1.8037  1.5576
 9057TIP3    H248663   1.770   5.349   2.383 -0.8071  1.9302 -1.9644
 9058TIP3   OH248664   1.791   1.980  16.677  0.3436  0.3373 -0.4172
 9058TIP3    H148665   1.726   2.033  16.632  1.5233  1.8354 -0.3772
 9058TIP3    H248666   1.868   2.036  16.684  1.0815 -0.8209  1.0548
 9059TIP3   OH248667   1.683   3.604   6.454  0.2132  0.1551  0.2432
 9059TIP3    H148668   1.654   3.573   6.368  1.0971  0.7380 -0.2635
 9059TIP3    H248669   1.624   3.560   6.515 -0.3730 -0.3293 -0.6492
 9060TIP3   OH248670   3.825   4.884   1.750 -0.3248  0.2440  0.4688
 9060TIP3    H148671   3.847   4.966   1.705 -0.6887  0.5123  0.7842
 9060TIP3    H248672   3.899   4.826   1.730 -0.3071  0.4787 -0.1757
 9061TIP3   OH248673   4.702   1.398  10.747  0.1440 -0.6588  0.2423
 9061TIP3    H148674   4.612   1.422  10.724 -0.2596 -0.3641  2.0311
 9061TIP3    H248675   4.746   1.481  10.766  0.0162 -0.9693  2.0073
 9062TIP3   OH248676   2.352   3.613   4.712 -0.2136  0.2394 -0.2415
 9062TIP3    H148677   2.398   3.696   4.713 -3.3533  2.0378  0.2184
 9062TIP3    H248678   2.358   3.583   4.621  1.6330  0.5364 -0.2246
 9063TIP3   OH248679   3.453   4.610   4.083  0.3347  0.3795 -0.3947
 9063TIP3    H148680   3.540   4.651   4.081 -0.7028  2.7262  0.2627
 9063TIP3    H248681   3.454   4.554   4.160  1.4016  0.0859 -0.6207
 9064TIP3   OH248682   2.721   1.304  13.637 -0.9505 -0.5275 -0.3720
 9064TIP3    H148683   2.771   1.342  13.709 -0.3494  0.1123 -1.1253
 9064TIP3    H248684   2.704   1.377  13.578 -1.0033 -1.1476 -1.1271
 9065TIP3   OH248685   1.554   0.107   5.819 -0.1819 -0.1853  0.0725
 9065TIP3    H148686   1.480   0.148   5.775 -0.5940 -1.0742 -0.0649
 9065TIP3    H248687   1.525   0.018   5.838  1.2143 -0.8688 -0.9146
 9066TIP3   OH248688   1.154   2.713   1.896  0.1371 -0.3771  0.0926
 9066TIP3    H148689   1.226   2.756   1.943  0.9110 -0.3432 -1.0952
 9066TIP3    H248690   1.184   2.623   1.884 -0.3706 -0.5759  0.2848
 9067TIP3   OH248691   2.707   6.582   3.146 -0.2428  0.4527  0.1356
 9067TIP3    H148692   2.670   6.495   3.150 -0.7399  0.6247 -0.6764
 9067TIP3    H248693   2.797   6.569   3.115 -0.7226  0.3405 -1.2199
 9068TIP3   OH248694   3.089   4.501  14.833 -0.4255 -0.2060 -0.1089
 9068TIP3    H148695   3.117   4.508  14.742  1.3100  1.4525  0.5357
 9068TIP3    H248696   2.997   4.472  14.827 -0.4288  0.1507 -2.3700
 9069TIP3   OH248697   1.467   2.048   6.133  0.3144 -0.1474 -0.0436
 9069TIP3    H148698   1.382   2.005   6.127  0.7525 -0.8666 -1.4155
 9069TIP3    H248699   1.503   2.020   6.217 -0.3423 -0.7088  0.0564
 9070TIP3   OH248700   4.302   3.742   5.181  0.5446  0.0751  0.3253
 9070TIP3    H148701   4.213   3.772   5.200  0.2517 -1.6416  1.8112
 9070TIP3    H248702   4.350   3.757   5.263  1.7700  1.4293 -0.6091
 9071TIP3   OH248703   1.213   6.578   5.071 -0.2206 -0.1953  0.0754
 9071TIP3    H148704   1.137   6.534   5.111  0.5737 -1.2450  0.4669
 9071TIP3    H248705   1.284   6.513   5.078  0.5194  0.4961 -0.9493
 9072TIP3   OH248706   6.210   3.057  11.244  0.0337  0.5626 -0.0544
 9072TIP3    H148707   6.240   3.028  11.157  0.6353  0.0749  0.3100
 9072TIP3    H248708   6.116   3.065  11.235  0.1794  1.3568 -1.0021
 9073TIP3   OH248709   5.160   2.177  15.871  0.4702  0.0605 -0.5911
 9073TIP3    H148710   5.170   2.149  15.780 -0.3920  1.1301 -1.0273
 9073TIP3    H248711   5.072   2.212  15.876  0.5791  0.1858  0.6198
 9074TIP3   OH248712   4.229   1.509   0.638 -0.6932  0.3639  0.3396
 9074TIP3    H148713   4.313   1.553   0.645  0.5132 -1.4555 -2.1834
 9074TIP3    H248714   4.227   1.448   0.712  0.2787  0.2806  0.2964
 9075TIP3   OH248715   3.988   6.067   2.243  0.3444 -0.2918  0.2852
 9075TIP3    H148716   4.072   6.110   2.255  0.9256 -1.9997  2.5856
 9075TIP3    H248717   3.925   6.139   2.237  1.7988  0.9642 -0.3921
 9076TIP3   OH248718   0.995   3.700  10.327 -0.0482  0.3808  1.1646
 9076TIP3    H148719   0.991   3.636  10.398 -0.5738 -1.8541 -0.8281
 9076TIP3    H248720   1.089   3.708  10.309 -0.0390 -0.5347  0.7947
 9077TIP3   OH248721   6.473   3.143  11.093 -0.5110  0.5502 -0.4537
 9077TIP3    H148722   6.523   3.207  11.144 -2.7219  0.5969  1.7913
 9077TIP3    H248723   6.414   3.197  11.040 -0.6550  0.4167 -0.4274
 9078TIP3   OH248724   2.793   4.761   3.092 -0.0529 -0.2430  0.0005
 9078TIP3    H148725   2.885   4.784   3.079  0.1233 -0.6286  0.5013
 9078TIP3    H248726   2.746   4.843   3.085  0.1670 -0.2494 -1.7174
 9079TIP3   OH248727   1.662   6.568  11.989  0.0190 -0.2181 -0.1586
 9079TIP3    H148728   1.623   6.545  11.905  0.3172 -0.8922 -0.1182
 9079TIP3    H248729   1.620   6.510  12.052 -2.2541  2.1875  0.6279
 9080TIP3   OH248730   5.168   6.714   1.890 -0.0738 -0.2045 -0.2091
 9080TIP3    H148731   5.216   6.664   1.956 -0.0544  0.0732 -0.0155
 9080TIP3    H248732   5.218   6.700   1.809  0.6607  0.5483  0.1028
 9081TIP3   OH248733   6.108   1.366   1.416 -0.1556  0.2667 -0.1447
 9081TIP3    H148734   6.116   1.277   1.382 -0.5163  0.8459 -1.7998
 9081TIP3    H248735   6.076   1.354   1.506  1.0538 -1.3044  0.1066
 9082TIP3   OH248736   0.123   1.679  11.283 -1.0694 -0.0734 -0.1299
 9082TIP3    H148737   0.052   1.615  11.292 -1.0609 -0.1846 -0.8090
 9082TIP3    H248738   0.089   1.743  11.221  0.0583 -1.0323 -1.7694
 9083TIP3   OH248739   1.655   0.409   4.898  0.5276  0.0403  0.2116
 9083TIP3    H148740   1.716   0.349   4.942 -0.5528 -0.6944  0.7299
 9083TIP3    H248741   1.677   0.402   4.805 -0.3382 -2.0674  0.1232
 9084TIP3   OH248742   2.934   0.638   2.832 -0.0019  0.4868 -0.3018
 9084TIP3    H148743   2.943   0.732   2.847 -0.3907  0.3927  0.5788
 9084TIP3    H248744   2.913   0.602   2.918 -0.2925 -0.3541 -0.7174
 9085TIP3   OH248745   5.389   3.449  14.505  0.1208  0.2893  0.0328
 9085TIP3    H148746   5.449   3.488  14.441 -0.1194  1.3678  0.4685
 9085TIP3    H248747   5.326   3.518  14.525 -0.0545 -0.1809  1.1311
 9086TIP3   OH248748   1.014   6.560  13.916 -0.3066  0.0379  0.0611
 9086TIP3    H148749   0.936   6.616  13.919  0.0116  0.4252  1.4001
 9086TIP3    H248750   1.038   6.547  14.008  0.9882 -0.3832 -0.3262
 9087TIP3   OH248751   4.950   4.224  13.878 -0.1729 -0.3182  0.2368
 9087TIP3    H148752   4.914   4.210  13.790 -2.0257  1.2640  0.7142
 9087TIP3    H248753   5.044   4.214  13.867 -0.1052  2.5998 -2.5252
 9088TIP3   OH248754   0.935   0.476   0.546 -0.3143 -0.3462  0.5264
 9088TIP3    H148755   0.908   0.559   0.505  0.6018 -0.1535  0.3063
 9088TIP3    H248756   1.019   0.455   0.505 -0.1094 -0.9266  1.2344
 9089TIP3   OH248757   5.066   0.580  11.018  0.0543 -0.2451 -0.1719
 9089TIP3    H148758   5.134   0.645  11.001  0.2306 -0.5331 -0.5733
 9089TIP3    H248759   5.108   0.516  11.075 -0.2159  0.1584  0.4892
 9090TIP3   OH248760   5.623   0.281   4.843 -0.7334  0.1220  0.5438
 9090TIP3    H148761   5.715   0.308   4.848 -0.3152 -1.4296  1.4473
 9090TIP3    H248762   5.615   0.211   4.907 -2.3002 -0.4800 -0.2885
 9091TIP3   OH248763   1.576   1.476   1.312  0.3352  0.6820 -0.1475
 9091TIP3    H148764   1.482   1.461   1.301  0.1450  1.7568 -0.0580
 9091TIP3    H248765   1.618   1.406   1.262 -0.5082 -0.6691  0.9781
 9092TIP3   OH248766   6.432   2.741   5.746 -0.3631  0.2577  0.3065
 9092TIP3    H148767   6.370   2.710   5.679 -0.8786  1.3179  0.2817
 9092TIP3    H248768   6.506   2.774   5.696 -0.4345  0.3879  0.2872
 9093TIP3   OH248769   2.373   4.445   1.667 -0.3559 -0.1649 -0.1783
 9093TIP3    H148770   2.370   4.443   1.571 -2.2040  2.0736 -0.2170
 9093TIP3    H248771   2.447   4.500   1.688 -1.0934  0.9155 -0.3714
 9094TIP3   OH248772   5.652   4.380   3.429  0.7116  0.1013  0.2065
 9094TIP3    H148773   5.674   4.466   3.465 -1.0372  1.5155 -1.9597
 9094TIP3    H248774   5.618   4.332   3.505  0.5440  1.7397  1.2131
 9095TIP3   OH248775   0.284   5.091  12.701 -0.2971 -0.2671  0.2240
 9095TIP3    H148776   0.262   5.063  12.790  1.6659 -1.5114  0.3547
 9095TIP3    H248777   0.226   5.166  12.684 -3.3567 -2.3150  1.1290
 9096TIP3   OH248778   0.214   2.303   3.115 -0.0942  0.5935  0.2324
 9096TIP3    H148779   0.251   2.295   3.027  0.0539  2.5077  0.1105
 9096TIP3    H248780   0.290   2.320   3.171 -0.3686  0.8361  0.5269
 9097TIP3   OH248781   3.565   5.274  11.095 -0.4425  0.1229  0.0139
 9097TIP3    H148782   3.504   5.346  11.113  1.1880  1.3518  0.7182
 9097TIP3    H248783   3.578   5.231  11.180 -0.0069  0.1140 -0.0559
 9098TIP3   OH248784   6.397   1.892   3.776  0.8981  0.2200 -0.3975
 9098TIP3    H148785   6.349   1.846   3.845 -1.3919  0.1376 -1.9848
 9098TIP3    H248786   6.418   1.977   3.814 -0.4625  0.2359  0.3399
 9099TIP3   OH248787   0.221   4.832  15.191  0.1036 -0.2938 -0.2671
 9099TIP3    H148788   0.148   4.860  15.135 -1.4801 -1.7701  1.0118
 9099TIP3    H248789   0.287   4.800  15.129 -0.6783  0.2301 -1.3975
 9100TIP3   OH248790   3.307   0.609  12.491  0.6533 -0.5986  0.3746
 9100TIP3    H148791   3.379   0.666  12.465  0.2665  0.1371  0.9010
 9100TIP3    H248792   3.322   0.591  12.584 -0.9375  1.2070  1.0039
 9101TIP3   OH248793   0.886   5.859  10.516 -0.4664  0.2092  0.4189
 9101TIP3    H148794   0.938   5.841  10.595  1.5810 -0.1628 -0.9787
 9101TIP3    H248795   0.947   5.845  10.444 -2.0746  1.4104 -1.2067
 9102TIP3   OH248796   6.373   4.577   1.856 -0.7904  0.1207  0.2127
 9102TIP3    H148797   6.394   4.486   1.878 -0.5850  0.1525  0.1486
 9102TIP3    H248798   6.447   4.628   1.890 -0.6323  0.2059 -0.2450
 9103TIP3   OH248799   1.144   5.397   2.237 -0.0975  0.5452  0.1364
 9103TIP3    H148800   1.117   5.355   2.155  0.6796 -0.8269  0.5596
 9103TIP3    H248801   1.193   5.474   2.210  0.5515 -0.1521 -0.7045
 9104TIP3   OH248802   2.446   1.983  15.902 -0.6173  0.5714 -0.0409
 9104TIP3    H148803   2.404   1.909  15.859  0.3930 -0.6535  1.0370
 9104TIP3    H248804   2.390   2.001  15.978 -0.5398  0.5265  0.0274
 9105TIP3   OH248805   2.317   4.098  11.664  0.2357 -0.2603 -0.5383
 9105TIP3    H148806   2.249   4.084  11.730  0.3205  1.4119 -0.0757
 9105TIP3    H248807   2.270   4.141  11.591  0.1600 -2.0025 -1.5277
 9106TIP3   OH248808   3.059   0.302   2.812 -0.2989  0.2976 -0.6234
 9106TIP3    H148809   3.130   0.354   2.851  0.6134 -0.1474 -1.6640
 9106TIP3    H248810   3.011   0.364   2.758 -0.7886  0.6320  0.1924
 9107TIP3   OH248811   0.522   1.497  13.724 -0.0633 -0.4083 -0.4038
 9107TIP3    H148812   0.481   1.499  13.638 -0.2594  2.5948 -0.3006
 9107TIP3    H248813   0.595   1.436  13.715  0.7701  0.9135 -3.1045
 9108TIP3   OH248814   6.583   1.534   1.775 -0.1413  0.1968  0.2847
 9108TIP3    H148815   6.674   1.538   1.806 -1.2115  1.8790  3.5157
 9108TIP3    H248816   6.537   1.488   1.845 -2.2150  1.6747 -0.0737
 9109TIP3   OH248817   4.768   4.979   5.685  0.5261  0.2634  0.3780
 9109TIP3    H148818   4.709   5.042   5.726 -2.4687 -1.2819 -1.3056
 9109TIP3    H248819   4.769   5.005   5.592  0.7959 -0.9949  0.0219
 9110TIP3   OH248820   5.832   2.191   3.731 -0.1101 -0.2348  0.8801
 9110TIP3    H148821   5.846   2.254   3.661  1.0553 -0.4193  0.9285
 9110TIP3    H248822   5.774   2.125   3.693  0.2930 -0.1862  0.1683
 9111TIP3   OH248823   2.265   2.183  14.671 -0.5100 -0.2877  0.2054
 9111TIP3    H148824   2.341   2.235  14.698 -0.1655 -0.5262 -0.2944
 9111TIP3    H248825   2.197   2.248  14.653 -0.3055 -0.0483  0.2947
 9112TIP3   OH248826   2.961   4.907  13.136 -0.1439  0.3867 -0.2824
 9112TIP3    H148827   3.006   4.825  13.113 -1.0997 -0.5403  1.0633
 9112TIP3    H248828   2.972   4.914  13.231 -0.3747  1.6472 -0.3466
 9113TIP3   OH248829   0.438   2.657   2.143  0.1783 -0.3563  0.1588
 9113TIP3    H148830   0.493   2.713   2.198 -0.0854  1.3412 -1.2618
 9113TIP3    H248831   0.360   2.640   2.195 -0.3912  1.8330  0.0439
 9114TIP3   OH248832   6.227   1.261  16.992  0.2568  0.0026  0.1367
 9114TIP3    H148833   6.202   1.353  17.000  1.9364  0.5126 -0.2019
 9114TIP3    H248834   6.237   1.247  16.898  1.5901 -0.0858  0.2889
 9115TIP3   OH248835   5.230   3.786   2.393 -0.3683  0.0962 -0.1433
 9115TIP3    H148836   5.204   3.706   2.348 -0.8720  1.3068 -2.0391
 9115TIP3    H248837   5.147   3.826   2.419 -0.1055 -0.1735  1.1379
 9116TIP3   OH248838   4.713   6.674  11.848  0.3490  0.3179 -0.2832
 9116TIP3    H148839   4.664   6.756  11.853  0.3531  0.4333 -1.9065
 9116TIP3    H248840   4.766   6.683  11.769  0.9239 -0.9371 -0.0414
 9117TIP3   OH248841   5.008   4.349  12.573  0.1195  0.1787  0.5223
 9117TIP3    H148842   5.024   4.442  12.588 -1.2426  0.5028  0.0029
 9117TIP3    H248843   4.926   4.346  12.524 -0.5863 -1.3465  1.7352
 9118TIP3   OH248844   0.204   2.617  16.196 -0.7189  0.5502 -0.2492
 9118TIP3    H148845   0.171   2.654  16.114  0.1466 -0.5912 -1.1313
 9118TIP3    H248846   0.293   2.651  16.203  0.6812 -2.5280 -1.8906
 9119TIP3   OH248847   3.493   1.578   0.959  0.1828 -0.7690  0.0283
 9119TIP3    H148848   3.532   1.643   0.900 -1.0152 -0.4189 -0.3979
 9119TIP3    H248849   3.444   1.631   1.023 -2.3035 -1.2875 -1.3918
 9120TIP3   OH248850   1.409   0.610   4.017  0.3785 -0.4608 -0.2224
 9120TIP3    H148851   1.354   0.565   4.081 -3.0963  2.4589 -0.9484
 9120TIP3    H248852   1.449   0.682   4.065  0.6201 -0.3952 -0.5169
 9121TIP3   OH248853   3.624   2.287   0.840  0.4944 -0.1069  0.2050
 9121TIP3    H148854   3.579   2.306   0.757  0.6776 -0.0813  0.1127
 9121TIP3    H248855   3.716   2.281   0.817  0.6082  0.4539  0.5044
 9122TIP3   OH248856   3.043   0.145  15.534  0.0835 -0.4204  0.0976
 9122TIP3    H148857   2.948   0.150  15.538  0.0180  0.5720 -1.9931
 9122TIP3    H248858   3.062   0.134  15.440  1.9865 -1.3336  0.5750
 9123TIP3   OH248859   4.824   1.954  13.236 -0.3398 -0.0707 -0.7168
 9123TIP3    H148860   4.761   2.013  13.277 -0.9956 -1.6013  0.5102
 9123TIP3    H248861   4.772   1.900  13.178 -0.4445 -2.3999  1.4690
 9124TIP3   OH248862   1.017   3.449  15.342 -0.1158  0.3300  0.3759
 9124TIP3    H148863   1.062   3.497  15.412  0.7386 -0.6301  0.4989
 9124TIP3    H248864   1.072   3.371  15.328 -2.6892 -1.8417  1.8404
 9125TIP3   OH248865   5.806   6.213  11.504  0.0334 -0.4554  0.2638
 9125TIP3    H148866   5.746   6.159  11.555 -0.0591 -0.1219  0.5064
 9125TIP3    H248867   5.785   6.192  11.413  0.0546 -0.8900  0.3589
 9126TIP3   OH248868   0.121   2.631   4.162  0.9762 -0.4413 -0.5372
 9126TIP3    H148869   0.146   2.582   4.241 -0.7501 -1.5582 -0.6539
 9126TIP3    H248870   0.049   2.580   4.124  0.6400  1.0129 -1.8908
 9127TIP3   OH248871   5.216   2.979  14.988  0.1446  0.5850 -0.1642
 9127TIP3    H148872   5.124   2.981  14.961 -0.2524  1.4487  1.1848
 9127TIP3    H248873   5.258   3.047  14.936 -0.2291  0.9834  0.0506
 9128TIP3   OH248874   0.438   4.693  13.888  0.4440  0.0604 -0.7368
 9128TIP3    H148875   0.525   4.721  13.862  1.1283 -1.5604 -0.2998
 9128TIP3    H248876   0.447   4.669  13.981 -0.2771 -0.8131 -0.8869
 9129TIP3   OH248877   2.098   5.839   1.571  0.1318 -0.1491 -0.2105
 9129TIP3    H148878   2.060   5.822   1.657  2.5139 -1.0825  0.6878
 9129TIP3    H248879   2.105   5.753   1.530  1.4642 -0.0070 -0.2875
 9130TIP3   OH248880   0.729   2.059  16.173  0.1683  0.1038 -0.1004
 9130TIP3    H148881   0.645   2.081  16.133  0.6737 -0.1412 -1.3396
 9130TIP3    H248882   0.736   1.964  16.164 -0.4292 -0.1582  2.0489
 9131TIP3   OH248883   1.373   1.468  14.313 -0.4169  0.5324 -0.3029
 9131TIP3    H148884   1.373   1.461  14.217  0.9450  0.0122 -0.2726
 9131TIP3    H248885   1.459   1.437  14.339 -1.5778 -1.5243  1.2447
 9132TIP3   OH248886   5.175   4.759   3.110  0.3605  0.2106  0.2181
 9132TIP3    H148887   5.241   4.828   3.103  0.2076  0.3446  0.0735
 9132TIP3    H248888   5.097   4.797   3.068  0.5304 -0.3782 -0.6503
 9133TIP3   OH248889   5.212   2.987   1.155 -0.1815  0.3340 -0.6786
 9133TIP3    H148890   5.129   2.995   1.109 -0.4423  0.1193 -0.2489
 9133TIP3    H248891   5.205   2.905   1.203  0.4196  0.1393 -0.9219
 9134TIP3   OH248892   6.402   6.549  14.699 -0.3319 -0.8115  0.1903
 9134TIP3    H148893   6.357   6.540  14.783 -0.0533 -1.0621  0.3098
 9134TIP3    H248894   6.493   6.527  14.717  0.3313  1.9526  0.4365
 9135TIP3   OH248895   1.106   3.717  14.433 -0.3920 -0.0636 -0.3527
 9135TIP3    H148896   1.089   3.768  14.512 -2.8386 -2.8335  0.9962
 9135TIP3    H248897   1.030   3.734  14.377  0.1820  0.0364 -1.0980
 9136TIP3   OH248898   5.065   3.321  17.081  0.2745  0.5873 -0.1159
 9136TIP3    H148899   5.052   3.227  17.090 -0.1955  0.5873 -0.7252
 9136TIP3    H248900   5.037   3.357  17.165 -0.8143  0.3018 -0.3474
 9137TIP3   OH248901   3.235   4.184   5.089 -0.3304 -0.3521 -0.4876
 9137TIP3    H148902   3.215   4.147   5.175 -1.2756 -1.2751 -1.0916
 9137TIP3    H248903   3.150   4.207   5.053  0.2476  2.4521 -0.1291
 9138TIP3   OH248904   1.691   3.770  11.642  0.0305 -0.1274 -0.4907
 9138TIP3    H148905   1.740   3.831  11.697 -1.0292  0.5130 -0.2535
 9138TIP3    H248906   1.627   3.825  11.596  0.3028 -0.7825 -1.6910
 9139TIP3   OH248907   6.047   1.887   2.404  0.0077 -0.2307  0.1213
 9139TIP3    H148908   6.070   1.972   2.368  1.2517 -0.3899  0.5052
 9139TIP3    H248909   6.065   1.895   2.498  2.7851 -1.7386 -0.2192
 9140TIP3   OH248910   4.005   6.415  14.782 -0.4301 -0.1315  0.3989
 9140TIP3    H148911   3.976   6.329  14.812 -1.2904  0.2025  0.5403
 9140TIP3    H248912   3.924   6.462  14.762  0.0280  0.7193  0.5133
 9141TIP3   OH248913   5.889   0.042  13.582 -0.0403  0.0180  0.8728
 9141TIP3    H148914   5.955  -0.016  13.544 -0.2801  0.1621  0.2262
 9141TIP3    H248915   5.862  -0.001  13.663 -0.3856 -0.8868  0.2828
 9142TIP3   OH248916   4.967   2.488  13.747 -0.1489  0.6926 -0.9231
 9142TIP3    H148917   4.997   2.402  13.778  0.8285  0.4348 -2.5691
 9142TIP3    H248918   5.030   2.550  13.783 -1.1059  0.7923  0.6375
 9143TIP3   OH248919   3.898   3.078  11.411 -0.0113  0.0486  0.1675
 9143TIP3    H148920   3.953   3.039  11.343  0.7197  1.4386 -0.0451
 9143TIP3    H248921   3.959   3.105  11.479 -0.6155 -0.0663  0.7572
 9144TIP3   OH248922   2.442   3.357   0.500 -0.3107  0.1438  0.2623
 9144TIP3    H148923   2.418   3.416   0.571  0.4308  0.6757  0.0831
 9144TIP3    H248924   2.537   3.349   0.507 -0.5382 -2.1696  1.1549
 9145TIP3   OH248925   1.547   3.028  12.282  0.5391 -0.1672 -0.6620
 9145TIP3    H148926   1.633   3.029  12.325  0.1000  0.1704  0.2150
 9145TIP3    H248927   1.555   3.092  12.211 -0.1033  2.6422  1.6758
 9146TIP3   OH248928   0.192   1.885  15.581  0.1941 -0.3228 -0.3301
 9146TIP3    H148929   0.202   1.868  15.487  2.0728 -0.8417 -0.0720
 9146TIP3    H248930   0.238   1.812  15.623 -0.5937 -0.0643  0.9893
 9147TIP3   OH248931   5.876   2.927  14.208 -0.0051  0.0906  0.5589
 9147TIP3    H148932   5.915   2.843  14.182  0.9628  0.2274  1.5238
 9147TIP3    H248933   5.800   2.903  14.260  0.8504 -0.2166  1.6984
 9148TIP3   OH248934   0.346   2.101   4.075 -0.4651  0.5861 -0.9760
 9148TIP3    H148935   0.386   2.015   4.065  0.9547  0.8202  2.0881
 9148TIP3    H248936   0.417   2.163   4.057 -0.4869  1.0530  0.5120
 9149TIP3   OH248937   0.971   4.090  11.786 -0.8063  0.0092  0.1817
 9149TIP3    H148938   1.044   4.069  11.845  0.7274  0.7055 -1.4119
 9149TIP3    H248939   0.956   4.184  11.799  2.7469  1.3336 -3.8457
 9150TIP3   OH248940   6.038   6.635   4.540  0.1752 -1.0921  0.0233
 9150TIP3    H148941   6.021   6.675   4.455  0.0677 -0.9060  0.1332
 9150TIP3    H248942   5.974   6.564   4.546 -0.8998 -0.0995  0.6376
 9151TIP3   OH248943   2.353   4.471  16.689 -0.5643  0.4390 -0.1581
 9151TIP3    H148944   2.266   4.456  16.653 -0.6934  0.2853  0.2149
 9151TIP3    H248945   2.367   4.398  16.750 -0.7878  1.2715  0.9043
 9152TIP3   OH248946   1.316   1.074  16.773  0.7531  0.3704  0.2361
 9152TIP3    H148947   1.380   1.037  16.713  0.1828 -0.2244 -0.0140
 9152TIP3    H248948   1.341   1.040  16.859  2.7712  2.8220  0.6746
 9153TIP3   OH248949   0.228   0.143  13.509  0.3012  0.1620  0.2259
 9153TIP3    H148950   0.241   0.060  13.555  0.7790  0.0618 -0.0924
 9153TIP3    H248951   0.311   0.190  13.520  0.8529 -0.3583 -1.5515
 9154TIP3   OH248952   4.367   2.197  14.175  0.0034 -0.0596  0.2252
 9154TIP3    H148953   4.453   2.225  14.204  0.1498 -1.1915  0.9257
 9154TIP3    H248954   4.343   2.126  14.235 -1.1340 -0.1916 -0.3593
 9155TIP3   OH248955   0.411   1.132  16.557  0.2806 -0.1654 -0.0392
 9155TIP3    H148956   0.466   1.058  16.583  0.9246  0.5696  0.6982
 9155TIP3    H248957   0.332   1.091  16.521  0.4216 -1.2194  0.8098
 9156TIP3   OH248958   4.180   3.486   4.329 -0.3266  0.7400  0.0855
 9156TIP3    H148959   4.126   3.475   4.407  0.0782  0.0621  0.2741
 9156TIP3    H248960   4.227   3.403   4.320 -1.1664  0.4118 -1.4897
 9157TIP3   OH248961   4.952   2.782  12.586  0.3780  0.3546  0.0292
 9157TIP3    H148962   5.000   2.710  12.628  0.2590 -0.3303 -0.9926
 9157TIP3    H248963   4.986   2.861  12.628  0.2274 -0.3208  1.4497
 9158TIP3   OH248964   2.612   5.043   4.088  0.0737  0.3593  0.0800
 9158TIP3    H148965   2.595   5.068   3.997 -1.9154  0.4592  0.4519
 9158TIP3    H248966   2.562   5.106   4.140 -0.1778 -0.7339  1.1968
 9159TIP3   OH248967   4.491   5.535   1.276  0.1114  0.9688  0.6546
 9159TIP3    H148968   4.397   5.515   1.272  0.5005 -0.9141  0.3415
 9159TIP3    H248969   4.508   5.585   1.196  0.0592 -1.9257 -1.2580
 9160TIP3   OH248970   5.945   1.402  13.545  0.1113 -0.2330  0.8928
 9160TIP3    H148971   5.934   1.355  13.462  0.7022  0.9423  0.1224
 9160TIP3    H248972   5.953   1.333  13.611  1.9144 -1.2552 -0.3160
 9161TIP3   OH248973   2.519   1.479   5.434  0.3180  0.2517  0.3279
 9161TIP3    H148974   2.457   1.407   5.440  1.0850 -0.4318  0.1340
 9161TIP3    H248975   2.464   1.557   5.419 -0.5174 -0.2638  0.6792
 9162TIP3   OH248976   0.048   6.349   3.325 -0.2415  0.0140 -0.1640
 9162TIP3    H148977   0.119   6.336   3.387  0.9108  3.0385 -0.7566
 9162TIP3    H248978   0.072   6.297   3.249 -0.2733 -1.4857  0.8216
 9163TIP3   OH248979   5.823   5.465   0.248  0.0371  0.1158 -0.3408
 9163TIP3    H148980   5.797   5.543   0.199 -1.4411  1.2567  2.1971
 9163TIP3    H248981   5.778   5.472   0.331 -0.7873 -3.9001 -0.3408
 9164TIP3   OH248982   5.586   5.422   4.790  0.0874 -0.1341  0.7199
 9164TIP3    H148983   5.544   5.429   4.705  2.7289  0.2663 -0.6136
 9164TIP3    H248984   5.547   5.492   4.842 -0.8506  0.2333 -0.4571
 9165TIP3   OH248985   0.833   4.101   3.096  0.0539 -0.1761  0.4093
 9165TIP3    H148986   0.864   4.014   3.119  1.7870  1.1563  3.4169
 9165TIP3    H248987   0.738   4.096   3.104  0.2384 -1.4389  1.8455
 9166TIP3   OH248988   5.724   6.336   0.699 -0.0448  0.2424  0.1056
 9166TIP3    H148989   5.802   6.322   0.753 -0.7657  1.1023  1.3966
 9166TIP3    H248990   5.656   6.282   0.739  0.0386 -1.0738 -1.4472
 9167TIP3   OH248991   4.170   5.897  15.192  0.7993 -0.2537 -0.0240
 9167TIP3    H148992   4.245   5.853  15.233 -0.4895 -1.0847  1.5213
 9167TIP3    H248993   4.208   5.971  15.146  2.5674 -0.5748  0.8643
 9168TIP3   OH248994   3.673   2.216   5.435  0.8685 -0.2611 -0.5409
 9168TIP3    H148995   3.709   2.147   5.379  0.1118 -0.6300 -0.5809
 9168TIP3    H248996   3.688   2.297   5.386  1.5884 -0.4149 -0.5796
 9169TIP3   OH248997   4.420   2.966  11.877 -0.1546  0.5411 -0.6079
 9169TIP3    H148998   4.358   2.898  11.852 -1.3691  1.3932  0.0323
 9169TIP3    H248999   4.391   2.995  11.964  1.8570  0.1192  0.2457
 9170TIP3   OH249000   6.381   2.093   0.161 -0.0836 -0.0839  0.4279
 9170TIP3    H149001   6.360   2.009   0.201  0.0883 -0.6423 -0.6487
 9170TIP3    H249002   6.476   2.102   0.171 -0.0433 -0.2150  0.1712
 9171TIP3   OH249003   6.311   4.747  13.844  0.1075 -0.4457 -0.0804
 9171TIP3    H149004   6.403   4.741  13.818  0.4086  0.4951  0.7270
 9171TIP3    H249005   6.275   4.661  13.824  1.3113 -1.0081  0.1264
 9172TIP3   OH249006   1.432   2.325   2.524 -0.2203 -0.5591 -0.9215
 9172TIP3    H149007   1.436   2.243   2.573  0.7473 -0.2561 -0.4829
 9172TIP3    H249008   1.340   2.352   2.530 -0.7395 -2.0682 -1.8549
 9173TIP3   OH249009   6.593   0.417  11.781 -0.2173  0.3122 -0.8318
 9173TIP3    H149010   6.506   0.432  11.743 -0.2644 -0.4266 -1.0292
 9173TIP3    H249011   6.627   0.341  11.733 -0.6724 -1.2588  1.2712
 9174TIP3   OH249012   6.019   5.680  12.294  0.4182 -0.2736 -0.6216
 9174TIP3    H149013   6.077   5.653  12.223  0.7218  0.5864 -0.7130
 9174TIP3    H249014   5.974   5.757  12.260  0.1059 -0.2287 -0.1124
 9175TIP3   OH249015   1.782   2.955   3.029 -0.1372 -0.3878  0.0700
 9175TIP3    H149016   1.839   2.972   2.954  0.6627  0.0152  0.7698
 9175TIP3    H249017   1.750   3.041   3.055 -0.6925 -0.5627 -0.0138
 9176TIP3   OH249018   2.163   2.773  12.982 -0.0636 -0.0649 -0.3691
 9176TIP3    H149019   2.176   2.841  12.915 -2.6647  1.1809  0.3352
 9176TIP3    H249020   2.177   2.819  13.065  0.1315 -0.8931  0.0623
 9177TIP3   OH249021   1.089   0.735  11.081  0.2341 -0.1736  0.1664
 9177TIP3    H149022   1.060   0.824  11.102 -0.0900 -0.5764  1.4997
 9177TIP3    H249023   1.019   0.679  11.115  0.6018 -0.9547 -0.3542
 9178TIP3   OH249024   3.180   4.780  17.284  0.3204  0.4632 -0.1790
 9178TIP3    H149025   3.208   4.689  17.288 -0.4183  0.2249 -0.4882
 9178TIP3    H249026   3.113   4.788  17.352  0.2472  0.7308 -0.2793
 9179TIP3   OH249027   4.020   6.210   4.844  0.4773  0.1461 -0.5515
 9179TIP3    H149028   4.045   6.229   4.935  1.9547 -0.8803 -0.7095
 9179TIP3    H249029   4.055   6.283   4.794  1.5828 -0.3567 -0.5378
 9180TIP3   OH249030   0.061   0.929  14.425 -0.1198  0.6951  0.0080
 9180TIP3    H149031   0.049   0.992  14.496 -1.2632 -0.6229  1.0294
 9180TIP3    H249032   0.154   0.906  14.428  0.2979  2.2894 -0.3553
 9181TIP3   OH249033   5.567   2.658  15.773 -0.0429 -0.1160 -0.1560
 9181TIP3    H149034   5.654   2.683  15.742  0.7676 -2.0667  0.4402
 9181TIP3    H249035   5.523   2.624  15.694  0.2423 -0.4232 -0.1850
 9182TIP3   OH249036   5.336   2.404  15.849 -0.2309  0.0108  0.0943
 9182TIP3    H149037   5.299   2.436  15.767  2.1865  0.2270 -0.9557
 9182TIP3    H249038   5.281   2.330  15.873  0.0701 -1.1747 -2.6731
 9183TIP3   OH249039   6.319   0.893   0.229  0.5579  0.2490 -0.6822
 9183TIP3    H149040   6.384   0.845   0.178  1.4151 -0.0939  0.7048
 9183TIP3    H249041   6.351   0.889   0.319 -0.9576  0.7897 -0.0979
 9184TIP3   OH249042   0.518   0.282  16.924 -0.1169  0.0945 -0.0852
 9184TIP3    H149043   0.454   0.333  16.875 -1.9439 -0.5723  1.5307
 9184TIP3    H249044   0.562   0.346  16.980  2.0287  0.8668 -2.5695
 9185TIP3   OH249045   5.743   0.725  10.877  0.0765  0.0812 -0.1041
 9185TIP3    H149046   5.784   0.751  10.794  1.1179  0.5115  0.5265
 9185TIP3    H249047   5.817   0.693  10.930 -0.4551  0.6348  0.9700
 9186TIP3   OH249048   5.359   0.619  12.752 -0.2665  0.0500  0.2789
 9186TIP3    H149049   5.453   0.638  12.747 -0.5714  1.6710  0.4155
 9186TIP3    H249050   5.343   0.558  12.680  0.5996  1.0177 -0.7446
 9187TIP3   OH249051   6.562   6.534   5.487  0.3935 -0.2524  0.8710
 9187TIP3    H149052   6.575   6.610   5.431 -1.1258  0.4472  1.4490
 9187TIP3    H249053   6.607   6.463   5.442  3.0806  1.2878  1.0383
 9188TIP3   OH249054   0.905   4.705  15.099 -0.3143 -0.4401 -0.2931
 9188TIP3    H149055   0.880   4.620  15.063 -0.5198 -1.0884  1.3472
 9188TIP3    H249056   0.876   4.702  15.190  0.2162  1.1602 -0.0585
 9189TIP3   OH249057   1.216   2.778  10.895 -0.2412  0.1903  0.2436
 9189TIP3    H149058   1.281   2.717  10.928 -0.3651 -0.5883 -0.9259
 9189TIP3    H249059   1.138   2.761  10.949  0.0538  0.0683  0.6345
 9190TIP3   OH249060   4.179   6.785  14.365 -0.0854  0.3143  0.4306
 9190TIP3    H149061   4.140   6.737  14.439 -1.0889 -0.7768 -0.7720
 9190TIP3    H249062   4.231   6.719  14.320 -0.4375  0.6747 -0.5080
 9191TIP3   OH249063   4.771   2.592   5.221 -0.4507 -0.3826  0.0036
 9191TIP3    H149064   4.789   2.529   5.151  1.8569  1.0840 -0.7797
 9191TIP3    H249065   4.825   2.562   5.294  0.9949  0.9375 -0.5215
 9192TIP3   OH249066   3.782   4.185  13.911  0.4987  0.4095  0.5653
 9192TIP3    H149067   3.804   4.269  13.870  3.5774 -1.3830 -1.5312
 9192TIP3    H249068   3.691   4.169  13.885  0.6202  1.9660 -0.8892
 9193TIP3   OH249069   2.821   6.424  16.847  0.2265 -0.2866 -0.9638
 9193TIP3    H149070   2.777   6.437  16.931  1.3773  0.8150 -0.5165
 9193TIP3    H249071   2.864   6.507  16.829 -0.8876 -0.1606 -3.1845
 9194TIP3   OH249072   5.917   4.606   0.407 -0.2964 -0.1257 -0.3178
 9194TIP3    H149073   5.907   4.583   0.499  0.9185  0.5288 -0.0008
 9194TIP3    H249074   5.937   4.523   0.364  1.3803 -0.1238  0.3904
 9195TIP3   OH249075   6.732   4.279  12.922  0.2620  0.4146 -0.3563
 9195TIP3    H149076   6.657   4.219  12.926  0.3799  0.2563 -0.5459
 9195TIP3    H249077   6.709   4.349  12.984 -0.5834  0.9948 -1.3068
 9196TIP3   OH249078   1.929   6.361   4.762 -0.0831  0.4799  0.1562
 9196TIP3    H149079   2.022   6.383   4.756 -0.0619  0.2292 -0.4968
 9196TIP3    H249080   1.885   6.434   4.718 -0.3221  1.4699  1.9806
 9197TIP3   OH249081   6.297   5.380   2.056  0.0091  0.1543 -0.0529
 9197TIP3    H149082   6.376   5.389   2.003 -0.1780  2.0873 -0.0291
 9197TIP3    H249083   6.325   5.399   2.145 -0.1840 -0.6946  0.1976
 9198TIP3   OH249084   2.723   4.658   5.620  0.2438  0.5185  0.2692
 9198TIP3    H149085   2.679   4.593   5.675  0.7820 -1.4280 -1.5096
 9198TIP3    H249086   2.810   4.667   5.659  0.9188 -1.4828 -0.6797
 9199TIP3   OH249087   3.208   0.466   3.834  0.1237  0.2409 -0.2683
 9199TIP3    H149088   3.198   0.468   3.739 -0.1226 -3.3712 -0.3633
 9199TIP3    H249089   3.239   0.378   3.854 -1.1502  0.4690  3.1175
 9200TIP3   OH249090   2.744   0.253  16.593  0.5700 -0.1053  0.2175
 9200TIP3    H149091   2.831   0.254  16.555  0.7120  0.2813  0.5547
 9200TIP3    H249092   2.707   0.169  16.566 -0.4920  1.4452 -3.4212
 9201TIP3   OH249093   5.137   2.727   5.628 -0.1252  0.1677 -0.2299
 9201TIP3    H149094   5.140   2.770   5.542  0.2832 -1.5783 -1.1176
 9201TIP3    H249095   5.158   2.797   5.690 -2.8926  2.0669 -1.2959
 9202TIP3   OH249096   0.024   2.089  16.945  0.1953 -0.8811  0.0235
 9202TIP3    H149097   0.008   2.146  16.870  0.0124 -0.5557  0.3028
 9202TIP3    H249098   0.074   2.016  16.910  1.0744 -0.1810 -0.2101
 9203TIP3   OH249099   3.917   0.514   4.321 -0.0907  0.0761  0.2916
 9203TIP3    H149100   3.940   0.579   4.254  0.1805  0.7060  0.9953
 9203TIP3    H249101   3.895   0.565   4.399 -2.5174 -0.5742  0.0784
 9204TIP3   OH249102   5.185   4.993  15.016 -0.2381 -0.0912 -0.5676
 9204TIP3    H149103   5.224   5.029  15.095 -1.7400  0.9794 -0.2972
 9204TIP3    H249104   5.236   4.913  14.998 -0.1658 -0.5852  1.7121
 9205TIP3   OH249105   6.373   3.002  13.869 -0.4785  0.1845  0.1457
 9205TIP3    H149106   6.381   2.980  13.776  0.8287  0.8384  0.1019
 9205TIP3    H249107   6.370   3.098  13.871 -4.1536  0.1410  0.5052
 9206TIP3   OH249108   3.925   2.509  15.520 -0.2016 -0.1360 -0.0525
 9206TIP3    H149109   4.010   2.539  15.552  0.0513 -0.1872 -0.6690
 9206TIP3    H249110   3.910   2.427  15.567 -0.7953  0.8228  1.4711
 9207TIP3   OH249111   2.253   3.307  10.962  0.5606  0.4866  0.0209
 9207TIP3    H149112   2.270   3.350  10.878 -0.4571 -1.3769 -1.1772
 9207TIP3    H249113   2.162   3.327  10.981  0.0407 -1.2094 -0.6156
 9208TIP3   OH249114   2.358   3.529  12.888  0.2835  0.3986 -0.4317
 9208TIP3    H149115   2.342   3.592  12.818  0.4613 -1.5224 -2.2610
 9208TIP3    H249116   2.275   3.522  12.934 -0.4071  0.2638 -1.6677
 9209TIP3   OH249117   4.274   4.761  14.077  0.0876  0.3474 -0.7694
 9209TIP3    H149118   4.278   4.698  14.150  1.2178  1.5794  0.2637
 9209TIP3    H249119   4.183   4.759  14.048  0.1498 -1.9148 -0.8855
 9210TIP3   OH249120   2.605   2.991  12.667 -0.7269  0.2751 -0.1581
 9210TIP3    H149121   2.582   2.906  12.630 -0.8144 -0.3048  1.2270
 9210TIP3    H249122   2.526   3.019  12.713 -0.3660  0.6574  0.2282
 9211TIP3   OH249123   2.264   3.787   1.773  0.2002 -0.1103  0.1505
 9211TIP3    H149124   2.304   3.731   1.839 -0.3024  2.4784  2.7850
 9211TIP3    H249125   2.180   3.745   1.753  0.7460 -1.3898  0.5535
 9212TIP3   OH249126   2.921   5.254   6.162  0.9675 -0.6299  0.0592
 9212TIP3    H149127   2.878   5.236   6.246  0.5791 -1.0178 -0.2238
 9212TIP3    H249128   2.863   5.317   6.119  1.2974 -0.2332  0.1867
 9213TIP3   OH249129   3.196   4.168  13.265 -0.8295  0.1113 -0.1358
 9213TIP3    H149130   3.136   4.104  13.302 -0.4551 -1.2155 -1.7507
 9213TIP3    H249131   3.150   4.251  13.272 -2.5011 -0.7524 -0.5413
 9214TIP3   OH249132   5.277   5.656  15.500  0.3603  0.1559 -0.6132
 9214TIP3    H149133   5.297   5.603  15.577 -0.4618 -0.4625 -0.8144
 9214TIP3    H249134   5.271   5.593  15.428  0.7028  0.6788 -1.1101
 9215TIP3   OH249135   2.053   0.505  17.085 -0.6754  0.5456  0.0879
 9215TIP3    H149136   2.065   0.578  17.024 -0.2458  1.1092  0.8330
 9215TIP3    H249137   2.117   0.522  17.155 -0.1699 -0.8633 -0.0294
 9216TIP3   OH249138   5.378   0.247   2.403  0.2880 -0.4999  0.1287
 9216TIP3    H149139   5.359   0.160   2.437 -0.9600 -0.5521 -0.6695
 9216TIP3    H249140   5.355   0.243   2.311 -1.0949  1.0572  0.3708
 9217TIP3   OH249141   0.373   4.050   3.456  0.3538 -0.0613  0.1367
 9217TIP3    H149142   0.345   4.044   3.364 -0.2337 -0.1715  0.3219
 9217TIP3    H249143   0.322   4.122   3.492 -0.2401 -0.7418  0.6718
 9218TIP3   OH249144   3.947   1.947   3.256  0.6498  0.1523 -0.2949
 9218TIP3    H149145   3.913   1.858   3.252 -2.1701  1.2343 -2.0132
 9218TIP3    H249146   3.891   1.991   3.320  1.0530  1.0592 -0.5610
 9219TIP3   OH249147   2.443   3.890   4.846  0.4649 -0.2651  0.1519
 9219TIP3    H149148   2.455   3.851   4.932  1.8448  1.3537  0.7378
 9219TIP3    H249149   2.351   3.874   4.824  0.6279 -2.4938  0.9839
 9220TIP3   OH249150   5.089   0.982   3.157  0.3014 -0.1599  0.2049
 9220TIP3    H149151   5.119   0.950   3.242 -0.6565 -0.4022  0.4644
 9220TIP3    H249152   5.100   1.077   3.162  1.1458 -0.2565  0.2365
 9221TIP3   OH249153   1.752   5.552  15.891 -0.1943 -0.3531 -0.8017
 9221TIP3    H149154   1.821   5.517  15.947 -2.0467  0.1996  1.9814
 9221TIP3    H249155   1.671   5.512  15.924 -1.6903  2.2088 -1.1403
 9222TIP3   OH249156   2.303   4.770  17.130  0.2464 -0.6353  0.1462
 9222TIP3    H149157   2.255   4.842  17.089  1.5501  0.5165  0.5974
 9222TIP3    H249158   2.261   4.759  17.215  0.0794 -0.3478  0.1034
 9223TIP3   OH249159   5.531   0.833   4.626 -0.3672  0.2568  0.2771
 9223TIP3    H149160   5.622   0.807   4.642 -0.6135 -0.1964  0.9619
 9223TIP3    H249161   5.485   0.811   4.707 -1.5217 -1.4797 -0.8203
 9224TIP3   OH249162   1.821   6.021  12.556  0.3417  0.3445 -0.0107
 9224TIP3    H149163   1.903   6.071  12.557 -0.2466  1.3302  2.5589
 9224TIP3    H249164   1.841   5.944  12.503  3.5163 -0.4149  2.1742
 9225TIP3   OH249165   6.817   0.270  16.788 -0.3174 -0.1445 -0.0970
 9225TIP3    H149166   6.771   0.209  16.731  0.1181  0.0443 -0.6509
 9225TIP3    H249167   6.750   0.301  16.849 -1.0666  0.6103 -1.2944
 9226TIP3   OH249168   2.320   4.362   5.987  0.1169  0.1619 -0.0335
 9226TIP3    H149169   2.365   4.378   6.070  1.0141  1.2567 -0.7165
 9226TIP3    H249170   2.366   4.287   5.949 -0.9422 -0.9833  0.9135
 9227TIP3   OH249171   1.695   2.623   5.628 -0.0396  0.4638 -0.2815
 9227TIP3    H149172   1.699   2.609   5.533  2.1504  0.8045 -0.2676
 9227TIP3    H249173   1.763   2.688   5.645 -2.1879  2.3950  1.1868
 9228TIP3   OH249174   2.167   6.716   0.196 -0.0278 -0.1503  0.3800
 9228TIP3    H149175   2.087   6.767   0.210  0.1200  0.0191  0.5922
 9228TIP3    H249176   2.213   6.718   0.280  1.4329  1.8624 -0.4490
 9229TIP3   OH249177   2.457   5.680   2.520 -0.1930  0.1916 -0.2904
 9229TIP3    H149178   2.385   5.665   2.460 -0.3801 -1.1760  0.2521
 9229TIP3    H249179   2.514   5.604   2.509  1.0413  1.1340 -0.5285
 9230TIP3   OH249180   4.667   0.854   0.136 -0.0983 -0.2221  0.7642
 9230TIP3    H149181   4.698   0.803   0.060 -0.3653 -0.5118  0.8519
 9230TIP3    H249182   4.720   0.822   0.209  1.9356  1.8110  0.2404
 9231TIP3   OH249183   3.741   0.851  12.321  0.3148  0.4723 -0.2652
 9231TIP3    H149184   3.754   0.787  12.390  0.8661 -0.2622 -1.0413
 9231TIP3    H249185   3.647   0.872  12.324  0.4119  0.7529  0.9594
 9232TIP3   OH249186   1.406   5.372   3.464  0.1427 -0.2768 -0.3938
 9232TIP3    H149187   1.346   5.403   3.531  0.2606 -0.7504 -0.0671
 9232TIP3    H249188   1.417   5.447   3.405  0.2087  0.2131  0.2312
 9233TIP3   OH249189   1.487   3.918  14.097 -0.0863  0.0492  0.0378
 9233TIP3    H149190   1.533   3.835  14.108  1.6719  1.0497  0.4079
 9233TIP3    H249191   1.528   3.959  14.021 -1.0103  0.5428 -0.2094
 9234TIP3   OH249192   4.557   0.374  15.391  0.0123  0.6380  0.0976
 9234TIP3    H149193   4.551   0.466  15.364  0.3646  0.2851 -1.2482
 9234TIP3    H249194   4.646   0.348  15.366 -0.5937 -0.4915 -0.9190
 9235TIP3   OH249195   0.593   6.217  13.054 -0.0083  0.1647 -0.3400
 9235TIP3    H149196   0.612   6.311  13.059 -2.1994  0.7495 -2.3135
 9235TIP3    H249197   0.590   6.189  13.145  1.0833  1.9048  0.2683
 9236TIP3   OH249198   2.710   4.573  12.397 -0.4116  0.6128  0.0502
 9236TIP3    H149199   2.801   4.578  12.366  0.4168  2.3355  2.5401
 9236TIP3    H249200   2.713   4.504  12.464 -0.8088  1.0449  0.5124
 9237TIP3   OH249201   3.998   6.441  10.971  0.1739 -0.0662  0.4773
 9237TIP3    H149202   4.079   6.480  11.002  0.0922  2.1179 -1.9142
 9237TIP3    H249203   4.021   6.399  10.888 -1.1974  0.9194 -0.4298
 9238TIP3   OH249204   0.295   3.465  15.468 -0.0725  0.2272  0.2168
 9238TIP3    H149205   0.322   3.377  15.441 -0.6794  0.0308  0.2561
 9238TIP3    H249206   0.319   3.469  15.560 -1.3879 -0.4276  0.5957
 9239TIP3   OH249207   6.590   4.195  12.560  0.8412 -0.0115  0.2064
 9239TIP3    H149208   6.622   4.138  12.630 -1.0088 -1.3253  0.0415
 9239TIP3    H249209   6.597   4.283  12.596 -0.7690 -0.7095  2.3779
 9240TIP3   OH249210   0.619   0.956   0.741  0.5719 -0.2579  0.7584
 9240TIP3    H149211   0.669   0.943   0.822 -0.6208  0.5934  1.6529
 9240TIP3    H249212   0.629   1.050   0.722 -0.6443 -0.0911  0.9205
 9241TIP3   OH249213   3.755   2.596   5.758 -0.5477  0.1175  0.0067
 9241TIP3    H149214   3.815   2.653   5.805  0.2615  0.9592 -2.0158
 9241TIP3    H249215   3.773   2.508   5.793  0.3420  0.6699  0.9449
 9242TIP3   OH249216   2.906   1.477  14.331  0.2512  0.0484 -0.1274
 9242TIP3    H149217   2.872   1.420  14.401 -0.4966 -0.1825 -0.6805
 9242TIP3    H249218   2.878   1.565  14.356  1.3160  0.1828  0.6723
 9243TIP3   OH249219   3.367   2.482   4.608 -0.1069 -0.0439  0.7133
 9243TIP3    H149220   3.273   2.492   4.620 -0.7740 -4.2235 -0.2986
 9243TIP3    H249221   3.377   2.461   4.515  1.8929  0.6869  0.7313
 9244TIP3   OH249222   3.744   0.085   3.202 -0.1258  0.0181 -0.4587
 9244TIP3    H149223   3.813   0.145   3.232 -0.9997  1.0392 -0.4342
 9244TIP3    H249224   3.690   0.069   3.280 -0.6284  0.2227 -0.7596
 9245TIP3   OH249225   1.447   4.753  14.047  0.2431  0.3153 -0.0738
 9245TIP3    H149226   1.460   4.660  14.063 -1.7890 -0.5201 -2.8554
 9245TIP3    H249227   1.357   4.770  14.077  0.6508  1.4254  0.5484
 9246TIP3   OH249228   3.268   2.932  14.397  0.0258 -0.3368  0.0450
 9246TIP3    H149229   3.241   2.840  14.401 -1.6909  0.0825 -1.1733
 9246TIP3    H249230   3.261   2.955  14.304  2.7498  0.3734 -0.0164
 9247TIP3   OH249231   4.748   6.779  12.621  0.2269 -0.4913 -0.1503
 9247TIP3    H149232   4.775   6.814  12.536 -0.3417  1.1211  0.3009
 9247TIP3    H249233   4.739   6.685  12.607  1.4571 -0.4188 -1.5156
 9248TIP3   OH249234   5.362   5.121   3.436 -0.7213  0.4442  0.0320
 9248TIP3    H149235   5.281   5.132   3.386  0.1504  0.4650 -1.3985
 9248TIP3    H249236   5.375   5.026   3.439  0.5577  0.5046 -2.0205
 9249TIP3   OH249237   2.593   3.129   4.472  0.4779 -0.6606 -0.4769
 9249TIP3    H149238   2.551   3.204   4.431  1.5951  0.7909  0.9819
 9249TIP3    H249239   2.520   3.070   4.494 -0.5379  0.5865 -0.4452
 9250TIP3   OH249240   1.275   6.119  13.692  0.3378 -0.2866 -0.2287
 9250TIP3    H149241   1.252   6.197  13.742 -1.5157 -0.7421 -0.3539
 9250TIP3    H249242   1.295   6.053  13.759 -0.0193 -0.2728 -0.1078
 9251TIP3   OH249243   3.060   3.013  13.560 -0.8085 -0.5005 -0.1714
 9251TIP3    H149244   3.042   3.101  13.592  2.0678  0.2632 -0.5102
 9251TIP3    H249245   3.023   3.012  13.472 -0.8180  0.3788 -0.1812
 9252TIP3   OH249246   4.298   3.212   4.435 -0.2154 -0.3851 -0.8267
 9252TIP3    H149247   4.342   3.238   4.354  1.9537 -0.5174  0.2781
 9252TIP3    H249248   4.275   3.120   4.421  2.7294 -1.2621 -0.2443
 9253TIP3   OH249249   2.249   5.626   2.880 -0.0955  0.2032  0.3047
 9253TIP3    H149250   2.217   5.537   2.896  0.2627  0.0159 -0.0201
 9253TIP3    H249251   2.316   5.640   2.948  0.0010  0.1430  0.2229
 9254TIP3   OH249252   6.256   5.365   5.900  0.1272  0.6878 -0.4314
 9254TIP3    H149253   6.290   5.285   5.939 -0.0296  0.6236 -0.4291
 9254TIP3    H249254   6.165   5.371   5.929  0.8892  2.2537  1.7421
 9255TIP3   OH249255   4.569   2.132   3.272 -0.1778  0.8001  0.7846
 9255TIP3    H149256   4.489   2.184   3.278 -1.4614 -1.1816  1.1241
 9255TIP3    H249257   4.608   2.157   3.189 -2.2268  0.2700 -0.3614
 9256TIP3   OH249258   1.530   6.038  15.579  0.0707 -0.0481  0.0561
 9256TIP3    H149259   1.551   6.115  15.632 -0.5356  0.0801  0.1160
 9256TIP3    H249260   1.446   6.007  15.613  1.4894 -2.2492  1.7312
 9257TIP3   OH249261   1.732   5.465  15.319  0.1742 -0.2529  0.0008
 9257TIP3    H149262   1.782   5.544  15.338 -0.3868  0.2836 -0.7079
 9257TIP3    H249263   1.664   5.463  15.387 -0.6602  0.6293 -0.7978
 9258TIP3   OH249264   6.617   3.402   0.350 -0.3399  0.0308 -0.2768
 9258TIP3    H149265   6.625   3.321   0.401  0.0094  0.7707  0.8769
 9258TIP3    H249266   6.573   3.376   0.270  1.7010 -1.7178 -0.8761
 9259TIP3   OH249267   4.714   1.949   0.532  0.0012 -0.5379  0.2592
 9259TIP3    H149268   4.664   1.955   0.450 -0.6050  0.1553  0.6651
 9259TIP3    H249269   4.776   2.021   0.527 -0.6604  0.0739  0.8155
 9260TIP3   OH249270   2.397   6.417  13.107 -0.1540  0.0962  0.7393
 9260TIP3    H149271   2.396   6.473  13.030  0.9335 -2.2076 -1.0209
 9260TIP3    H249272   2.308   6.419  13.140 -0.6330  1.1279 -0.5774
 9261TIP3   OH249273   1.635   6.603   1.810  0.3426  0.0775 -0.4477
 9261TIP3    H149274   1.655   6.697   1.807  0.7461  0.0594  1.3534
 9261TIP3    H249275   1.720   6.560   1.796  0.3264 -0.0186 -0.2499
 9262TIP3   OH249276   0.084   2.136  13.151 -0.6162 -0.0701  0.2006
 9262TIP3    H149277   0.157   2.196  13.139 -1.1092 -0.0823 -3.1635
 9262TIP3    H249278   0.006   2.191  13.142 -1.0598 -0.5625  0.9207
 9263TIP3   OH249279   6.495   0.701  14.681 -0.4144 -0.3715 -0.2224
 9263TIP3    H149280   6.565   0.758  14.713 -0.6902 -1.0071  1.6056
 9263TIP3    H249281   6.478   0.730  14.592 -0.2590  2.0980  0.5373
 9264TIP3   OH249282   5.505   2.255   3.546 -0.4699  0.0561  0.8993
 9264TIP3    H149283   5.448   2.206   3.488 -0.5883 -0.2193  1.2456
 9264TIP3    H249284   5.575   2.194   3.569 -0.4811  0.1258  1.1273
 9265TIP3   OH249285   5.573   2.470   2.486 -0.0640  0.0634  0.3674
 9265TIP3    H149286   5.497   2.467   2.544  0.6622 -0.6946  1.2958
 9265TIP3    H249287   5.612   2.382   2.492 -0.1924 -0.1554 -1.5582
 9266TIP3   OH249288   6.043   1.579  16.661  0.1178 -0.2343 -0.8459
 9266TIP3    H149289   5.999   1.659  16.691  0.6792 -0.6231  1.0241
 9266TIP3    H249290   5.979   1.539  16.601  0.2474  2.1231 -2.6478
 9267TIP3   OH249291   0.557   5.617   1.042  0.4378 -0.5517  0.3574
 9267TIP3    H149292   0.499   5.683   1.081 -0.7101 -2.4045  1.9438
 9267TIP3    H249293   0.522   5.603   0.954 -0.9449 -0.9188  0.9503
 9268TIP3   OH249294   0.680   0.478  14.414 -0.0073 -0.3095 -0.1504
 9268TIP3    H149295   0.663   0.567  14.445  0.3866 -0.8230  1.5792
 9268TIP3    H249296   0.663   0.483  14.320  2.0435  2.1020 -0.4614
 9269TIP3   OH249297   1.066   1.389  11.350  0.2902  0.1479  0.7258
 9269TIP3    H149298   1.076   1.443  11.428 -0.3121  1.6905 -0.2183
 9269TIP3    H249299   1.124   1.430  11.285 -1.3457  0.6504 -0.4793
 9270TIP3   OH249300   0.408   6.500   2.456  1.0953 -0.3786  0.0870
 9270TIP3    H149301   0.445   6.440   2.391  0.5014 -0.7044  0.0403
 9270TIP3    H249302   0.481   6.521   2.514  1.9397  0.9091 -1.4090
 9271TIP3   OH249303   6.230   2.149  10.991  0.1782 -0.6326 -0.3999
 9271TIP3    H149304   6.304   2.106  10.948 -0.1682 -1.1425 -0.4861
 9271TIP3    H249305   6.197   2.210  10.926  1.5388  0.7950  0.2051
 9272TIP3   OH249306   0.578   3.832   1.509 -0.0807 -0.5680  0.3389
 9272TIP3    H149307   0.576   3.849   1.415  0.0947  0.6037  0.5406
 9272TIP3    H249308   0.671   3.818   1.529 -0.0495 -0.2297  0.4356
 9273TIP3   OH249309   4.875   2.467   2.166  0.1244  0.4073 -0.0606
 9273TIP3    H149310   4.790   2.496   2.132 -0.6180 -0.1350  1.2875
 9273TIP3    H249311   4.935   2.538   2.143 -0.9416  1.3690  0.0553
 9274TIP3   OH249312   5.900   1.405  14.432  0.3693 -0.4108  0.1540
 9274TIP3    H149313   5.921   1.316  14.459  0.7257 -0.1838  0.6415
 9274TIP3    H249314   5.948   1.417  14.349  1.6824 -0.1230  0.9295
 9275TIP3   OH249315   1.798   1.260  12.110 -0.1240  0.5071  0.6149
 9275TIP3    H149316   1.754   1.247  12.194  1.2617  0.3496  1.3349
 9275TIP3    H249317   1.857   1.334  12.124  0.1464  0.4550 -0.1968
 9276TIP3   OH249318   2.863   5.014  15.069 -0.3477 -0.3150 -0.7684
 9276TIP3    H149319   2.794   4.986  15.009  1.1791 -1.7871 -1.8654
 9276TIP3    H249320   2.937   4.958  15.049  1.6011  2.0435 -0.4760
 9277TIP3   OH249321   5.296   1.614  15.722  0.0231  0.2872 -0.4454
 9277TIP3    H149322   5.262   1.661  15.646 -3.0771 -0.3132  0.5028
 9277TIP3    H249323   5.330   1.532  15.686  1.6776  1.4361 -1.5660
 9278TIP3   OH249324   5.422   6.096  11.101 -0.1786 -0.5465  0.3589
 9278TIP3    H149325   5.335   6.099  11.140 -0.3530 -0.8509 -0.0052
 9278TIP3    H249326   5.418   6.158  11.028  1.0186  2.2426  2.5713
 9279TIP3   OH249327   5.635   0.487   5.211  0.2631  0.4432 -0.0591
 9279TIP3    H149328   5.611   0.426   5.141  0.2744  0.1129  0.2229
 9279TIP3    H249329   5.664   0.430   5.283  1.9187  0.8313 -0.4091
 9280TIP3   OH249330   6.327   1.721  16.957  0.3332 -0.0794  0.2309
 9280TIP3    H149331   6.385   1.734  17.033  0.2472 -0.0368  0.2893
 9280TIP3    H249332   6.246   1.687  16.995  0.3021 -0.0901  0.1547
 9281TIP3   OH249333   2.590   1.734  10.190 -0.0849 -0.1270  0.4187
 9281TIP3    H149334   2.648   1.659  10.203  0.5512  0.0128 -1.4486
 9281TIP3    H249335   2.649   1.810  10.191 -0.2962  0.0651 -0.8863
 9282TIP3   OH249336   3.680   3.760  16.111  0.1296 -0.3629  0.2673
 9282TIP3    H149337   3.741   3.799  16.048 -0.5318  0.6831  0.2654
 9282TIP3    H249338   3.712   3.670  16.122  2.0005  0.3300  0.6887
 9283TIP3   OH249339   4.470   0.883  15.983 -0.2268 -0.0788  0.0009
 9283TIP3    H149340   4.546   0.829  16.004 -0.2647  0.2536  1.0352
 9283TIP3    H249341   4.395   0.831  16.010 -0.2397  0.7103  1.5643
 9284TIP3   OH249342   0.469   6.138  15.509  0.2237  0.0538 -0.1673
 9284TIP3    H149343   0.381   6.134  15.545 -0.0684  1.3561 -0.7069
 9284TIP3    H249344   0.469   6.073  15.438  0.2015 -1.0896  0.8567
 9285TIP3   OH249345   3.916   0.261  15.666  0.2182  0.2020  0.1011
 9285TIP3    H149346   3.975   0.199  15.624  0.2062  0.6511 -0.5860
 9285TIP3    H249347   3.869   0.209  15.731 -0.5926 -0.7613 -1.2257
 9286TIP3   OH249348   2.243   6.617   0.628 -0.2898  0.0343 -0.0128
 9286TIP3    H149349   2.211   6.543   0.576  0.0705 -0.0978 -0.0475
 9286TIP3    H249350   2.173   6.681   0.623 -0.0113  0.2683 -1.1685
 9287TIP3   OH249351   6.457   5.009   5.157  0.2478 -0.7187  0.8049
 9287TIP3    H149352   6.482   4.923   5.122  2.0727 -0.4515  1.3531
 9287TIP3    H249353   6.432   4.991   5.247  2.1922 -0.4929  1.4234
 9288TIP3   OH249354   2.682   2.861   4.128 -0.0741 -0.0616  0.5323
 9288TIP3    H149355   2.747   2.894   4.189  1.1381 -0.2816 -0.6127
 9288TIP3    H249356   2.672   2.931   4.063 -1.6081  0.3177  1.1481
 9289TIP3   OH249357   2.085   5.444  14.504  0.1896 -0.6308  0.1358
 9289TIP3    H149358   2.033   5.406  14.575  0.1778 -1.7055 -0.4525
 9289TIP3    H249359   2.168   5.468  14.547 -1.1957  2.2026  1.3384
 9290TIP3   OH249360   2.983   3.761   4.551  0.3615  0.2839  0.0234
 9290TIP3    H149361   3.046   3.786   4.618 -0.8584  0.4556  1.1418
 9290TIP3    H249362   2.913   3.827   4.557  0.4194  0.5461 -1.7084
 9291TIP3   OH249363   3.598   5.012   5.734 -0.0691 -0.4582  0.1451
 9291TIP3    H149364   3.633   4.934   5.692 -0.9013 -0.7307 -0.0546
 9291TIP3    H249365   3.675   5.059   5.766  0.4157 -1.6679  0.8137
 9292TIP3   OH249366   4.785   4.212  16.287  0.6247  0.4974 -0.1204
 9292TIP3    H149367   4.725   4.229  16.214 -0.3596  1.1124  0.8186
 9292TIP3    H249368   4.827   4.296  16.303 -1.0595  1.0390  1.6873
 9293TIP3   OH249369   3.695   1.815   5.580 -0.3157  0.8447  0.4807
 9293TIP3    H149370   3.709   1.888   5.640  0.7309  1.3199 -0.3346
 9293TIP3    H249371   3.695   1.854   5.493 -0.1096 -0.0776  0.0548
 9294TIP3   OH249372   2.105   1.177   1.981 -0.3349  0.3999 -0.8930
 9294TIP3    H149373   2.071   1.116   1.915 -1.0786  0.0339 -0.1770
 9294TIP3    H249374   2.157   1.121   2.040 -1.1162  0.4427 -0.1684
 9295TIP3   OH249375   3.688   3.944   1.683  0.0711  0.3778 -0.4622
 9295TIP3    H149376   3.705   3.860   1.726 -0.5762 -0.5056 -1.9250
 9295TIP3    H249377   3.772   3.968   1.643 -0.0436 -0.1361 -1.0150
 9296TIP3   OH249378   5.539   1.835   4.891 -0.0929 -0.8812 -0.0682
 9296TIP3    H149379   5.582   1.750   4.886  3.2396  0.6910  0.5964
 9296TIP3    H249380   5.574   1.884   4.816 -2.8413 -0.4091 -1.1294
 9297TIP3   OH249381   3.285   6.458  14.605  0.3032 -0.1254 -0.3262
 9297TIP3    H149382   3.215   6.414  14.556  0.4706  1.0224 -1.6427
 9297TIP3    H249383   3.280   6.550  14.577  1.2037  0.3115  0.8963
 9298TIP3   OH249384   4.067   3.633  11.589  0.0981 -0.3710 -0.2843
 9298TIP3    H149385   4.128   3.697  11.553 -1.3920  0.3626 -1.5802
 9298TIP3    H249386   4.065   3.563  11.523 -0.3056 -0.4701 -0.1672
 9299TIP3   OH249387   4.109   1.500  13.423 -0.4608 -0.3718  0.0407
 9299TIP3    H149388   4.027   1.534  13.386  0.0699  0.7107 -0.1805
 9299TIP3    H249389   4.175   1.519  13.356  0.3394  0.7167  1.1029
 9300TIP3   OH249390   3.213   6.074   1.706 -0.0927 -0.6313  0.1326
 9300TIP3    H149391   3.219   6.058   1.612 -1.3980 -2.0288  0.2866
 9300TIP3    H249392   3.304   6.090   1.733  0.4878 -1.8081 -1.0757
 9301TIP3   OH249393   2.652   4.802   5.395  0.5810  0.1202 -0.1725
 9301TIP3    H149394   2.693   4.769   5.475 -1.2616  0.2742  0.8591
 9301TIP3    H249395   2.681   4.741   5.327  1.8214 -0.2654  0.6907
 9302TIP3   OH249396   5.814   2.027   3.037 -0.0860  0.4458 -0.6131
 9302TIP3    H149397   5.905   2.007   3.060 -0.3256  0.9320  0.8409
 9302TIP3    H249398   5.820   2.077   2.956  0.9119  0.0352 -0.7914
 9303TIP3   OH249399   0.678   1.035   1.845 -0.6885 -0.2334  0.8470
 9303TIP3    H149400   0.680   1.130   1.858 -0.0423 -0.0004 -0.8277
 9303TIP3    H249401   0.660   1.024   1.752  0.5639 -1.7347  0.7560
 9304TIP3   OH249402   1.590   3.380   0.227 -0.0278  0.4153  0.2271
 9304TIP3    H149403   1.517   3.334   0.185  0.5249 -0.5157  0.2918
 9304TIP3    H249404   1.565   3.473   0.222 -1.4314  0.0752  0.6566
 9305TIP3   OH249405   1.259   1.351   5.842 -0.0242 -0.3305  0.5971
 9305TIP3    H149406   1.191   1.317   5.900  0.4891 -0.2457  1.2435
 9305TIP3    H249407   1.219   1.430   5.805  0.9461  1.6280  3.5607
 9306TIP3   OH249408   0.796   5.156   5.230  0.0606  0.2335  0.0655
 9306TIP3    H149409   0.817   5.176   5.321  1.3706  1.6332 -0.5208
 9306TIP3    H249410   0.838   5.072   5.213  1.3179  0.8197  0.2469
 9307TIP3   OH249411   1.975   1.379   1.444  0.4420  0.3198  1.2135
 9307TIP3    H149412   1.966   1.467   1.409  2.2180  0.9243  2.1949
 9307TIP3    H249413   2.047   1.340   1.393 -1.8799 -1.4406 -0.8533
 9308TIP3   OH249414   5.928   3.043  11.281  0.3965  0.6013  0.1272
 9308TIP3    H149415   5.904   3.090  11.360 -1.8610  0.5962 -0.4936
 9308TIP3    H249416   5.849   3.048  11.226  1.6819  0.0165 -1.8138
 9309TIP3   OH249417   6.417   6.684  12.565  0.1813  0.1266 -0.0853
 9309TIP3    H149418   6.444   6.720  12.649 -0.7678  1.0814 -0.1772
 9309TIP3    H249419   6.489   6.705  12.506  0.9478 -0.7351  0.5271
 9310TIP3   OH249420   2.143   5.738  11.769 -0.1743  0.3025  0.4940
 9310TIP3    H149421   2.159   5.672  11.702 -1.0691 -0.1798  0.7528
 9310TIP3    H249422   2.106   5.813  11.723 -2.1566 -0.5615  0.6335
 9311TIP3   OH249423   5.670   5.528  12.022 -0.2171 -0.1980 -0.8554
 9311TIP3    H149424   5.760   5.499  12.013 -0.1906 -0.0425 -1.1061
 9311TIP3    H249425   5.676   5.623  12.036 -0.2448 -0.4606  1.0753
 9312TIP3   OH249426   4.194   4.529  14.247 -0.0699  0.1015  0.2408
 9312TIP3    H149427   4.215   4.458  14.186 -0.7988  0.0816  0.0063
 9312TIP3    H249428   4.265   4.527  14.312  1.6298  1.1613 -1.5054
 9313TIP3   OH249429   2.661   1.268   0.713  0.2621  0.1007 -0.0558
 9313TIP3    H149430   2.634   1.334   0.650 -2.9126 -0.0824  1.0221
 9313TIP3    H249431   2.672   1.188   0.661  1.1645  0.7591 -0.8885
 9314TIP3   OH249432   1.907   3.629  15.970  0.0785 -0.1161 -0.2076
 9314TIP3    H149433   1.831   3.594  16.017 -0.5637 -0.6210 -1.5985
 9314TIP3    H249434   1.873   3.704  15.922  0.2547 -0.8848 -1.5460
 9315TIP3   OH249435   4.219   4.574   0.864 -0.0582  0.1339  0.4001
 9315TIP3    H149436   4.131   4.575   0.903 -0.2374  0.4821 -0.0120
 9315TIP3    H249437   4.215   4.638   0.793 -0.0074 -1.1671 -0.7972
 9316TIP3   OH249438   4.640   2.807   5.327  0.0554 -0.0505  0.3315
 9316TIP3    H149439   4.566   2.809   5.267 -0.5194 -0.6860  1.0170
 9316TIP3    H249440   4.701   2.745   5.288  0.3388  0.6383 -0.3477
 9317TIP3   OH249441   3.168   4.559  12.595 -0.5649  0.2350  0.3682
 9317TIP3    H149442   3.107   4.485  12.589  0.8192 -0.9895  1.1193
 9317TIP3    H249443   3.143   4.604  12.675 -0.7484 -0.0329  0.4615
 9318TIP3   OH249444   6.109   5.218   2.569  0.3533  0.0409 -0.0928
 9318TIP3    H149445   6.139   5.293   2.517  0.8043  0.9364  1.4251
 9318TIP3    H249446   6.068   5.257   2.646 -1.0807 -1.2602 -0.1817
 9319TIP3   OH249447   1.008   3.191   4.712 -0.3114  0.0752 -0.4326
 9319TIP3    H149448   0.951   3.173   4.787 -0.0088 -0.5394 -0.3517
 9319TIP3    H249449   0.970   3.269   4.673 -0.5212  0.3584  0.3146
 9320TIP3   OH249450   5.019   6.801   2.267 -0.0778  0.3806 -0.3198
 9320TIP3    H149451   5.005   6.870   2.332 -2.1299 -1.5938  1.4150
 9320TIP3    H249452   4.940   6.800   2.214  0.2481 -0.1567 -0.8097
 9321TIP3   OH249453   4.043   1.403   0.995  0.2941 -0.0294  0.0280
 9321TIP3    H149454   4.004   1.433   1.077 -1.2623 -1.9317  0.0126
 9321TIP3    H249455   4.112   1.342   1.023  1.4512  1.2392 -0.0237
 9322TIP3   OH249456   4.342   0.675   2.097 -0.3796 -0.1102  0.0768
 9322TIP3    H149457   4.298   0.634   2.022  1.4260  0.3479 -1.2850
 9322TIP3    H249458   4.287   0.750   2.120 -0.2345  0.5766 -1.7190
 9323TIP3   OH249459   1.337   4.678  17.024 -0.1441  0.2093  0.1461
 9323TIP3    H149460   1.280   4.682  16.946 -0.5144 -0.5850  0.3757
 9323TIP3    H249461   1.380   4.764  17.026  0.6932 -0.1534 -1.5573
 9324TIP3   OH249462   4.354   1.713  12.775  0.3919  0.1694  0.0642
 9324TIP3    H149463   4.387   1.717  12.685  1.0346 -0.8102  0.2553
 9324TIP3    H249464   4.333   1.621  12.789  0.6888  0.2510  1.0553
 9325TIP3   OH249465   3.193   3.892   4.684  0.2371  0.2999  0.0876
 9325TIP3    H149466   3.286   3.916   4.680  0.1767  0.7261  1.0754
 9325TIP3    H249467   3.189   3.822   4.749 -0.0839  0.0419 -0.2108
 9326TIP3   OH249468   4.382   5.200  15.614  0.0565  0.5009  0.1405
 9326TIP3    H149469   4.389   5.176  15.706  2.9347  0.6331  0.0051
 9326TIP3    H249470   4.466   5.242  15.594 -1.1437  1.9161 -2.1297
 9327TIP3   OH249471   5.704   2.303   4.098  0.4451  0.2003 -0.5336
 9327TIP3    H149472   5.626   2.250   4.083  0.6273  0.0916 -1.1074
 9327TIP3    H249473   5.776   2.252   4.062  0.7589  0.3705 -0.1479
 9328TIP3   OH249474   0.042   3.312   1.489  0.7390 -0.3981 -0.5920
 9328TIP3    H149475   0.014   3.379   1.427 -2.8947 -1.0125  0.2741
 9328TIP3    H249476   0.057   3.361   1.571 -1.6190 -0.5538 -0.0405
 9329TIP3   OH249477   1.190   2.476   5.476 -0.2665  0.2436 -0.3556
 9329TIP3    H149478   1.123   2.515   5.420 -1.2686  0.0111  0.6539
 9329TIP3    H249479   1.187   2.383   5.455  0.6639  0.4005 -1.2466
 9330TIP3   OH249480   6.018   5.887  14.517  1.2331 -0.3722  0.0257
 9330TIP3    H149481   5.949   5.927  14.465  1.3575 -1.0174 -0.6355
 9330TIP3    H249482   6.030   5.800  14.480  2.0515 -0.4546  0.4555
 9331TIP3   OH249483   4.881   5.311   1.079 -0.6039 -0.2415 -0.6844
 9331TIP3    H149484   4.906   5.229   1.121  0.5178  0.2953 -0.2759
 9331TIP3    H249485   4.810   5.287   1.020 -0.9576 -1.3255  0.1645
 9332TIP3   OH249486   0.438   4.770   0.269  0.1437 -0.1864  0.2491
 9332TIP3    H149487   0.395   4.758   0.354 -2.0664  0.4463 -0.7507
 9332TIP3    H249488   0.394   4.845   0.231 -0.5761 -1.9728 -2.5307
 9333TIP3   OH249489   0.171   1.859   0.506 -0.3166 -0.3133  0.4157
 9333TIP3    H149490   0.105   1.841   0.573 -0.1206  1.2811  1.0574
 9333TIP3    H249491   0.248   1.808   0.535  0.5064  2.0805  2.6659
 9334TIP3   OH249492   6.012   2.400   2.979  0.4017 -0.2673  0.4094
 9334TIP3    H149493   6.093   2.438   2.944  0.5339 -0.9270 -0.0106
 9334TIP3    H249494   6.038   2.360   3.062  1.1952 -3.2494 -1.2147
 9335TIP3   OH249495   2.924   1.979   2.201  0.1723 -0.1371  0.9213
 9335TIP3    H149496   2.912   1.983   2.106 -0.2794 -3.4765  0.7991
 9335TIP3    H249497   2.840   1.949   2.235  1.2003 -1.7483  2.1114
 9336TIP3   OH249498   1.109   3.966   4.352 -0.5830  0.1787  0.4606
 9336TIP3    H149499   1.106   3.938   4.261 -0.0373 -1.2263  0.8682
 9336TIP3    H249500   1.201   3.989   4.367 -0.8467  1.3140  0.4019
 9337TIP3   OH249501   0.477   6.667   4.425 -0.3648 -0.2826 -0.2233
 9337TIP3    H149502   0.434   6.689   4.507 -0.2211 -0.0239 -0.2189
 9337TIP3    H249503   0.518   6.748   4.396  1.0797 -0.8034  0.3483
 9338TIP3   OH249504   5.627   5.936   4.294  0.0735 -0.4079  0.2152
 9338TIP3    H149505   5.672   5.860   4.332 -1.2508 -0.7671  1.0990
 9338TIP3    H249506   5.568   5.898   4.229  0.7135  0.0229 -0.6223
 9339TIP3   OH249507   5.820   5.110  15.328 -0.3998  0.5564  0.6429
 9339TIP3    H149508   5.742   5.162  15.310 -0.6556  1.0672  3.0682
 9339TIP3    H249509   5.893   5.171  15.320 -0.2913  0.2748 -0.7508
 9340TIP3   OH249510   2.384   6.513   3.137 -0.1655 -0.0107 -0.6064
 9340TIP3    H149511   2.470   6.495   3.098 -0.4971  0.1461 -1.4303
 9340TIP3    H249512   2.329   6.539   3.062 -0.2467  2.4049  0.2655
 9341TIP3   OH249513   1.897   2.345  13.771 -0.6448  0.0874 -0.4368
 9341TIP3    H149514   1.948   2.376  13.696  1.3168 -0.2038  0.7333
 9341TIP3    H249515   1.856   2.423  13.806  1.9219  0.9600  0.7439
 9342TIP3   OH249516   1.591   3.124  17.225 -0.6777  0.0622 -0.3851
 9342TIP3    H149517   1.630   3.062  17.287  0.1856  0.7360 -0.2482
 9342TIP3    H249518   1.528   3.174  17.278  0.8785  1.4123  0.2402
 9343TIP3   OH249519   4.885   3.786  16.677  0.7111  0.0642 -0.7799
 9343TIP3    H149520   4.865   3.836  16.597 -1.2254 -1.9451 -1.6210
 9343TIP3    H249521   4.825   3.822  16.743  0.8250  0.3033 -0.8073
 9344TIP3   OH249522   5.456   5.568  11.350  0.3224  0.2870  0.2695
 9344TIP3    H149523   5.531   5.623  11.327 -0.9350  1.6186 -0.7691
 9344TIP3    H249524   5.387   5.595  11.289 -1.0477 -0.8283  1.2897
 9345TIP3   OH249525   0.322   4.303   1.775 -0.3898  0.1038  0.4868
 9345TIP3    H149526   0.240   4.265   1.807 -0.4154  0.0294  0.3292
 9345TIP3    H249527   0.340   4.374   1.836 -0.9005  0.5218  0.1560
 9346TIP3   OH249528   1.732   4.003   2.365  0.4307 -0.1906  0.3048
 9346TIP3    H149529   1.815   3.991   2.320  0.4797 -1.0511  0.6275
 9346TIP3    H249530   1.668   3.960   2.308  0.3804 -0.5792  0.6522
 9347TIP3   OH249531   0.837   6.770   4.090 -0.1047 -0.2358 -0.9151
 9347TIP3    H149532   0.785   6.817   4.025  0.1845 -0.6608 -1.4566
 9347TIP3    H249533   0.889   6.838   4.134 -0.8668  0.1501 -0.5942
 9348TIP3   OH249534   6.602   6.681  11.405  0.2929 -0.0381 -0.2959
 9348TIP3    H149535   6.525   6.735  11.385 -0.6706 -0.0148  3.1141
 9348TIP3    H249536   6.676   6.739  11.388 -0.6609  1.6766  1.1605
 9349TIP3   OH249537   2.105   0.993  13.661  0.4795  0.2287 -0.0785
 9349TIP3    H149538   2.102   0.901  13.684 -1.0472 -0.1501 -1.7127
 9349TIP3    H249539   2.096   1.039  13.745  1.6486 -1.0669  0.7939
 9350TIP3   OH249540   2.161   3.637   4.302  0.7524  0.6736 -0.0291
 9350TIP3    H149541   2.113   3.646   4.220 -1.6727  2.1905  1.4707
 9350TIP3    H249542   2.203   3.722   4.314  1.9783  0.0961 -0.2198
 9351TIP3   OH249543   6.504   4.214  13.286  0.1491  0.5206  0.3740
 9351TIP3    H149544   6.537   4.213  13.376  0.2108 -1.2304  0.3448
 9351TIP3    H249545   6.411   4.193  13.295  0.3608 -0.6119 -0.0418
 9352TIP3   OH249546   6.383   1.108   1.427  0.2709 -0.6321 -0.3548
 9352TIP3    H149547   6.383   1.102   1.523  0.6785  1.5051 -0.1978
 9352TIP3    H249548   6.293   1.129   1.404  0.2299 -0.8857 -0.4324
 9353TIP3   OH249549   3.623   1.697  17.038  0.0068  0.3161 -0.0624
 9353TIP3    H149550   3.532   1.721  17.024  0.2344  0.1868 -1.7894
 9353TIP3    H249551   3.628   1.604  17.013  0.4245  0.0703  0.8969
 9354TIP3   OH249552   5.693   1.628   4.093 -0.6237  0.1112  0.3464
 9354TIP3    H149553   5.709   1.564   4.162 -1.2741  1.2738  1.6128
 9354TIP3    H249554   5.780   1.648   4.057 -0.3865 -1.1969  0.1868
 9355TIP3   OH249555   2.118   5.228   1.756 -0.6140 -0.5584 -0.3441
 9355TIP3    H149556   2.066   5.186   1.824  1.1273 -1.1869  0.6406
 9355TIP3    H249557   2.148   5.310   1.795 -0.4128 -0.4560 -0.7106
 9356TIP3   OH249558   1.206   2.911   6.892  0.1552  0.5674  0.1144
 9356TIP3    H149559   1.121   2.872   6.873  0.6994 -0.2370 -0.7056
 9356TIP3    H249560   1.269   2.844   6.868  1.0435  1.3422  0.2609
 9357TIP3   OH249561   2.224   1.509   3.672  0.2531 -0.0327 -0.0504
 9357TIP3    H149562   2.141   1.470   3.698  0.4318  0.8514  1.9201
 9357TIP3    H249563   2.219   1.600   3.702  2.4416 -0.3078  1.2596
 9358TIP3   OH249564   4.712   4.802  17.276 -0.1444  0.1309  0.0747
 9358TIP3    H149565   4.785   4.858  17.252  0.1594 -0.2018  0.2202
 9358TIP3    H249566   4.672   4.778  17.192  1.6358 -1.9981 -0.1943
 9359TIP3   OH249567   3.876   5.763   5.482 -0.4678  0.1627  0.5567
 9359TIP3    H149568   3.847   5.674   5.503 -0.0065 -0.1661 -0.1831
 9359TIP3    H249569   3.891   5.762   5.387  0.3302  0.8071  0.6716
 9360TIP3   OH249570   5.415   2.497   4.923 -0.0073 -0.4529 -0.1014
 9360TIP3    H149571   5.421   2.402   4.912 -1.8228 -0.6997  0.7996
 9360TIP3    H249572   5.438   2.532   4.837  1.1640 -1.6828 -0.3077
 9361TIP3   OH249573   2.700   4.196   4.318 -0.3052  0.7987  0.8946
 9361TIP3    H149574   2.794   4.187   4.329 -0.2436  2.8496  2.2118
 9361TIP3    H249575   2.670   4.238   4.398 -2.3608  0.1277  0.5087
 9362TIP3   OH249576   3.104   6.371   5.289  0.1273  0.2260  0.0318
 9362TIP3    H149577   3.035   6.381   5.355  0.8478  0.4392  0.7627
 9362TIP3    H249578   3.143   6.286   5.307  0.5644  0.4422  0.1041
 9363TIP3   OH249579   3.141   6.751   0.994 -0.0449 -0.8271 -0.4554
 9363TIP3    H149580   3.120   6.817   1.060 -1.3285  0.1041 -1.7702
 9363TIP3    H249581   3.218   6.787   0.949 -0.5380 -0.3896 -0.9487
 9364TIP3   OH249582   4.958   6.545  14.456  0.2201 -0.1036  0.3888
 9364TIP3    H149583   4.899   6.618  14.441 -1.4595 -1.0575  2.1916
 9364TIP3    H249584   4.996   6.561  14.542  0.5631 -0.8682  0.3900
 9365TIP3   OH249585   2.489   0.695  10.318 -0.2763 -0.4934 -0.3779
 9365TIP3    H149586   2.447   0.777  10.294 -1.6389 -1.9501 -3.2026
 9365TIP3    H249587   2.433   0.627  10.282  2.3571 -2.6096 -0.6990
 9366TIP3   OH249588   6.096   6.724  13.468 -0.1269  0.1171  0.5376
 9366TIP3    H149589   6.174   6.752  13.420 -1.2817 -0.4317 -1.7088
 9366TIP3    H249590   6.106   6.630  13.478 -2.1600 -0.5705 -2.9947
 9367TIP3   OH249591   6.704   5.753   1.175 -0.1755  0.2989 -0.5693
 9367TIP3    H149592   6.690   5.694   1.101 -0.8483 -0.2113 -0.0334
 9367TIP3    H249593   6.720   5.696   1.250  2.1956  0.8284 -0.6266
 9368TIP3   OH249594   1.923   0.017   0.223 -0.0932  0.1663 -0.3033
 9368TIP3    H149595   1.942   0.108   0.199  1.7807  0.1375  0.9510
 9368TIP3    H249596   1.858   0.024   0.293  1.5936  0.6692  1.2598
 9369TIP3   OH249597   6.504   4.064  16.871 -0.9206  0.7762 -0.1461
 9369TIP3    H149598   6.416   4.057  16.834  0.0664 -4.4065 -1.9910
 9369TIP3    H249599   6.557   4.100  16.801 -0.8205 -0.1686 -0.5695
 9370TIP3   OH249600   4.090   4.063  12.176 -0.1710 -0.3257  0.2563
 9370TIP3    H149601   4.182   4.066  12.151 -0.0969  0.7260  0.6379
 9370TIP3    H249602   4.081   3.981  12.225  0.3793 -0.8194 -0.4671
 9371TIP3   OH249603   0.104   2.829  11.899 -0.0256 -0.0259 -0.6323
 9371TIP3    H149604   0.161   2.806  11.973  0.6844  0.4402 -1.0299
 9371TIP3    H249605   0.037   2.761  11.899  1.5623 -1.6291 -1.2619
 9372TIP3   OH249606   1.758   5.352   4.767  0.5802  0.0494  0.4903
 9372TIP3    H149607   1.695   5.281   4.759  0.4234  0.3515 -1.1331
 9372TIP3    H249608   1.711   5.430   4.739  1.4917  0.3751 -0.1853
 9373TIP3   OH249609   3.466   2.955   6.359  0.1794  0.8102 -0.3647
 9373TIP3    H149610   3.551   2.941   6.401 -0.4407  2.0092  1.3620
 9373TIP3    H249611   3.418   2.873   6.373  0.2305  0.9554  0.6700
 9374TIP3   OH249612   0.395   6.650   5.529  0.3279  0.4638 -0.6424
 9374TIP3    H149613   0.380   6.744   5.520  1.4174  0.7708  0.5358
 9374TIP3    H249614   0.315   6.616   5.569 -0.5727  0.6767 -2.2370
 9375TIP3   OH249615   2.834   1.480  13.849 -0.0239  0.3818 -0.2197
 9375TIP3    H149616   2.893   1.463  13.923  0.3948  1.6285 -0.2539
 9375TIP3    H249617   2.855   1.569  13.821  0.0421 -0.1965 -2.0669
 9376TIP3   OH249618   5.832   4.360   2.125 -0.4447  0.0027  0.0328
 9376TIP3    H149619   5.914   4.409   2.130  0.0531 -1.0546  3.2082
 9376TIP3    H249620   5.838   4.311   2.043  1.6908  0.6339 -0.2159
 9377TIP3   OH249621   1.442   5.059  15.583 -0.4258 -0.3806 -0.5999
 9377TIP3    H149622   1.469   5.013  15.662  1.0285  1.6466  0.1125
 9377TIP3    H249623   1.447   4.993  15.514  0.9929 -1.4494  0.5012
 9378TIP3   OH249624   3.710   4.053   4.422 -0.0475  0.1882  0.2393
 9378TIP3    H149625   3.636   4.070   4.364 -1.4114  0.0266  1.8919
 9378TIP3    H249626   3.777   4.013   4.365 -1.4680 -0.2716 -1.1328
 9379TIP3   OH249627   4.590   1.051  13.162  0.2428 -0.1161 -0.0721
 9379TIP3    H149628   4.546   1.134  13.146  1.9304  1.0864  1.3595
 9379TIP3    H249629   4.616   1.020  13.075  1.0312  1.6800 -0.4929
 9380TIP3   OH249630   3.605   4.421   0.380  0.0701  0.1576  0.6162
 9380TIP3    H149631   3.515   4.442   0.355  0.0272  0.8680  1.3702
 9380TIP3    H249632   3.596   4.350   0.444  0.0795 -0.1410  0.2914
 9381TIP3   OH249633   5.187   0.199  10.463 -0.1945  0.1743  0.1201
 9381TIP3    H149634   5.148   0.242  10.386 -0.3111 -1.5795 -0.8175
 9381TIP3    H249635   5.115   0.151  10.503  0.5909 -1.6761 -0.6289
 9382TIP3   OH249636   1.725   4.184   3.097 -0.8189 -0.3178 -0.1198
 9382TIP3    H149637   1.701   4.218   3.183 -0.2442  0.3699 -0.2326
 9382TIP3    H249638   1.672   4.234   3.036 -0.3141  0.0505 -0.2536
 9383TIP3   OH249639   5.936   5.445   4.165  0.5623  0.3347  0.1248
 9383TIP3    H149640   5.966   5.398   4.243  0.0548  0.0850  0.1686
 9383TIP3    H249641   6.002   5.513   4.152  0.2455  0.8579  1.2110
 9384TIP3   OH249642   0.592   0.055   5.182 -0.1427 -0.1850  0.1746
 9384TIP3    H149643   0.549   0.133   5.218  0.5437  0.3290 -0.1100
 9384TIP3    H249644   0.556   0.047   5.094 -2.1146 -1.6666  1.0627
 9385TIP3   OH249645   1.448   4.644  17.278 -0.1805  0.3096 -0.5962
 9385TIP3    H149646   1.390   4.656  17.203  0.8741  0.7031 -1.3704
 9385TIP3    H249647   1.533   4.676  17.247  0.3403  0.1618  0.6627
 9386TIP3   OH249648   4.405   4.884   4.414  0.0900 -0.5293  0.2115
 9386TIP3    H149649   4.473   4.938   4.456 -0.8955  0.2006  0.8822
 9386TIP3    H249650   4.369   4.832   4.485 -0.1889 -0.7712 -0.1101
 9387TIP3   OH249651   4.099   1.948  15.492  0.2618 -0.0311  0.7150
 9387TIP3    H149652   4.193   1.948  15.512 -0.2260 -0.0312  3.1746
 9387TIP3    H249653   4.065   1.872  15.539 -0.8692 -0.5195 -0.8417
 9388TIP3   OH249654   3.290   2.189  16.635  0.0075 -0.1724 -0.5913
 9388TIP3    H149655   3.282   2.130  16.560  2.3507 -1.4939  0.1696
 9388TIP3    H249656   3.270   2.134  16.711 -0.0911  0.5879 -0.0605
 9389TIP3   OH249657   5.286   4.797   4.140  0.5159 -0.1599 -0.5532
 9389TIP3    H149658   5.333   4.783   4.222  0.7572  0.6028 -0.5577
 9389TIP3    H249659   5.355   4.805   4.074  0.3104 -1.1576 -0.8941
 9390TIP3   OH249660   3.346   5.469  16.682 -0.4249 -0.1745 -0.3620
 9390TIP3    H149661   3.426   5.478  16.734  0.0312 -0.7706 -0.9489
 9390TIP3    H249662   3.371   5.498  16.594 -1.0126  0.1976 -0.4066
 9391TIP3   OH249663   3.132   4.773   0.583 -0.1590 -0.0153 -0.3370
 9391TIP3    H149664   3.051   4.778   0.633 -0.3242  0.9932 -0.7037
 9391TIP3    H249665   3.155   4.680   0.584 -3.3357 -0.9148 -3.5016
 9392TIP3   OH249666   0.374   2.948  15.934  0.3235  0.5229  1.1126
 9392TIP3    H149667   0.372   2.972  16.027  2.3133  1.4166  0.9480
 9392TIP3    H249668   0.456   2.986  15.901  0.7636 -1.7366 -0.4773
 9393TIP3   OH249669   3.420   2.379   4.930 -0.0848  0.1223 -0.3520
 9393TIP3    H149670   3.440   2.285   4.935  0.7151  0.2027 -1.8015
 9393TIP3    H249671   3.500   2.419   4.895  0.4959  1.7108  2.5878
 9394TIP3   OH249672   2.252   2.089   3.019 -0.0050 -0.3952 -0.2995
 9394TIP3    H149673   2.292   2.009   3.052 -2.0100 -1.3351 -0.0704
 9394TIP3    H249674   2.314   2.121   2.954  1.1019 -1.8211  0.0149
 9395TIP3   OH249675   4.756   3.849  16.915  0.0723 -0.1170 -0.1188
 9395TIP3    H149676   4.667   3.836  16.947 -0.1527 -2.4382 -1.5495
 9395TIP3    H249677   4.786   3.929  16.959 -3.0202  1.2319 -0.3076
 9396TIP3   OH249678   0.989   5.189   3.216  0.2384 -0.2477 -0.0564
 9396TIP3    H149679   0.988   5.203   3.310 -0.1644  0.0949 -0.1097
 9396TIP3    H249680   0.903   5.218   3.186 -0.4156 -2.2785 -0.2473
 9397TIP3   OH249681   1.391   1.872   5.107 -0.6284 -0.0796  0.2385
 9397TIP3    H149682   1.467   1.867   5.165  0.0624 -1.7574 -0.7872
 9397TIP3    H249683   1.366   1.781   5.092 -0.6784  0.3006 -2.2223
 9398TIP3   OH249684   1.891   2.847   0.653  0.2261  0.4645  0.3493
 9398TIP3    H149685   1.798   2.844   0.678  0.4924  0.9813  1.4047
 9398TIP3    H249686   1.913   2.940   0.655  0.9404  0.2904  0.7314
 9399TIP3   OH249687   2.285   3.407  13.399  0.0169  0.5785 -0.2089
 9399TIP3    H149688   2.197   3.433  13.428 -0.1241  1.1086 -1.0976
 9399TIP3    H249689   2.342   3.430  13.473 -0.5962  0.1935  0.3878
 9400TIP3   OH249690   6.428   0.652  12.188 -0.2697 -0.0662 -0.3172
 9400TIP3    H149691   6.519   0.669  12.163 -0.0237 -2.5905 -1.2657
 9400TIP3    H249692   6.377   0.693  12.119  0.1857  0.1947 -0.5032
 9401TIP3   OH249693   5.685   0.959  15.176  0.4743  0.3340 -0.0317
 9401TIP3    H149694   5.702   0.978  15.269 -0.3083 -0.2664  0.2383
 9401TIP3    H249695   5.674   1.046  15.136 -1.4324  0.5521  0.8843
 9402TIP3   OH249696   5.140   1.515   0.266 -0.0901  0.4816 -0.1631
 9402TIP3    H149697   5.186   1.437   0.232 -1.2392  0.2133 -1.1516
 9402TIP3    H249698   5.194   1.588   0.239  1.0356  0.0302  0.8216
 9403TIP3   OH249699   2.263   2.987  13.628 -0.4060 -0.1506  0.5847
 9403TIP3    H149700   2.304   2.913  13.672  2.3734 -0.0518 -1.6689
 9403TIP3    H249701   2.319   3.062  13.651  0.2524  0.1434 -1.8397
 9404TIP3   OH249702   5.586   2.656   2.247  0.0855  0.0725  0.6157
 9404TIP3    H149703   5.580   2.599   2.324 -1.1197 -0.1636  0.3548
 9404TIP3    H249704   5.512   2.716   2.257 -0.3092 -0.2161 -0.5620
 9405TIP3   OH249705   2.349   4.194   0.584  0.3617 -0.2438  0.0055
 9405TIP3    H149706   2.406   4.221   0.512 -1.3507  0.9586 -0.9244
 9405TIP3    H249707   2.346   4.270   0.642 -2.1558  0.5791 -1.1463
 9406TIP3   OH249708   3.783   5.411   1.475  0.2333  0.2909  0.4927
 9406TIP3    H149709   3.811   5.348   1.541 -1.1390 -1.1932 -0.3060
 9406TIP3    H249710   3.695   5.437   1.502  0.4139  1.1405  0.2849
 9407TIP3   OH249711   5.731   4.255   3.162  0.0412 -0.0396  0.9464
 9407TIP3    H149712   5.718   4.320   3.232 -2.5286 -0.2521  0.7116
 9407TIP3    H249713   5.762   4.177   3.208 -0.0422  0.3295  1.6472
 9408TIP3   OH249714   1.074   6.198  15.125  0.1063 -0.3136  0.1929
 9408TIP3    H149715   1.027   6.141  15.064 -1.0843 -0.8339  1.5877
 9408TIP3    H249716   1.062   6.158  15.210 -0.4613  1.8309  1.1629
 9409TIP3   OH249717   2.635   4.234  17.191 -0.2360 -0.8937 -0.0435
 9409TIP3    H149718   2.668   4.254  17.278 -1.0184 -2.2043  0.5721
 9409TIP3    H249719   2.540   4.228  17.202 -0.6785  1.9650 -1.5975
 9410TIP3   OH249720   5.214   2.968   5.774  0.2415 -0.9164  0.2706
 9410TIP3    H149721   5.170   3.051   5.755 -1.2614 -1.4358  1.4160
 9410TIP3    H249722   5.266   2.986   5.852  1.7085 -0.4361 -0.8030
 9411TIP3   OH249723   2.766   6.515  14.242  0.0343 -0.2192 -0.2606
 9411TIP3    H149724   2.817   6.498  14.163 -0.0070 -2.1623  0.1071
 9411TIP3    H249725   2.749   6.609  14.240  1.0884 -0.0479 -1.9188
 9412TIP3   OH249726   4.619   6.103  16.691 -0.1367 -0.5842  0.5745
 9412TIP3    H149727   4.712   6.118  16.710 -0.3452 -0.0480  1.2105
 9412TIP3    H249728   4.616   6.088  16.597  0.7260 -1.6501  0.7138
 9413TIP3   OH249729   1.804   6.700   4.398  0.3970 -0.3588 -0.0660
 9413TIP3    H149730   1.709   6.687   4.406  0.2272  0.6540 -0.4186
 9413TIP3    H249731   1.833   6.630   4.340 -0.1184 -0.7198  0.1044
 9414TIP3   OH249732   2.220   4.751  13.289 -0.1697  0.3332 -0.9573
 9414TIP3    H149733   2.136   4.706  13.298  0.6839 -1.1642 -0.1421
 9414TIP3    H249734   2.239   4.785  13.377  0.2564  0.3151 -1.0388
 9415TIP3   OH249735   2.439   5.734   3.045  0.4107 -0.8336 -0.4263
 9415TIP3    H149736   2.428   5.791   3.121 -2.5736  0.4511 -1.7828
 9415TIP3    H249737   2.530   5.749   3.018  0.9872 -0.0131  1.8054
 9416TIP3   OH249738   4.910   1.766   4.150  0.0550 -0.3425 -0.5626
 9416TIP3    H149739   4.850   1.840   4.160  0.2336 -0.3018  0.2749
 9416TIP3    H249740   4.975   1.796   4.087 -0.5485 -0.2203 -1.1311
 9417TIP3   OH249741   2.867   0.809  16.684  0.2931  0.6779 -0.0993
 9417TIP3    H149742   2.904   0.777  16.767  1.2827  2.5169  0.1872
 9417TIP3    H249743   2.860   0.730  16.630  1.0554 -0.3053  1.1937
 9418TIP3   OH249744   0.405   3.007   1.572  0.3987  0.0683 -0.0424
 9418TIP3    H149745   0.385   3.101   1.570  2.2883  0.4725 -0.3785
 9418TIP3    H249746   0.482   2.998   1.516 -0.5857 -1.8980 -1.1349
 9419TIP3   OH249747   0.125   4.721   2.054  0.1462 -0.0500  0.1276
 9419TIP3    H149748   0.083   4.636   2.045  2.1101 -0.8497 -1.7785
 9419TIP3    H249749   0.136   4.732   2.149 -0.6695 -1.6374  0.4176
 9420TIP3   OH249750   3.976   4.615  15.229 -0.0928  0.2255  0.2460
 9420TIP3    H149751   3.990   4.676  15.302  0.1219  0.8790 -0.3276
 9420TIP3    H249752   3.895   4.569  15.251  0.9059 -0.8665  1.7557
 9421TIP3   OH249753   3.670   2.833   3.317  0.0600 -0.2522 -0.2568
 9421TIP3    H149754   3.652   2.739   3.308 -1.1296 -0.4382  3.1603
 9421TIP3    H249755   3.700   2.843   3.408 -0.4231  2.7435 -0.3785
 9422TIP3   OH249756   2.270   6.188  11.975 -0.6967  0.1207 -0.0201
 9422TIP3    H149757   2.288   6.100  11.943  0.3307 -0.2779  1.5877
 9422TIP3    H249758   2.304   6.188  12.064 -0.6192  2.1689 -0.0304
 9423TIP3   OH249759   1.223   1.787  15.814 -0.0144  0.6199 -0.0401
 9423TIP3    H149760   1.137   1.830  15.821 -0.5842 -0.5781  0.4536
 9423TIP3    H249761   1.204   1.694  15.822  1.3944  0.3722  0.5576
 9424TIP3   OH249762   5.123   2.889  17.151 -0.5179  0.3374  0.3970
 9424TIP3    H149763   5.067   2.855  17.081  0.6225 -0.3800 -0.1789
 9424TIP3    H249764   5.079   2.968  17.181 -1.2650  0.3865 -0.8107
 9425TIP3   OH249765   6.203   3.649  17.161 -1.0935 -0.1722  0.4530
 9425TIP3    H149766   6.221   3.617  17.249  1.1059  1.1934  0.5378
 9425TIP3    H249767   6.199   3.745  17.170  1.4545  0.1426 -1.2919
 9426TIP3   OH249768   0.420   1.008   4.315  0.1817  0.4413 -0.7519
 9426TIP3    H149769   0.487   0.964   4.367 -0.5349  0.1273 -0.0928
 9426TIP3    H249770   0.413   0.954   4.236 -0.1373 -0.1962 -0.2924
 9427TIP3   OH249771   0.252   4.929   3.044 -0.1524 -0.0974 -0.2027
 9427TIP3    H149772   0.204   4.997   3.092 -2.9420 -0.2454 -2.6205
 9427TIP3    H249773   0.236   4.950   2.952  2.9096 -1.3187 -1.0587
 9428TIP3   OH249774   1.393   0.785  13.867  0.6808  0.5441  0.1996
 9428TIP3    H149775   1.333   0.823  13.803  0.9844  1.2088  0.3119
 9428TIP3    H249776   1.477   0.777  13.821  0.6433  0.0871  0.2034
 9429TIP3   OH249777   0.500   6.785  12.545  0.2385 -0.0607 -0.3552
 9429TIP3    H149778   0.558   6.808  12.617  0.4670 -0.4353 -0.4156
 9429TIP3    H249779   0.413   6.813  12.573  0.4939  0.7629 -0.3862
 9430TIP3   OH249780   2.229   6.453  11.266  0.0201 -0.5178  0.3371
 9430TIP3    H149781   2.252   6.526  11.323  1.3172 -0.7860  0.1753
 9430TIP3    H249782   2.313   6.414  11.242 -0.5923 -1.2854 -0.6008
 9431TIP3   OH249783   5.692   6.171   0.123 -0.0558 -0.3918  0.0736
 9431TIP3    H149784   5.770   6.136   0.167 -0.4749 -0.2138  0.9659
 9431TIP3    H249785   5.701   6.266   0.131  0.0435 -0.3473 -0.5436
 9432TIP3   OH249786   5.733   2.271   0.941 -0.0041 -0.3853  0.4291
 9432TIP3    H149787   5.741   2.349   0.886 -0.7579 -0.5699  0.0541
 9432TIP3    H249788   5.788   2.289   1.017  2.3607 -0.7644 -1.1196
 9433TIP3   OH249789   6.490   1.421   0.455 -0.0157  0.1430  0.8375
 9433TIP3    H149790   6.561   1.372   0.412 -0.3471 -1.0153  1.6155
 9433TIP3    H249791   6.426   1.435   0.385  0.4601  0.2127  0.4072
 9434TIP3   OH249792   1.218   1.773  13.403 -0.7451  0.1687  0.5613
 9434TIP3    H149793   1.177   1.714  13.466 -0.7954  0.1316  0.4952
 9434TIP3    H249794   1.250   1.846  13.455 -3.7744  1.7962  0.2511
 9435TIP3   OH249795   6.664   4.931  15.673  0.4175 -0.0751 -0.5017
 9435TIP3    H149796   6.713   4.945  15.592  2.8037 -0.4601  0.8008
 9435TIP3    H249797   6.731   4.936  15.742 -1.1854 -1.8902  1.2568
 9436TIP3   OH249798   5.905   1.151   0.360 -0.0455 -0.4652 -0.1711
 9436TIP3    H149799   5.929   1.128   0.271 -1.4436 -0.6089 -0.5224
 9436TIP3    H249800   5.988   1.159   0.406  0.6364 -1.7678 -1.1500
 9437TIP3   OH249801   5.285   6.551   0.018 -0.4736 -0.0793 -0.1160
 9437TIP3    H149802   5.357   6.606   0.049  0.0518 -1.3029  0.8629
 9437TIP3    H249803   5.266   6.493   0.091 -0.3028 -1.9086 -1.4955
 9438TIP3   OH249804   4.470   5.544  16.311  0.1198  0.3362  0.5516
 9438TIP3    H149805   4.399   5.608  16.303  2.9750  3.4876 -0.7867
 9438TIP3    H249806   4.516   5.569  16.391  0.5395 -0.7963  0.6672
 9439TIP3   OH249807   1.589   4.537  14.949  0.5814  0.1092  1.0250
 9439TIP3    H149808   1.676   4.571  14.966 -0.3824  2.3251  1.6723
 9439TIP3    H249809   1.541   4.553  15.031 -0.0317 -2.4384  1.2106
 9440TIP3   OH249810   4.750   5.895  14.431  0.3572 -0.6710 -0.0301
 9440TIP3    H149811   4.785   5.983  14.439 -2.1109  0.2651  1.0504
 9440TIP3    H249812   4.801   5.855  14.360 -0.1648  2.4626 -2.2805
 9441TIP3   OH249813   0.894   2.078  14.463  0.3592 -0.3122  0.2658
 9441TIP3    H149814   0.830   2.056  14.397  0.8790 -0.5876 -0.1515
 9441TIP3    H249815   0.930   2.163  14.435  0.5916 -0.4367  0.1819
 9442TIP3   OH249816   5.518   1.820  16.767  0.0992  0.9347 -0.3747
 9442TIP3    H149817   5.520   1.826  16.671  1.3055 -0.0834 -0.4334
 9442TIP3    H249818   5.535   1.909  16.797 -0.6619  1.3288 -1.1128
 9443TIP3   OH249819   1.508   4.273  14.794  0.5882 -0.6029 -0.1285
 9443TIP3    H149820   1.563   4.341  14.834  0.4149 -0.5260 -0.0183
 9443TIP3    H249821   1.511   4.200  14.855 -0.7212 -0.0140  0.6735
 9444TIP3   OH249822   2.106   1.787  11.075 -0.3620 -0.0396  0.0410
 9444TIP3    H149823   2.182   1.783  11.017  0.5576 -1.5642  1.3081
 9444TIP3    H249824   2.036   1.744  11.025 -0.5504  1.7739 -1.3147
 9445TIP3   OH249825   0.796   6.783  15.397  0.2954  0.3105  0.0205
 9445TIP3    H149826   0.750   6.804  15.316  2.8312 -0.1015 -1.6035
 9445TIP3    H249827   0.817   6.869  15.435  0.5864  0.5346 -0.6397
 9446TIP3   OH249828   6.572   2.404   3.184  0.3073  0.3488 -0.4633
 9446TIP3    H149829   6.571   2.332   3.247 -0.8023  0.9812  0.2611
 9446TIP3    H249830   6.507   2.466   3.218  0.4195  1.1510 -1.6995
 9447TIP3   OH249831   4.306   4.908   5.512  0.2810 -0.3667 -0.0417
 9447TIP3    H149832   4.275   4.974   5.449 -1.3840 -1.1826 -0.1216
 9447TIP3    H249833   4.334   4.834   5.458 -1.0621 -1.0330  0.1511
 9448TIP3   OH249834   3.643   3.028   3.969 -0.0126 -0.3440  0.2298
 9448TIP3    H149835   3.712   3.048   3.906 -2.3020  2.3828 -1.4914
 9448TIP3    H249836   3.670   3.076   4.048  0.7267 -0.3535 -0.0077
 9449TIP3   OH249837   0.564   2.237  13.296 -0.3351 -0.1599  0.4650
 9449TIP3    H149838   0.494   2.226  13.360 -0.6459  1.1397  0.3584
 9449TIP3    H249839   0.559   2.158  13.242 -2.5684  0.5269 -0.3631
 9450TIP3   OH249840   2.224   0.613   4.677  0.1088 -0.6035 -0.1442
 9450TIP3    H149841   2.162   0.686   4.685  0.4876 -0.4232  1.3253
 9450TIP3    H249842   2.294   0.647   4.621 -0.2972 -0.2470 -0.4370
 9451TIP3   OH249843   5.198   5.443   3.755 -0.0070 -0.0142  0.4819
 9451TIP3    H149844   5.265   5.377   3.741  0.6591  1.0213 -1.3674
 9451TIP3    H249845   5.147   5.410   3.829  1.6239 -1.5259  0.9598
 9452TIP3   OH249846   1.692   0.023  12.629 -0.0084 -0.4077  0.1668
 9452TIP3    H149847   1.601  -0.003  12.622  0.1833 -0.6344 -1.8480
 9452TIP3    H249848   1.691   0.118  12.617 -0.2322 -0.0663  2.7725
 9453TIP3   OH249849   0.910   5.151   4.969 -0.3545  0.6325 -0.2677
 9453TIP3    H149850   0.824   5.194   4.966 -0.1810  0.9314 -1.0232
 9453TIP3    H249851   0.908   5.100   5.050 -0.9183  1.3191  0.1600
 9454TIP3   OH249852   3.105   1.623  15.938 -0.0353 -0.1389  0.4541
 9454TIP3    H149853   3.169   1.559  15.969 -1.9061 -2.5336 -0.4357
 9454TIP3    H249854   3.109   1.616  15.842 -2.1013 -0.8824  0.3869
 9455TIP3   OH249855   6.622   3.395   3.322  0.3404  0.1749  0.3973
 9455TIP3    H149856   6.601   3.416   3.413 -1.1350 -1.4595  0.4709
 9455TIP3    H249857   6.537   3.388   3.278  0.8519 -2.3348 -0.3128
 9456TIP3   OH249858   5.850   0.439   0.254  0.5816  0.8469  0.3942
 9456TIP3    H149859   5.936   0.479   0.257  0.7296  0.7512 -1.9002
 9456TIP3    H249860   5.868   0.345   0.245  0.2411  0.8652 -0.4836
 9457TIP3   OH249861   3.929   4.631   1.671  0.0263  0.6092  0.5637
 9457TIP3    H149862   3.914   4.560   1.733  2.2159 -1.4935 -1.2336
 9457TIP3    H249863   3.861   4.619   1.604  0.9915 -0.4304 -0.2518
 9458TIP3   OH249864   3.762   1.559   1.434  0.0229 -0.2700 -0.1615
 9458TIP3    H149865   3.678   1.604   1.423 -0.1823 -0.7729 -0.6751
 9458TIP3    H249866   3.739   1.469   1.457  0.4329 -0.2063  0.5157
 9459TIP3   OH249867   0.562   3.604   0.277  0.3036 -0.3655 -0.4666
 9459TIP3    H149868   0.608   3.521   0.284 -0.6139 -0.8759 -0.3886
 9459TIP3    H249869   0.536   3.624   0.367 -0.7164 -0.7180 -0.6738
 9460TIP3   OH249870   0.014   5.171  11.375  0.1007  0.4554  0.3565
 9460TIP3    H149871  -0.076   5.161  11.344  0.8584 -2.5376 -1.0803
 9460TIP3    H249872   0.006   5.189  11.468 -1.9650 -1.8232  0.6575
 9461TIP3   OH249873   6.497   0.173   4.705  0.5665  0.2714  0.0577
 9461TIP3    H149874   6.544   0.122   4.771 -0.0829  0.2911  0.5514
 9461TIP3    H249875   6.451   0.108   4.652  0.4429  0.2914  0.1381
 9462TIP3   OH249876   5.093   0.849   4.520 -0.4931  0.1036 -0.1602
 9462TIP3    H149877   5.117   0.942   4.519  0.2292 -0.0594  1.3123
 9462TIP3    H249878   5.072   0.829   4.428 -2.3526  2.1466 -0.2209
 9463TIP3   OH249879   5.818   2.693  15.709 -0.2395  0.0346 -0.1914
 9463TIP3    H149880   5.839   2.738  15.627  1.6700 -0.2117  0.1440
 9463TIP3    H249881   5.872   2.614  15.708 -0.4576 -0.1415  1.1503
 9464TIP3   OH249882   5.263   5.474   5.039  0.2629  0.1145  0.2563
 9464TIP3    H149883   5.301   5.401   5.087 -0.1891 -1.2547 -1.4009
 9464TIP3    H249884   5.336   5.510   4.988  0.3022  0.2638  0.4197
 9465TIP3   OH249885   3.870   2.700   6.009 -0.5083  0.2249  0.0211
 9465TIP3    H149886   3.792   2.721   6.061 -3.0523  1.1843 -3.9967
 9465TIP3    H249887   3.893   2.782   5.966  0.3084 -0.9963 -1.9297
 9466TIP3   OH249888   4.647   2.116  15.413  0.1373  0.1297  0.1968
 9466TIP3    H149889   4.563   2.119  15.459 -0.2138 -1.0846 -0.3414
 9466TIP3    H249890   4.624   2.121  15.320  0.5260 -1.9391 -0.0263
 9467TIP3   OH249891   2.613   0.059   5.259  0.0611 -0.0218 -0.4629
 9467TIP3    H149892   2.657   0.123   5.203  1.0896  0.3390  0.7244
 9467TIP3    H249893   2.672   0.048   5.334 -0.7205 -1.3820 -0.0180
 9468TIP3   OH249894   0.994   4.990   0.037 -0.3088  0.2037  0.0347
 9468TIP3    H149895   0.909   5.020   0.003 -0.9524 -0.9583  0.5857
 9468TIP3    H249896   1.043   4.965  -0.040 -1.9477 -2.9106 -0.0653
 9469TIP3   OH249897   3.092   4.823  13.564 -0.7485  0.1138  0.5302
 9469TIP3    H149898   3.074   4.882  13.491 -0.2061  0.2985  0.5420
 9469TIP3    H249899   3.160   4.764  13.531 -0.8806 -0.1394  0.7103
 9470TIP3   OH249900   0.021   2.195   2.790  0.5141 -0.2795  0.0167
 9470TIP3    H149901  -0.008   2.148   2.712  0.8243 -0.3864 -0.0341
 9470TIP3    H249902  -0.060   2.209   2.840  0.4084 -0.8186  0.0078
 9471TIP3   OH249903   1.838   5.562   3.369  0.1651  0.5965  0.4131
 9471TIP3    H149904   1.895   5.620   3.317  0.0818 -0.7409 -1.2172
 9471TIP3    H249905   1.806   5.617   3.440  2.0621  1.8765  0.3161
 9472TIP3   OH249906   2.087   2.007  13.360 -0.2737 -0.2934 -0.5148
 9472TIP3    H149907   2.143   1.994  13.283 -0.7107 -2.3904 -0.5123
 9472TIP3    H249908   1.998   1.994  13.327 -0.5844  0.3726  0.0389
 9473TIP3   OH249909   5.888   4.569  12.446 -0.0638  0.1243  0.1811
 9473TIP3    H149910   5.907   4.535  12.534 -0.7495  2.7896  1.4208
 9473TIP3    H249911   5.907   4.662  12.452  0.9284  0.1676 -2.8565
 9474TIP3   OH249912   3.166   0.904  15.448 -0.0174  0.4324 -0.3884
 9474TIP3    H149913   3.093   0.906  15.386  0.0709 -1.5270 -0.5818
 9474TIP3    H249914   3.219   0.829  15.420  1.6220  1.3273  0.2607
 9475TIP3   OH249915   0.313   6.796   3.610 -0.1181 -0.2590  0.1056
 9475TIP3    H149916   0.224   6.791   3.576 -1.4757 -0.3397  3.4891
 9475TIP3    H249917   0.315   6.878   3.659  0.6814 -1.7420  2.6325
 9476TIP3   OH249918   1.583   5.366  13.656 -0.7020 -0.3428  0.1662
 9476TIP3    H149919   1.671   5.364  13.694 -0.6421 -1.7451 -0.0129
 9476TIP3    H249920   1.571   5.456  13.628  0.7073 -0.1506  0.1433
 9477TIP3   OH249921   0.018   0.160   4.283 -0.0047  0.5726 -0.4478
 9477TIP3    H149922  -0.039   0.185   4.357  0.0616  2.1052 -0.8932
 9477TIP3    H249923  -0.033   0.096   4.234 -0.4272  0.2382  0.4311
 9478TIP3   OH249924   0.157   6.325  16.501 -0.0510 -0.1481  0.5417
 9478TIP3    H149925   0.218   6.254  16.521 -1.0176 -0.5760  2.0264
 9478TIP3    H249926   0.071   6.285  16.505 -0.5261  0.8080  0.0273
 9479TIP3   OH249927   0.759   2.064   2.386  0.6557 -0.0575 -0.3004
 9479TIP3    H149928   0.715   2.063   2.301 -2.2045  1.3405  1.0931
 9479TIP3    H249929   0.807   2.147   2.387  1.2907 -0.4216 -0.8514
 9480TIP3   OH249930   6.174   0.358  15.888  0.2209 -0.7611  0.0575
 9480TIP3    H149931   6.183   0.265  15.867 -0.7541 -1.0038  0.7155
 9480TIP3    H249932   6.239   0.401  15.831  1.8528 -1.9776  0.9397
 9481TIP3   OH249933   6.525   3.058  12.265  0.7095 -0.0889 -0.9378
 9481TIP3    H149934   6.545   3.046  12.358  3.6796 -0.5140 -1.6126
 9481TIP3    H249935   6.580   3.132  12.238 -1.6360  1.3826 -1.9228
 9482TIP3   OH249936   4.621   2.832   0.509 -0.3080 -0.0426  0.6961
 9482TIP3    H149937   4.653   2.822   0.599  0.0393 -0.9463  0.4843
 9482TIP3    H249938   4.596   2.743   0.483 -0.4595  0.2230 -0.0788
 9483TIP3   OH249939   0.763   4.386   3.260  0.4697 -0.3763  0.4369
 9483TIP3    H149940   0.774   4.472   3.218 -0.9047 -1.9333 -3.3540
 9483TIP3    H249941   0.845   4.340   3.240  0.1340 -0.8637  0.1945
 9484TIP3   OH249942   4.239   6.731  16.229  0.0979  0.1118  0.1908
 9484TIP3    H149943   4.187   6.733  16.149 -0.3593  1.4574  0.5045
 9484TIP3    H249944   4.307   6.796  16.215 -0.4702  0.9410  1.1987
 9485TIP3   OH249945   6.253   6.598  11.209  0.2837  0.0893 -0.1883
 9485TIP3    H149946   6.278   6.678  11.163  2.0829  0.5076  1.4316
 9485TIP3    H249947   6.158   6.595  11.201  0.2451  2.0273 -0.8808
 9486TIP3   OH249948   3.688   6.202   2.701  0.4541  0.2648  0.2656
 9486TIP3    H149949   3.677   6.184   2.608  0.7764  0.7414  0.1296
 9486TIP3    H249950   3.732   6.287   2.704 -2.5634  1.8399  0.9108
 9487TIP3   OH249951   0.196   2.105   6.024 -0.4816 -0.5390 -0.3649
 9487TIP3    H149952   0.203   2.043   6.097 -1.8630  0.5312  0.7093
 9487TIP3    H249953   0.106   2.095   5.993 -0.9130  1.2994  0.1989
 9488TIP3   OH249954   0.714   2.043  12.733 -0.2016  0.4545  0.1435
 9488TIP3    H149955   0.762   2.078  12.808  0.2944 -1.3110  0.6725
 9488TIP3    H249956   0.623   2.068  12.749 -0.2051 -0.4861  1.6843
 9489TIP3   OH249957   0.597   3.941  12.358 -0.6500  0.1934  0.3295
 9489TIP3    H149958   0.655   3.868  12.337 -1.4172 -0.8796  1.8355
 9489TIP3    H249959   0.627   3.972  12.444 -1.7053  0.2239  0.6964
 9490TIP3   OH249960   2.894   2.270  17.000 -0.1726 -0.4122  0.8779
 9490TIP3    H149961   2.844   2.253  17.080  1.8127 -2.0961  1.7758
 9490TIP3    H249962   2.969   2.211  17.005  0.3762  0.0079 -1.8693
 9491TIP3   OH249963   2.447   5.658  17.075  0.2533 -0.2161  0.0819
 9491TIP3    H149964   2.447   5.751  17.050 -0.4507  0.1399  1.3853
 9491TIP3    H249965   2.488   5.614  17.001 -0.2267  1.0351 -0.9589
 9492TIP3   OH249966   6.454   1.707  13.148 -0.0258  0.0365 -0.6286
 9492TIP3    H149967   6.467   1.773  13.217  1.2862  0.7368 -1.5161
 9492TIP3    H249968   6.360   1.690  13.149 -0.5753  2.7309 -1.0889
 9493TIP3   OH249969   3.229   6.085  12.662 -0.5773 -0.0441  0.3073
 9493TIP3    H149970   3.142   6.078  12.624  0.2323  1.8843 -2.0039
 9493TIP3    H249971   3.224   6.162  12.719 -0.8838 -1.0516  1.6790
 9494TIP3   OH249972   1.729   4.691  15.174 -1.0386 -0.0377  0.4552
 9494TIP3    H149973   1.784   4.642  15.235 -0.8429  0.0508  0.3507
 9494TIP3    H249974   1.639   4.667  15.197 -0.9303 -0.7230  0.1771
 9495TIP3   OH249975   2.788   4.897  12.610 -0.5400  0.0437 -0.2105
 9495TIP3    H149976   2.788   4.879  12.516 -0.4891 -1.3663  0.0492
 9495TIP3    H249977   2.831   4.821  12.649 -0.3071  0.7478  0.9387
 9496TIP3   OH249978   4.159   0.943  16.274  0.3817 -0.0052  0.0366
 9496TIP3    H149979   4.090   0.944  16.341  0.9051 -1.0035  0.6072
 9496TIP3    H249980   4.182   0.850  16.266  1.2183  0.2591 -0.6154
 9497TIP3   OH249981   2.700   6.335  13.811 -0.7254  0.1831 -0.6298
 9497TIP3    H149982   2.651   6.400  13.760  0.0408  0.2225 -1.3319
 9497TIP3    H249983   2.648   6.322  13.890 -1.2136  1.1698 -0.7833
 9498TIP3   OH249984   3.608   0.751  15.530  0.2279 -0.2630 -0.1649
 9498TIP3    H149985   3.645   0.726  15.445  1.0438 -1.1577  0.4423
 9498TIP3    H249986   3.666   0.820  15.562  0.0467 -0.0771 -0.2371
 9499TIP3   OH249987   0.697   4.827   0.142  0.8935 -0.3055  0.5549
 9499TIP3    H149988   0.604   4.835   0.165  1.1963  1.0239  1.3387
 9499TIP3    H249989   0.697   4.773   0.063 -0.6881  1.1708 -0.4966
 9500TIP3   OH249990   3.143   1.026   2.781 -0.0706  0.0160  0.6895
 9500TIP3    H149991   3.175   1.038   2.692 -1.2504  1.7552  0.4613
 9500TIP3    H249992   3.176   0.940   2.808 -2.2739 -1.9861 -2.5713
 9501TIP3   OH249993   5.413   0.489   3.125 -0.1952 -0.2754  0.1195
 9501TIP3    H149994   5.413   0.401   3.086  1.0447 -0.1643 -0.1372
 9501TIP3    H249995   5.390   0.547   3.052 -1.1016 -0.3818  0.3084
 9502TIP3   OH249996   5.858   3.219  15.709 -0.3172 -0.1869 -0.2834
 9502TIP3    H149997   5.842   3.165  15.631  0.6431 -1.6235  0.4956
 9502TIP3    H249998   5.932   3.274  15.686  0.6997 -1.4235  0.0031
 9503TIP3   OH249999   1.267   1.368   1.278  0.0877  0.6763  0.0175
 9503TIP3    H150000   1.317   1.354   1.358  0.5653  0.1029 -0.3768
 9503TIP3    H250001   1.264   1.282   1.236 -0.8385  0.8050 -0.1832
 9504TIP3   OH250002   2.010   2.196   0.779 -0.1985 -0.0198  0.2138
 9504TIP3    H150003   2.029   2.175   0.688  0.2160  1.5535 -0.0788
 9504TIP3    H250004   2.066   2.272   0.798 -1.5602  0.7483  1.2433
 9505TIP3   OH250005   2.014   2.142  16.501 -0.2626  0.1696 -0.3205
 9505TIP3    H150006   2.038   2.049  16.497  0.7699  0.4025  0.4380
 9505TIP3    H250007   2.033   2.168  16.591 -0.7277  1.0726 -0.4829
 9506TIP3   OH250008   2.260   4.929  16.685 -0.7828 -1.2406 -0.5352
 9506TIP3    H150009   2.206   4.874  16.742 -0.7363 -1.7445 -0.9687
 9506TIP3    H250010   2.206   4.941  16.606 -0.6934 -0.8595 -0.5374
 9507TIP3   OH250011   5.830   0.550   1.697  0.6002 -0.3373 -0.0480
 9507TIP3    H150012   5.894   0.621   1.703  1.1398 -0.6098 -2.2259
 9507TIP3    H250013   5.882   0.472   1.681 -0.0144 -1.2284  2.0860
 9508TIP3   OH250014   3.537   5.979   4.031 -0.2194 -0.2261  0.4920
 9508TIP3    H150015   3.490   6.058   4.006  1.4371  0.5222 -0.3860
 9508TIP3    H250016   3.558   5.937   3.948 -0.1451 -1.0226  0.9108
 9509TIP3   OH250017   4.191   4.744   0.659 -0.2467 -0.1860 -0.2318
 9509TIP3    H150018   4.267   4.803   0.662  0.1649 -0.5676 -2.3733
 9509TIP3    H250019   4.132   4.785   0.596 -1.3189 -0.4960  0.5585
 9510TIP3   OH250020   5.191   2.755   1.439 -0.0636  0.2142  0.3595
 9510TIP3    H150021   5.112   2.809   1.445 -1.3001 -1.2182 -2.2952
 9510TIP3    H250022   5.185   2.696   1.514 -1.3057  0.3822  0.4046
 9511TIP3   OH250023   3.378   0.959   4.928  0.6025  0.4841 -0.6083
 9511TIP3    H150024   3.471   0.955   4.949  0.2737  1.0670  1.0802
 9511TIP3    H250025   3.336   0.983   5.011 -1.2194 -1.6397 -0.8496
 9512TIP3   OH250026   4.033   3.109  15.595  0.4452 -0.0251  0.4648
 9512TIP3    H150027   4.055   3.062  15.676 -1.4469  0.6700  1.3990
 9512TIP3    H250028   4.047   3.044  15.526  0.2269 -1.2167  1.5147
 9513TIP3   OH250029   2.381   6.030   0.268 -0.4688 -0.1620  0.1401
 9513TIP3    H150030   2.411   5.957   0.214 -1.3739  0.0243 -0.6250
 9513TIP3    H250031   2.311   6.070   0.217 -1.2841  0.0648  1.4187
 9514TIP3   OH250032   1.985   3.495  15.335  0.1782 -0.4046 -0.5512
 9514TIP3    H150033   1.949   3.577  15.301  2.2374  0.6087 -0.3752
 9514TIP3    H250034   2.062   3.478  15.281  0.5816 -1.4818  0.3246
 9515TIP3   OH250035   5.524   5.791   3.755 -0.2369  0.0108 -0.4254
 9515TIP3    H150036   5.481   5.719   3.710 -0.9129  0.6995 -0.9077
 9515TIP3    H250037   5.470   5.807   3.833  2.0731 -2.5193  1.7663
 9516TIP3   OH250038   2.135   6.006   4.855  0.7734 -0.3321  0.1529
 9516TIP3    H150039   2.178   5.973   4.933  1.7091  2.4913  0.8880
 9516TIP3    H250040   2.049   6.034   4.885 -0.4162 -2.9032 -0.6705
 9517TIP3   OH250041   5.295   2.679   2.657  0.0125  0.4009 -0.0588
 9517TIP3    H150042   5.366   2.731   2.695  0.1142 -0.3638  0.8182
 9517TIP3    H250043   5.294   2.598   2.709 -1.4745  0.3821 -0.1046
 9518TIP3   OH250044   5.541   6.265  14.545 -0.1815  0.6016  0.4578
 9518TIP3    H150045   5.551   6.172  14.526 -2.0298  0.4948 -0.0658
 9518TIP3    H250046   5.630   6.295  14.565 -0.1411 -2.3735  5.7724
 9519TIP3   OH250047   6.201   1.361  15.650  0.0046  0.7701  0.0502
 9519TIP3    H150048   6.118   1.387  15.690 -0.6220  0.3639 -0.9615
 9519TIP3    H250049   6.186   1.270  15.622  0.6283  0.8581 -0.5768
 9520TIP3   OH250050   4.655   3.001  12.840  0.1988 -0.4067 -0.5517
 9520TIP3    H150051   4.716   2.959  12.900 -1.4081 -0.7949  0.8447
 9520TIP3    H250052   4.642   3.088  12.876  0.8053  0.0853 -1.4923
 9521TIP3   OH250053   1.794   5.176  13.227  0.0526  0.0264  1.0849
 9521TIP3    H150054   1.741   5.211  13.155  1.2456  1.0494  0.7000
 9521TIP3    H250055   1.857   5.244  13.246  0.2218 -0.5470  2.6290
 9522TIP3   OH250056   3.363   1.232   5.522 -0.0390 -0.2892  0.7489
 9522TIP3    H150057   3.439   1.265   5.474 -1.5840  0.6068 -1.1561
 9522TIP3    H250058   3.396   1.158   5.572  2.0154 -0.1269 -0.3221
 9523TIP3   OH250059   6.454   3.531   1.499 -0.5880  0.6622  0.0159
 9523TIP3    H150060   6.400   3.548   1.422 -2.2028  0.6005  1.0973
 9523TIP3    H250061   6.405   3.466   1.549  1.7597 -1.3744 -0.2389
 9524TIP3   OH250062   2.044   2.330   1.473 -0.0266 -0.0271 -0.7895
 9524TIP3    H150063   1.958   2.340   1.433 -0.1292  0.3581 -0.4779
 9524TIP3    H250064   2.032   2.261   1.539  0.3178 -1.1747 -1.9095
 9525TIP3   OH250065   3.013   4.194  15.841 -0.4616 -0.0307 -0.1576
 9525TIP3    H150066   2.977   4.136  15.774 -1.6279 -0.4238  0.7902
 9525TIP3    H250067   2.937   4.241  15.875 -0.2418 -1.4101  2.3776
 9526TIP3   OH250068   6.186   3.096  11.898  0.2635  0.0155  0.5928
 9526TIP3    H150069   6.099   3.070  11.928  0.3619 -0.7453  0.2378
 9526TIP3    H250070   6.216   3.022  11.845  0.5039  0.9263 -0.5584
 9527TIP3   OH250071   5.589   0.452   5.595  0.1655  0.7128 -0.1734
 9527TIP3    H150072   5.500   0.464   5.563  0.4058  4.3110  0.3001
 9527TIP3    H250073   5.635   0.408   5.523 -1.3826  1.0365 -1.3850
 9528TIP3   OH250074   2.474   1.693   4.677  0.0791 -0.4572  0.0197
 9528TIP3    H150075   2.546   1.709   4.738  2.2947  1.6139 -2.9223
 9528TIP3    H250076   2.407   1.757   4.701  1.5072  1.2776 -0.4974
 9529TIP3   OH250077   3.266   5.731   0.287  0.0951 -0.0726  0.5861
 9529TIP3    H150078   3.174   5.749   0.309  0.0679  2.4416 -1.3795
 9529TIP3    H250079   3.311   5.813   0.306  1.5665 -0.6235 -0.4801
 9530TIP3   OH250080   1.946   3.480  11.421 -0.0003  0.1603 -0.2309
 9530TIP3    H150081   1.925   3.462  11.330  0.8115 -1.2704 -0.1457
 9530TIP3    H250082   1.901   3.563  11.440 -0.9696 -0.0302 -1.6281
 9531TIP3   OH250083   1.479   6.493  11.114  0.0914 -0.3286  0.1928
 9531TIP3    H150084   1.545   6.430  11.143 -0.3200 -0.7310  0.2475
 9531TIP3    H250085   1.478   6.486  11.019  1.9337  1.4760 -0.0092
 9532TIP3   OH250086   1.551   2.457   2.243 -0.2209 -0.1935 -0.1052
 9532TIP3    H150087   1.580   2.447   2.334  0.1983  0.7941 -0.1204
 9532TIP3    H250088   1.483   2.391   2.232  0.1562 -0.7369  0.7434
 9533TIP3   OH250089   0.291   1.630  17.080  0.5127 -0.1966 -0.1285
 9533TIP3    H150090   0.272   1.585  17.162  1.5787 -1.5634 -0.6220
 9533TIP3    H250091   0.375   1.674  17.096  0.1602  0.4739 -0.1140
 9534TIP3   OH250092   6.647   0.737   0.795 -0.0713 -0.2475  0.1187
 9534TIP3    H150093   6.618   0.693   0.716 -0.6588 -1.1249  0.8082
 9534TIP3    H250094   6.742   0.730   0.795 -0.1204 -0.8362 -0.1643
 9535TIP3   OH250095   0.040   4.881  11.299  0.1777 -0.5168 -0.2953
 9535TIP3    H150096  -0.037   4.892  11.243  0.2159 -2.1634 -0.7190
 9535TIP3    H250097   0.093   4.958  11.283 -1.2545  0.5074 -0.2100
 9536TIP3   OH250098   5.147   3.628  15.977 -0.9101  0.1732 -0.1788
 9536TIP3    H150099   5.137   3.540  15.941  1.1051 -0.0470 -0.2524
 9536TIP3    H250100   5.242   3.643  15.978 -1.0958  1.3731  2.1543
 9537TIP3   OH250101   1.156   3.252  12.662 -0.0915  0.2906 -0.7187
 9537TIP3    H150102   1.181   3.182  12.602 -0.5966  0.7321 -1.4465
 9537TIP3    H250103   1.183   3.333  12.619  1.1863  0.5228  0.4650
 9538TIP3   OH250104   4.828   3.879  15.917 -0.2670 -0.6096  0.6077
 9538TIP3    H150105   4.836   3.935  15.994  4.3869  1.6887 -1.3175
 9538TIP3    H250106   4.853   3.792  15.948  0.8076  0.1297  1.8919
 9539TIP3   OH250107   1.512   3.811   3.146 -0.1852 -0.3524 -0.1916
 9539TIP3    H150108   1.567   3.837   3.072 -1.2199 -1.2151 -1.2727
 9539TIP3    H250109   1.521   3.883   3.208  2.2582 -0.5272 -0.3000
 9540TIP3   OH250110   0.184   6.311   5.470  0.5759 -0.5598 -0.8775
 9540TIP3    H150111   0.132   6.238   5.504  0.2740 -0.4479 -1.0987
 9540TIP3    H250112   0.133   6.344   5.396 -0.4284  1.3684  0.6545
 9541TIP3   OH250113   6.648   2.758  14.948 -0.5664  0.2871 -0.7575
 9541TIP3    H150114   6.572   2.771  15.005  0.1963  0.8076  0.1847
 9541TIP3    H250115   6.616   2.705  14.876 -1.8316  0.5328 -0.3965
 9542TIP3   OH250116   4.012   5.189   4.902 -0.2846 -0.1146 -0.3117
 9542TIP3    H150117   4.053   5.142   4.829  0.6770 -0.0809  0.1927
 9542TIP3    H250118   4.073   5.261   4.922 -0.2471 -0.4694  0.9013
 9543TIP3   OH250119   3.538   5.200   6.876 -0.1956  0.2766  0.4042
 9543TIP3    H150120   3.452   5.224   6.909 -0.8594  0.8631 -1.6910
 9543TIP3    H250121   3.522   5.121   6.824  0.3910  0.8077 -0.5978
 9544TIP3   OH250122   5.389   1.160   1.591  0.2721 -0.4017 -0.2124
 9544TIP3    H150123   5.352   1.072   1.602 -2.9407  0.4538 -2.9923
 9544TIP3    H250124   5.454   1.150   1.521  1.0762 -0.8458  0.5923
 9545TIP3   OH250125   5.292   1.830   6.356 -0.3253 -0.2007 -0.3476
 9545TIP3    H150126   5.211   1.783   6.370 -0.3875  0.1868  0.6031
 9545TIP3    H250127   5.265   1.918   6.330 -0.2114 -0.0859 -0.0812
 9546TIP3   OH250128   0.935   1.209  12.734  0.7143 -0.5457  0.3654
 9546TIP3    H150129   0.957   1.292  12.775  0.6168 -0.8724  1.0772
 9546TIP3    H250130   1.020   1.171  12.709  0.7511 -0.1770 -0.0708
 9547TIP3   OH250131   5.156   1.669  12.308 -0.1639 -0.4700  0.0314
 9547TIP3    H150132   5.083   1.628  12.355 -0.4437 -0.1573 -0.1276
 9547TIP3    H250133   5.197   1.726  12.373  1.4610 -2.5010  0.8382
 9548TIP3   OH250134   5.224   5.011   1.232  0.1668 -0.1343  0.4693
 9548TIP3    H150135   5.294   5.066   1.196  1.7379 -1.7744  0.9020
 9548TIP3    H250136   5.271   4.937   1.271 -1.8517 -1.3820  0.5591
 9549TIP3   OH250137   2.071   3.985  17.122 -0.0080 -0.4521 -0.3764
 9549TIP3    H150138   2.132   4.053  17.095 -0.8774 -0.1495 -1.5854
 9549TIP3    H250139   2.077   3.984  17.218  1.7690 -0.3210 -0.4770
 9550TIP3   OH250140   0.039   1.145  16.954  0.3140 -0.2488  0.2448
 9550TIP3    H150141  -0.026   1.117  16.888  0.3023  1.5649 -0.5380
 9550TIP3    H250142   0.102   1.197  16.905  2.2243 -1.7178  1.0698
 9551TIP3   OH250143   2.368   3.076   0.665  0.4386  0.3182 -0.4327
 9551TIP3    H150144   2.442   3.116   0.710  1.3033 -3.5155  1.8216
 9551TIP3    H250145   2.295   3.082   0.727  1.0282 -2.9011  0.7100
 9552TIP3   OH250146   0.082   1.406  13.928 -0.4032  0.5806  0.2244
 9552TIP3    H150147   0.171   1.431  13.955 -0.1335  1.5698 -1.5353
 9552TIP3    H250148   0.095   1.353  13.849 -1.4602  2.3591 -1.1657
 9553TIP3   OH250149   6.409   5.005   4.349 -0.5290 -0.0798 -0.2193
 9553TIP3    H150150   6.409   4.909   4.350  0.5924 -0.0815  1.6309
 9553TIP3    H250151   6.322   5.028   4.382 -0.8086 -0.4501 -0.6827
 9554TIP3   OH250152   1.527   3.050  16.898  0.2274 -0.0290  0.0965
 9554TIP3    H150153   1.526   3.131  16.950  0.1978 -0.6212  1.0243
 9554TIP3    H250154   1.594   2.996  16.939 -0.0149 -0.6256 -0.2893
 9555TIP3   OH250155   1.402   3.258   0.541  0.1284  0.2138  0.1647
 9555TIP3    H150156   1.355   3.309   0.475  0.1072 -0.2722 -0.1967
 9555TIP3    H250157   1.337   3.240   0.608 -0.7546 -2.1940 -1.2947
 9556TIP3   OH250158   5.042   4.340  15.004  0.5138  0.2947  0.1779
 9556TIP3    H150159   5.100   4.411  15.033  0.4772 -0.0874  1.2046
 9556TIP3    H250160   4.982   4.382  14.943  1.1323  0.9408  0.0073
 9557TIP3   OH250161   1.136   5.485  10.824  0.2328  0.1173 -0.0810
 9557TIP3    H150162   1.096   5.512  10.741  0.7789  0.5385 -0.2075
 9557TIP3    H250163   1.062   5.468  10.882 -0.1385  0.3514 -0.4856
 9558TIP3   OH250164   0.342   1.457  13.917  0.4333  0.1121  0.0301
 9558TIP3    H150165   0.417   1.444  13.859 -0.4188  0.1996 -1.1157
 9558TIP3    H250166   0.322   1.550  13.911  0.2460  0.0975  0.3562
 9559TIP3   OH250167   6.589   3.472   4.872 -0.0284  0.5531 -0.0921
 9559TIP3    H150168   6.575   3.378   4.883  0.7054  0.0917 -2.6953
 9559TIP3    H250169   6.634   3.479   4.788  2.4328  3.0336  1.3633
 9560TIP3   OH250170   6.237   0.289  13.611 -0.8787  0.7266 -0.8934
 9560TIP3    H150171   6.208   0.380  13.619 -0.9433  0.6465 -0.1355
 9560TIP3    H250172   6.304   0.290  13.543 -0.5458  1.4232 -0.5575
 9561TIP3   OH250173   4.991   3.008   3.506 -0.4855 -0.2969  0.1534
 9561TIP3    H150174   4.997   3.091   3.554 -1.6390 -0.1689  0.0803
 9561TIP3    H250175   5.062   2.955   3.542  0.7453  0.9874 -0.3342
 9562TIP3   OH250176   0.434   5.896   0.190  0.2974  1.0018 -0.3128
 9562TIP3    H150177   0.515   5.946   0.188  1.0069 -0.1518 -0.7918
 9562TIP3    H250178   0.373   5.949   0.138  0.5775  2.1196  0.4710
 9563TIP3   OH250179   2.481   4.377   6.808  0.2468  0.4452  0.8885
 9563TIP3    H150180   2.452   4.380   6.900  0.1626  0.7979  0.8506
 9563TIP3    H250181   2.515   4.464   6.790 -0.5759  0.6524  0.3155
 9564TIP3   OH250182   0.711   1.790  16.185 -0.1237  0.5368 -0.0077
 9564TIP3    H150183   0.636   1.731  16.184  0.5628 -0.3990  1.6178
 9564TIP3    H250184   0.784   1.736  16.157  0.5124  0.5761  1.5052
 9565TIP3   OH250185   1.965   6.148  12.273  0.2592  0.1828 -0.0733
 9565TIP3    H150186   1.982   6.173  12.364  0.3160  1.1088 -0.3344
 9565TIP3    H250187   2.037   6.089  12.251  0.1528 -0.1748  0.5352
 9566TIP3   OH250188   5.048   2.018   5.443 -0.6243  0.2474  0.7885
 9566TIP3    H150189   5.024   1.975   5.361 -1.0804  1.0589  0.4857
 9566TIP3    H250190   5.017   1.959   5.511  0.4858 -0.8330  0.3867
 9567TIP3   OH250191   3.820   0.341   2.104 -0.2400 -0.0617 -0.3820
 9567TIP3    H150192   3.873   0.402   2.155 -0.4965  0.3633 -0.6303
 9567TIP3    H250193   3.873   0.324   2.025 -0.4540  0.3265 -0.6081
 9568TIP3   OH250194   4.216   0.237   3.524 -0.1579  0.2167 -0.6798
 9568TIP3    H150195   4.179   0.190   3.450 -2.6776  1.2896 -0.1628
 9568TIP3    H250196   4.150   0.228   3.593  1.0802  1.2160  0.6708
 9569TIP3   OH250197   3.369   4.965  13.087 -0.5002  0.6791  0.0150
 9569TIP3    H150198   3.304   4.914  13.039 -1.8304  2.8876 -0.5727
 9569TIP3    H250199   3.365   4.932  13.177  0.6388 -2.1425 -0.9118
 9570TIP3   OH250200   4.199   6.588   3.370 -0.3975  1.0933 -0.0528
 9570TIP3    H150201   4.246   6.527   3.313 -2.6854 -2.4336  1.6605
 9570TIP3    H250202   4.119   6.610   3.322 -1.0523  0.2657  0.6607
 9571TIP3   OH250203   4.324   3.922   3.434  0.4293 -0.2681  0.2852
 9571TIP3    H150204   4.284   3.835   3.444 -0.3258  0.0617  0.1591
 9571TIP3    H250205   4.257   3.974   3.389  0.9322  0.3437  0.2430
 9572TIP3   OH250206   0.039   0.019   5.035 -0.4701 -0.0459 -0.2607
 9572TIP3    H150207  -0.016   0.034   4.958 -1.7737  1.8358  1.0042
 9572TIP3    H250208   0.129   0.035   5.004 -0.6862 -1.9687 -2.0335
 9573TIP3   OH250209   2.738   4.312  12.009  0.6015  0.4364 -0.4608
 9573TIP3    H150210   2.726   4.404  12.031  0.5766  0.7066 -1.6006
 9573TIP3    H250211   2.651   4.282  11.983  0.6643  0.1533 -0.3479
 9574TIP3   OH250212   0.903   4.153  17.008  0.5294 -0.4215  0.3437
 9574TIP3    H150213   0.872   4.064  17.025  1.4580 -0.4789  1.7425
 9574TIP3    H250214   0.837   4.209  17.049  0.4314 -0.4781  0.2644
 9575TIP3   OH250215   3.965   2.755  10.674  0.2438  0.7453 -0.1337
 9575TIP3    H150216   3.912   2.763  10.595 -1.9539 -0.9845  1.0731
 9575TIP3    H250217   4.048   2.719  10.644 -0.6067  0.0053 -1.6634
 9576TIP3   OH250218   0.075   5.499  12.912  0.3442 -0.2411  0.1093
 9576TIP3    H150219   0.003   5.523  12.970 -1.6923 -1.9674 -1.5956
 9576TIP3    H250220   0.133   5.446  12.967  0.4797  1.3985  1.5820
 9577TIP3   OH250221   3.299   1.088   5.145 -0.3620  0.2139 -0.0485
 9577TIP3    H150222   3.210   1.117   5.166  1.4518  3.2869  3.9493
 9577TIP3    H250223   3.344   1.168   5.116  1.5653 -0.9843 -0.4371
 9578TIP3   OH250224   0.552   6.089   2.862 -0.2474 -0.1211 -0.6056
 9578TIP3    H150225   0.576   6.058   2.775 -0.9449 -0.4427 -0.6893
 9578TIP3    H250226   0.527   6.009   2.909 -0.4390  0.1195 -0.2976
 9579TIP3   OH250227   2.437   4.945   2.797  0.3847 -0.5440  0.4524
 9579TIP3    H150228   2.419   5.025   2.746 -1.3594 -0.6449  0.8662
 9579TIP3    H250229   2.362   4.888   2.779  1.6740 -2.1622  0.0682
 9580TIP3   OH250230   2.522   1.302  16.209  0.8447 -0.2927 -0.5464
 9580TIP3    H150231   2.608   1.342  16.226  0.5709 -0.4073  1.1808
 9580TIP3    H250232   2.476   1.366  16.156  1.2521  0.6990  0.2762
 9581TIP3   OH250233   3.676   0.697   5.756 -0.2244  0.8571 -0.1196
 9581TIP3    H150234   3.754   0.699   5.812  0.3339 -1.4046 -0.7654
 9581TIP3    H250235   3.708   0.722   5.670 -0.8757  3.2540  0.3181
 9582TIP3   OH250236   6.125   0.601  10.581  0.1125  0.5355 -0.1200
 9582TIP3    H150237   6.204   0.561  10.616 -0.8996 -2.5387 -1.1869
 9582TIP3    H250238   6.128   0.583  10.487 -1.7802  0.5207 -0.2048
 9583TIP3   OH250239   2.403   1.012   3.462  0.0195 -0.1166 -0.7905
 9583TIP3    H150240   2.428   0.955   3.535 -2.1286 -0.1576 -0.0677
 9583TIP3    H250241   2.380   1.095   3.503  1.5492  0.7945 -1.7014
 9584TIP3   OH250242   1.257   6.028   1.391  0.3569  0.2045 -1.4120
 9584TIP3    H150243   1.238   6.116   1.359 -0.3970 -0.0466 -1.6557
 9584TIP3    H250244   1.173   5.983   1.391 -0.1270  0.8682  3.0173
 9585TIP3   OH250245   1.621   5.255   5.067  0.8740  0.0440  0.0770
 9585TIP3    H150246   1.543   5.271   5.014 -1.3266  0.4407  3.2523
 9585TIP3    H250247   1.658   5.342   5.082 -1.2452  0.5196  3.0347
 9586TIP3   OH250248   1.159   1.354  12.650  0.3585  0.2925  0.2257
 9586TIP3    H150249   1.252   1.358  12.675  0.9945 -0.9134 -1.7591
 9586TIP3    H250250   1.150   1.420  12.581 -0.1505  0.1237  0.1291
 9587TIP3   OH250251   3.456   2.049  15.353  0.0964 -0.3116 -0.0121
 9587TIP3    H150252   3.474   1.986  15.423 -0.5505  0.5936  0.9756
 9587TIP3    H250253   3.519   2.119  15.366  0.6009 -0.5821 -0.9210
 9588TIP3   OH250254   4.805   2.834  13.768  1.1417  0.1037 -0.3965
 9588TIP3    H150255   4.723   2.833  13.817 -0.6220  2.0904 -3.2081
 9588TIP3    H250256   4.779   2.842  13.676  4.3915 -2.2365 -1.6389
 9589TIP3   OH250257   1.411   3.515   5.711  0.2196 -0.2745  0.3804
 9589TIP3    H150258   1.474   3.549   5.774 -0.2688 -1.8304  1.7269
 9589TIP3    H250259   1.325   3.535   5.749 -0.1246  0.8037 -0.8927
 9590TIP3   OH250260   1.230   5.995  13.195  0.2148  0.5879 -0.0460
 9590TIP3    H150261   1.272   6.021  13.277 -1.3931  0.7697  0.7402
 9590TIP3    H250262   1.197   6.077  13.158 -0.9178  0.2570  0.2018
 9591TIP3   OH250263   5.590   5.855  16.052  0.2248  0.4984 -0.0569
 9591TIP3    H150264   5.677   5.866  16.090  0.9551  0.0567 -1.5854
 9591TIP3    H250265   5.560   5.944  16.035  0.4349  0.6452  0.3347
 9592TIP3   OH250266   0.509   4.736   2.133 -0.0609  0.1787  0.0520
 9592TIP3    H150267   0.593   4.748   2.088 -0.1807 -0.8588 -0.4612
 9592TIP3    H250268   0.483   4.647   2.111 -0.7974  0.1399  1.0661
 9593TIP3   OH250269   3.384   4.713   6.026 -0.0263 -0.2494 -0.0663
 9593TIP3    H150270   3.424   4.723   6.113  0.2582  0.6287 -0.2813
 9593TIP3    H250271   3.412   4.627   5.996  0.2664 -0.3625  0.5252
 9594TIP3   OH250272   6.534   5.594  12.729  0.0944 -0.3653  0.0170
 9594TIP3    H150273   6.551   5.525  12.793 -3.3865 -3.1923 -1.9040
 9594TIP3    H250274   6.543   5.551  12.644 -0.3385  2.0414 -1.2946
 9595TIP3   OH250275   4.362   2.682   4.063  0.3599 -0.0290 -0.4491
 9595TIP3    H150276   4.398   2.687   4.152 -0.9009  1.0091  0.0072
 9595TIP3    H250277   4.435   2.650   4.010  1.8155  1.5794  0.5533
 9596TIP3   OH250278   1.837   0.795   5.949 -0.3824  0.2058 -0.4077
 9596TIP3    H150279   1.868   0.728   6.010  0.2323 -0.2962 -1.2634
 9596TIP3    H250280   1.913   0.851   5.934 -1.1662  1.7040  1.0901
 9597TIP3   OH250281   2.541   4.140  15.712  0.1646  0.2734 -0.5029
 9597TIP3    H150282   2.633   4.136  15.737 -0.1064 -0.7865  0.3533
 9597TIP3    H250283   2.495   4.161  15.794 -0.4262  0.0762 -0.7807
 9598TIP3   OH250284   3.596   1.851   1.893  0.1817 -0.0866  0.1582
 9598TIP3    H150285   3.664   1.815   1.836 -0.6856  1.7066 -2.1021
 9598TIP3    H250286   3.630   1.935   1.921 -0.4639  0.1687  0.1943
 9599TIP3   OH250287   5.900   1.823  16.717 -0.3146 -0.1351 -0.3950
 9599TIP3    H150288   5.878   1.903  16.765 -0.0449 -1.2379  1.6055
 9599TIP3    H250289   5.925   1.854  16.630 -2.4420  1.7498 -0.3798
 9600TIP3   OH250290   0.036   6.469  11.339  0.0072 -1.0722  0.2153
 9600TIP3    H150291  -0.009   6.417  11.406  0.0807 -3.4918 -1.5593
 9600TIP3    H250292  -0.030   6.484  11.271  0.4091 -0.0792  0.0312
 9601TIP3   OH250293   0.452   2.055   1.933  0.1541 -0.4253  0.0566
 9601TIP3    H150294   0.429   2.122   1.869  1.5528 -1.0009 -1.0668
 9601TIP3    H250295   0.478   2.104   2.011 -1.1064  0.2846  0.0421
 9602TIP3   OH250296   3.825   2.831  12.339  0.1833 -0.3226 -0.2589
 9602TIP3    H150297   3.853   2.769  12.406 -1.9271 -0.8898  0.1575
 9602TIP3    H250298   3.899   2.890  12.327  0.3982  0.1475  2.9969
 9603TIP3   OH250299   1.319   3.396  14.810 -0.5585 -0.1516 -0.1988
 9603TIP3    H150300   1.230   3.410  14.842 -0.2928  1.3966 -0.1270
 9603TIP3    H250301   1.375   3.445  14.870  0.3118 -0.7064 -0.5367
 9604TIP3   OH250302   2.548   3.130   0.352  0.1342  0.1158  0.8107
 9604TIP3    H150303   2.622   3.153   0.296 -0.7552  0.1653 -0.3512
 9604TIP3    H250304   2.510   3.215   0.376  0.2132  0.0727  1.0921
 9605TIP3   OH250305   6.045   0.881  13.254 -0.5265 -0.4884  0.1824
 9605TIP3    H150306   5.964   0.831  13.244  0.3265 -1.6978 -0.8189
 9605TIP3    H250307   6.037   0.921  13.341 -1.6129 -1.6745  0.6597
 9606TIP3   OH250308   0.211   3.222  15.590 -0.3175 -0.3634  0.0418
 9606TIP3    H150309   0.280   3.184  15.536  1.3712  0.8862  1.2522
 9606TIP3    H250310   0.197   3.159  15.660  1.7616  0.7059  1.4775
 9607TIP3   OH250311   2.147   5.844  10.932  0.2443  0.3701 -0.4039
 9607TIP3    H150312   2.104   5.927  10.953 -0.6252 -0.3267  0.6533
 9607TIP3    H250313   2.241   5.862  10.941  0.0624  1.2413 -0.2013
 9608TIP3   OH250314   0.212   0.069  15.394 -0.1834 -0.2300  0.4194
 9608TIP3    H150315   0.194   0.162  15.410  0.3266 -0.5063  2.8747
 9608TIP3    H250316   0.126   0.028  15.396 -0.3339  0.0667  0.1878
 9609TIP3   OH250317   2.068   5.049  13.135  0.0146  0.2080  0.3631
 9609TIP3    H150318   1.985   5.092  13.155  0.2024  1.0106 -0.5442
 9609TIP3    H250319   2.108   5.033  13.220 -1.8741 -1.8536  0.9327
 9610TIP3   OH250320   6.429   4.413   1.230  0.5708  0.1053 -0.3651
 9610TIP3    H150321   6.513   4.377   1.259  1.7278  1.1760 -2.2940
 9610TIP3    H250322   6.453   4.479   1.165 -1.8214 -0.5116 -1.9024
 9611TIP3   OH250323   5.792   4.394   5.168 -0.6018 -0.1313  0.3363
 9611TIP3    H150324   5.724   4.327   5.173 -0.0122 -0.7152  0.5304
 9611TIP3    H250325   5.748   4.474   5.196 -1.9400  0.0654 -2.2423
 9612TIP3   OH250326   5.819   5.774   5.903 -0.2033  1.4053  0.1963
 9612TIP3    H150327   5.878   5.818   5.842 -0.1592  1.6022  0.3815
 9612TIP3    H250328   5.738   5.825   5.898 -0.5283  0.8254 -0.4472
 9613TIP3   OH250329   1.037   6.803   5.036  0.4096  0.5007  0.5491
 9613TIP3    H150330   1.086   6.722   5.053 -0.7640 -0.5057 -0.7431
 9613TIP3    H250331   1.022   6.840   5.123  1.2394 -0.5084  1.1418
 9614TIP3   OH250332   4.137   5.811   0.531 -0.3465  0.3210  0.0703
 9614TIP3    H150333   4.091   5.824   0.614  0.6418 -0.0250  0.6868
 9614TIP3    H250334   4.146   5.716   0.524  1.8616  0.4467  0.8630
 9615TIP3   OH250335   1.820   3.285   0.077 -0.3963  0.0945  1.2083
 9615TIP3    H150336   1.808   3.222   0.148 -2.0103 -0.3658  0.5662
 9615TIP3    H250337   1.733   3.324   0.065 -0.5658 -0.9717 -1.5432
 9616TIP3   OH250338   3.410   6.434   2.846 -0.0891 -0.6138 -0.0520
 9616TIP3    H150339   3.394   6.370   2.916  1.9829 -0.9756  0.1419
 9616TIP3    H250340   3.378   6.517   2.882 -0.1975 -1.0272  0.8246
 9617TIP3   OH250341   4.596   0.227  16.390 -0.5350  0.0026 -0.2679
 9617TIP3    H150342   4.622   0.231  16.482 -0.4462 -0.2882 -0.2782
 9617TIP3    H250343   4.646   0.297  16.348  1.1509 -1.3070 -0.5074
 9618TIP3   OH250344   1.029   1.834  11.469  0.3027 -0.1635  0.0098
 9618TIP3    H150345   0.976   1.793  11.401  1.6807 -1.2632 -0.4367
 9618TIP3    H250346   1.037   1.925  11.442 -2.2032  0.2817  0.6378
 9619TIP3   OH250347   3.165   4.411   5.847  0.0779  0.1749  0.6051
 9619TIP3    H150348   3.259   4.423   5.852  0.0885  0.1917  0.3791
 9619TIP3    H250349   3.135   4.416   5.938  0.0922  1.8253  0.5417
 9620TIP3   OH250350   5.390   4.882  13.037  0.1881 -0.1663 -0.7003
 9620TIP3    H150351   5.312   4.828  13.028 -0.9213  0.5971  3.2546
 9620TIP3    H250352   5.434   4.848  13.115  1.2984  2.3837 -0.1523
 9621TIP3   OH250353   0.023   1.723  15.953 -0.0586 -0.0012 -0.2802
 9621TIP3    H150354   0.070   1.641  15.972 -0.4179 -0.1252  0.0884
 9621TIP3    H250355  -0.029   1.703  15.875 -0.8787 -0.4331  0.3589
 9622TIP3   OH250356   0.087   1.504  16.420  0.4914  0.1091  0.2877
 9622TIP3    H150357   0.026   1.458  16.362  0.8152 -0.7382  0.6110
 9622TIP3    H250358   0.076   1.461  16.505 -1.1309  2.3632  1.2978
 9623TIP3   OH250359   6.168   1.360  16.742 -0.4002 -0.0588  0.3885
 9623TIP3    H150360   6.143   1.451  16.729  0.6015  0.2848  0.7983
 9623TIP3    H250361   6.192   1.328  16.655  1.1596  0.6635  0.5287
 9624TIP3   OH250362   2.032   5.405  17.228  0.4674  0.1957 -0.6079
 9624TIP3    H150363   2.066   5.456  17.156 -1.1544 -0.1145 -1.6288
 9624TIP3    H250364   1.983   5.334  17.186 -1.3884  0.6187  0.7644
 9625TIP3   OH250365   4.051   2.948  12.680  0.5781 -0.4117  0.2045
 9625TIP3    H150366   3.977   2.984  12.631  0.8011  0.4407  0.4847
 9625TIP3    H250367   4.105   3.024  12.700 -0.0497 -0.6000  2.7221
 9626TIP3   OH250368   5.072   0.732   2.509 -0.2137  0.5643  0.1367
 9626TIP3    H150369   5.138   0.799   2.524  0.7996 -0.6682  1.4307
 9626TIP3    H250370   5.111   0.673   2.445  0.6217 -1.0049  2.0274
 9627TIP3   OH250371   1.772   3.167   5.423  0.1075  0.1997  0.0551
 9627TIP3    H150372   1.694   3.223   5.417 -0.2502 -0.2264  0.5591
 9627TIP3    H250373   1.806   3.162   5.334 -1.1872 -0.6312 -0.4189
 9628TIP3   OH250374   3.175   4.964  16.030  0.0907  0.2978 -0.6749
 9628TIP3    H150375   3.219   5.031  15.978  1.5774 -0.1911 -0.0474
 9628TIP3    H250376   3.155   4.894  15.969  0.6354  0.2954 -0.8429
 9629TIP3   OH250377   0.672   6.586   3.889 -0.0555  0.3200 -0.0369
 9629TIP3    H150378   0.579   6.580   3.867 -0.2086  1.7996  0.1293
 9629TIP3    H250379   0.696   6.675   3.864  1.2370  0.0557  0.2523
 9630TIP3   OH250380   5.732   1.315   0.722  0.1294 -0.2705 -0.0534
 9630TIP3    H150381   5.639   1.324   0.739  0.3385  0.2134  0.9002
 9630TIP3    H250382   5.768   1.403   0.737  1.0242 -0.8824  1.6067
 9631TIP3   OH250383   5.729   2.692   6.070  0.5544 -0.1254 -0.0155
 9631TIP3    H150384   5.659   2.633   6.044  1.6559 -1.3908 -0.1595
 9631TIP3    H250385   5.707   2.717   6.160 -0.0832 -0.4916 -0.0689
 9632TIP3   OH250386   1.073   2.164   5.073  0.4211  0.1582  0.3555
 9632TIP3    H150387   0.995   2.219   5.084  1.7997  1.8897  1.8205
 9632TIP3    H250388   1.060   2.121   4.989 -0.8277  2.5743 -0.7377
 9633TIP3   OH250389   2.211   0.309   5.836 -0.7421  0.3175 -0.1421
 9633TIP3    H150390   2.282   0.372   5.850 -0.7375  0.5116 -1.0222
 9633TIP3    H250391   2.142   0.339   5.895  0.3078 -0.5341  1.5598
 9634TIP3   OH250392   0.649   5.257   1.534  0.1408 -0.4286 -0.0187
 9634TIP3    H150393   0.729   5.294   1.571  0.0901  1.1169 -1.3923
 9634TIP3    H250394   0.679   5.205   1.459 -0.0463 -0.8229  0.1760
 9635TIP3   OH250395   0.302   4.777  14.822 -0.1149 -0.0664  0.3689
 9635TIP3    H150396   0.382   4.827  14.838  0.3348 -0.6058 -0.1648
 9635TIP3    H250397   0.287   4.783  14.728  2.0287 -3.9730 -0.3467
 9636TIP3   OH250398   5.649   1.084  10.943  0.2973  0.0023  0.0857
 9636TIP3    H150399   5.715   1.036  10.892  0.2155 -1.5488  1.4070
 9636TIP3    H250400   5.604   1.138  10.878  2.6941  0.9184 -0.8814
 9637TIP3   OH250401   4.740   4.798   3.486 -0.8264 -0.3438  0.3635
 9637TIP3    H150402   4.730   4.798   3.581 -0.1972  0.0497  0.4272
 9637TIP3    H250403   4.652   4.777   3.453 -1.3690  0.9367  0.9854
 9638TIP3   OH250404   1.918   2.666   1.859  0.5011  0.0344 -0.4416
 9638TIP3    H150405   1.849   2.671   1.925  0.7554  0.1342 -0.1803
 9638TIP3    H250406   1.898   2.586   1.810  0.1120  0.1465 -0.4690
 9639TIP3   OH250407   3.995   2.414   5.452  0.2626 -0.0239  0.2902
 9639TIP3    H150408   3.981   2.507   5.437 -0.2049  0.1282  1.5648
 9639TIP3    H250409   3.986   2.403   5.547  1.1323 -1.2286  0.2538
 9640TIP3   OH250410   2.871   4.580   0.204  0.4710 -0.7472  0.3222
 9640TIP3    H150411   2.792   4.587   0.150  0.1145 -0.9107  0.8158
 9640TIP3    H250412   2.935   4.538   0.147  0.5993  0.5320 -0.4996
 9641TIP3   OH250413   5.011   1.812  11.398 -0.1607  0.0518 -0.0032
 9641TIP3    H150414   4.998   1.808  11.493 -1.8296  1.5490 -0.1449
 9641TIP3    H250415   5.095   1.856  11.387 -1.3482  2.6207  0.7682
 9642TIP3   OH250416   2.498   2.231  11.599 -0.4098 -0.6986  0.3448
 9642TIP3    H150417   2.505   2.139  11.577  0.6448 -1.6255  4.1726
 9642TIP3    H250418   2.416   2.238  11.648 -0.2636  0.3144  0.4595
 9643TIP3   OH250419   0.152   0.322  15.446  0.3679 -0.4575  0.0657
 9643TIP3    H150420   0.215   0.382  15.486 -0.5662  1.0025 -0.6014
 9643TIP3    H250421   0.090   0.303  15.516 -0.3817  0.8515 -0.2238
 9644TIP3   OH250422   5.433   5.444   4.552  0.6456 -0.0338  0.0852
 9644TIP3    H150423   5.472   5.371   4.504 -1.6389  0.3077 -2.3863
 9644TIP3    H250424   5.356   5.405   4.595  0.6935  0.4409  0.6048
 9645TIP3   OH250425   5.274   1.953  11.474 -0.2061  0.0685  0.4135
 9645TIP3    H150426   5.309   1.929  11.559  0.4945  1.8456  0.6580
 9645TIP3    H250427   5.340   1.926  11.411  1.1750  2.4301  0.7862
 9646TIP3   OH250428   0.021   2.775  15.761  0.5374  0.4600 -0.2254
 9646TIP3    H150429   0.060   2.707  15.706 -0.0946 -0.9319  1.0151
 9646TIP3    H250430  -0.066   2.742  15.782  0.0485  1.8681  0.0217
 9647TIP3   OH250431   3.791   1.642  12.886  0.1734  0.4102 -0.1841
 9647TIP3    H150432   3.861   1.683  12.836  0.1063 -0.5953 -1.1142
 9647TIP3    H250433   3.717   1.638  12.825 -0.4908  0.8375  0.5690
 9648TIP3   OH250434   2.649   3.053  16.656 -0.1442  0.3166  0.5912
 9648TIP3    H150435   2.636   3.141  16.691 -0.0212  0.3609  0.5256
 9648TIP3    H250436   2.738   3.030  16.682  0.1281  0.5547 -0.1340
 9649TIP3   OH250437   0.827   1.008   4.099  0.0160 -0.2487  0.1262
 9649TIP3    H150438   0.801   1.033   4.188  0.6293 -0.2563  0.3114
 9649TIP3    H250439   0.922   1.009   4.101  0.0354  1.2710 -0.9766
 9650TIP3   OH250440   0.719   3.604  16.948  0.2014 -0.4350  0.0653
 9650TIP3    H150441   0.749   3.689  16.978  0.8240 -1.1706  1.5842
 9650TIP3    H250442   0.724   3.609  16.853  0.8561  0.9998  0.1592
 9651TIP3   OH250443   5.905   5.560  15.571  0.6173 -0.1917 -0.3864
 9651TIP3    H150444   5.987   5.592  15.534 -0.3060 -0.6322 -2.9146
 9651TIP3    H250445   5.843   5.631  15.558  0.5421  0.1127  1.4491
 9652TIP3   OH250446   0.387   0.847   0.644 -0.2082 -0.0014  0.2231
 9652TIP3    H150447   0.404   0.752   0.641 -1.5204 -0.3459  2.3404
 9652TIP3    H250448   0.460   0.882   0.696 -1.3931 -0.3238  2.1598
 9653TIP3   OH250449   2.697   1.766  16.537 -0.6848 -0.3641  0.1361
 9653TIP3    H150450   2.664   1.828  16.603  0.7197 -0.1902  0.6974
 9653TIP3    H250451   2.699   1.682  16.583 -2.2084 -0.7650 -0.5044
 9654TIP3   OH250452   6.286   5.649   0.331 -0.2052  0.2905 -0.3083
 9654TIP3    H150453   6.274   5.743   0.316 -0.5538  0.3400  0.2877
 9654TIP3    H250454   6.209   5.608   0.291 -0.1204  0.2676 -0.4488
 9655TIP3   OH250455   6.123   6.162   1.689 -0.1407  0.6238  0.5186
 9655TIP3    H150456   6.062   6.089   1.691  0.1473  0.2605 -2.0811
 9655TIP3    H250457   6.195   6.135   1.746 -2.4349  1.1549  3.7870
 9656TIP3   OH250458   6.330   0.069  13.370  0.4399 -0.6042 -0.1034
 9656TIP3    H150459   6.374   0.121  13.437  0.0289 -1.6758  1.0061
 9656TIP3    H250460   6.401   0.032  13.317  0.7907 -0.4664  0.2760
 9657TIP3   OH250461   0.408   4.827  13.021 -0.1480  0.8644  0.0780
 9657TIP3    H150462   0.492   4.783  13.036  0.7998  2.5803 -0.0337
 9657TIP3    H250463   0.377   4.791  12.938 -0.5463 -1.2998  1.1364
 9658TIP3   OH250464   1.716   2.624  15.793 -0.3966 -0.2004 -0.1894
 9658TIP3    H150465   1.679   2.709  15.818 -1.7676 -1.1179  1.0319
 9658TIP3    H250466   1.675   2.562  15.854  1.2691 -1.6086 -0.4789
 9659TIP3   OH250467   4.623   1.247   4.586  0.0489 -0.0082  0.1663
 9659TIP3    H150468   4.580   1.221   4.504  0.0690 -0.3909  0.2777
 9659TIP3    H250469   4.607   1.341   4.592  1.3259  0.3009 -1.0484
 9660TIP3   OH250470   2.574   1.115  14.415 -0.0505 -0.2814 -0.4563
 9660TIP3    H150471   2.651   1.059  14.423  0.6079  0.6337 -0.3539
 9660TIP3    H250472   2.600   1.184  14.354 -0.1858  1.0369  0.9475
 9661TIP3   OH250473   0.262   4.390   2.416 -0.1713 -0.1492  0.0815
 9661TIP3    H150474   0.299   4.415   2.500 -1.7466 -0.5465  0.9181
 9661TIP3    H250475   0.329   4.335   2.376  1.3053  1.4606  0.3059
 9662TIP3   OH250476   1.892   6.304   2.876 -0.4372 -0.5920 -0.3317
 9662TIP3    H150477   1.932   6.259   2.801  0.6978 -1.7856  0.9489
 9662TIP3    H250478   1.830   6.240   2.912  1.6112 -1.4219  1.8640
 9663TIP3   OH250479   5.158   4.167  11.423 -0.0400  0.0521  0.0848
 9663TIP3    H150480   5.126   4.179  11.334 -1.2852  1.5547  0.7067
 9663TIP3    H250481   5.153   4.255  11.462  2.7236 -0.1014  0.9077
 9664TIP3   OH250482   5.249   3.081   4.668  0.2111  0.7010 -0.6030
 9664TIP3    H150483   5.251   3.176   4.665 -1.3441  0.7894  0.3824
 9664TIP3    H250484   5.170   3.060   4.718  1.2904 -1.0803  0.4489
 9665TIP3   OH250485   6.751   3.972  12.010 -0.5657 -0.3211  0.4099
 9665TIP3    H150486   6.731   4.016  12.092 -0.7372  0.1515  0.1142
 9665TIP3    H250487   6.754   4.042  11.945  0.5671 -0.5556  0.1872
 9666TIP3   OH250488   3.754   3.353   5.847 -0.0780  0.1446 -0.3382
 9666TIP3    H150489   3.710   3.300   5.914  2.8211 -0.1120  1.4356
 9666TIP3    H250490   3.794   3.425   5.897  2.1652 -0.0581 -1.7869
 9667TIP3   OH250491   0.233   5.787  10.862 -0.4589 -0.3948 -0.5836
 9667TIP3    H150492   0.311   5.769  10.810 -0.4905  1.5930 -1.3886
 9667TIP3    H250493   0.168   5.724  10.831 -0.8754  1.5521 -3.9787
 9668TIP3   OH250494   4.989   6.368   1.147  0.0005 -0.2670 -0.1106
 9668TIP3    H150495   4.910   6.362   1.201  0.2538 -2.0555  0.1116
 9668TIP3    H250496   4.957   6.399   1.062 -0.3770  2.7321  1.0655
 9669TIP3   OH250497   2.115   3.786  14.287  0.1698 -0.7055  0.7671
 9669TIP3    H150498   2.205   3.780  14.317 -0.4164 -2.1491  2.2530
 9669TIP3    H250499   2.084   3.696  14.283 -1.5370 -0.1585  1.2510
 9670TIP3   OH250500   6.081   5.586  15.332 -0.0600  0.2530 -0.2071
 9670TIP3    H150501   6.112   5.677  15.332 -1.0937  0.6319  1.8219
 9670TIP3    H250502   6.159   5.534  15.312  0.8846  1.4924  0.1646
 9671TIP3   OH250503   5.077   3.236  16.108  0.4567 -0.1950 -0.3221
 9671TIP3    H150504   4.992   3.239  16.153  0.4459  0.4875 -0.3944
 9671TIP3    H250505   5.109   3.147  16.124  1.1787  0.4902  2.4125
 9672TIP3   OH250506   6.453   0.687   1.824  0.7368 -0.2407  0.3059
 9672TIP3    H150507   6.367   0.668   1.860  0.7032 -0.6697 -0.0033
 9672TIP3    H250508   6.506   0.712   1.900  0.8091 -1.6301  0.7186
 9673TIP3   OH250509   4.496   4.730   3.393 -0.5700 -0.3345  0.1830
 9673TIP3    H150510   4.469   4.674   3.320  1.0620 -1.9630  0.8049
 9673TIP3    H250511   4.419   4.785   3.409 -1.7841 -1.5436 -1.2418
 9674TIP3   OH250512   4.341   0.182  13.390 -0.2188  0.4166 -0.3267
 9674TIP3    H150513   4.418   0.169  13.447 -1.7921 -1.1203  1.5472
 9674TIP3    H250514   4.330   0.097  13.347 -0.9619  0.5684 -0.4354
 9675TIP3   OH250515   5.701   0.205  15.046  0.5177  0.1217  0.0783
 9675TIP3    H150516   5.609   0.179  15.050  0.4066  0.4103 -0.4745
 9675TIP3    H250517   5.748   0.125  15.023  0.1523  0.4361 -1.8507
 9676TIP3   OH250518   4.588   2.159   4.405  0.0693 -0.0163 -0.4096
 9676TIP3    H150519   4.591   2.164   4.501  1.0087  1.4556 -0.4967
 9676TIP3    H250520   4.503   2.121   4.386  0.6704 -2.1931  1.0723
 9677TIP3   OH250521   0.514   4.245   1.068 -0.3385 -0.4980  0.2980
 9677TIP3    H150522   0.427   4.233   1.106 -0.7384 -2.2790 -1.1396
 9677TIP3    H250523   0.502   4.314   1.002 -0.2714  0.4784  1.2882
 9678TIP3   OH250524   1.058   3.872   0.325 -0.1745  0.1441 -0.2824
 9678TIP3    H150525   1.130   3.831   0.374 -1.2945 -1.2606  0.2117
 9678TIP3    H250526   1.063   3.965   0.349  1.1986 -0.0134  0.0973
 9679TIP3   OH250527   5.444   4.477  14.027 -0.3159 -0.1856  0.2880
 9679TIP3    H150528   5.431   4.570  14.043  0.0370 -0.2618  1.0386
 9679TIP3    H250529   5.483   4.472  13.939 -0.2438  0.3749  0.2915
 9680TIP3   OH250530   3.034   4.283   2.325 -0.0643 -0.4076 -0.3738
 9680TIP3    H150531   3.085   4.351   2.282  3.1236 -1.8328  0.9968
 9680TIP3    H250532   3.026   4.213   2.259 -0.4952 -0.0759 -0.6755
 9681TIP3   OH250533   0.693   0.833   3.028  0.2344 -0.3732 -0.1136
 9681TIP3    H150534   0.632   0.845   3.100  1.4448  0.2904  0.8196
 9681TIP3    H250535   0.657   0.885   2.956  0.3130  0.9764  0.8038
 9682TIP3   OH250536   3.906   6.422   3.418  0.5279 -0.2575 -0.5448
 9682TIP3    H150537   3.920   6.328   3.406  1.4050 -0.2886  0.6017
 9682TIP3    H250538   3.837   6.444   3.355  0.1432 -1.7138 -0.6652
 9683TIP3   OH250539   4.531   3.136   1.194 -0.1366 -0.0105 -0.0290
 9683TIP3    H150540   4.558   3.206   1.254  1.9155 -0.8319  0.0374
 9683TIP3    H250541   4.446   3.107   1.227  0.0993  0.8300  1.3553
 9684TIP3   OH250542   4.087   6.111  16.663  0.6629 -0.1857  0.4777
 9684TIP3    H150543   4.080   6.175  16.591  2.5429  0.2837  0.7013
 9684TIP3    H250544   3.996   6.094  16.688 -0.1034 -1.0093 -2.5832
 9685TIP3   OH250545   4.667   3.970   2.634 -0.5915  0.2056  0.2803
 9685TIP3    H150546   4.741   4.003   2.685 -0.1339  0.1442 -0.3329
 9685TIP3    H250547   4.606   3.935   2.699  1.2763 -2.5326  0.6005
 9686TIP3   OH250548   6.266   0.590  15.422 -0.0147  0.0098 -0.0967
 9686TIP3    H150549   6.210   0.634  15.357  0.1688  0.5525  0.1118
 9686TIP3    H250550   6.351   0.632  15.412  0.0505 -0.0108  0.3974
 9687TIP3   OH250551   2.902   3.771  13.313  0.9793 -0.1043 -0.7801
 9687TIP3    H150552   2.825   3.718  13.335  2.0245 -1.8090 -1.1497
 9687TIP3    H250553   2.896   3.784  13.218  0.1170  1.4452 -0.5353
 9688TIP3   OH250554   4.855   4.491  14.584 -0.7242 -0.5323 -1.0143
 9688TIP3    H150555   4.838   4.471  14.676  1.7596  0.2837 -0.3219
 9688TIP3    H250556   4.828   4.412  14.536  0.6953 -2.1031  0.7191
 9689TIP3   OH250557   5.413   0.202  14.944  0.0208  0.5074 -0.3619
 9689TIP3    H150558   5.397   0.281  14.892 -1.7970  0.1885 -0.3315
 9689TIP3    H250559   5.326   0.173  14.971  0.8472 -0.0524  1.8217
 9690TIP3   OH250560   2.158   1.382  14.931  0.1146  0.8832  0.1796
 9690TIP3    H150561   2.161   1.467  14.886 -0.3976  0.2521 -1.0641
 9690TIP3    H250562   2.068   1.376  14.963  0.5282  1.4142  1.4759
 9691TIP3   OH250563   1.694   1.919  13.616  0.1413  0.0695  0.0680
 9691TIP3    H150564   1.780   1.906  13.655  0.1751 -0.5194 -0.1839
 9691TIP3    H250565   1.701   2.000  13.566  0.5673 -0.0056  0.0080
 9692TIP3   OH250566   6.522   1.090  11.936 -0.0815 -0.4158 -0.4209
 9692TIP3    H150567   6.589   1.054  11.878 -0.5424  1.2397 -2.0248
 9692TIP3    H250568   6.441   1.048  11.908 -0.1246 -0.4964 -0.1823
 9693TIP3   OH250569   5.501   6.719   3.772  0.5894  0.6226 -0.0744
 9693TIP3    H150570   5.590   6.748   3.753 -0.0219  1.3969 -1.8392
 9693TIP3    H250571   5.464   6.696   3.687 -0.3930 -1.1874  0.8292
 9694TIP3   OH250572   1.650   6.715   2.937 -0.4061 -0.1625 -0.0411
 9694TIP3    H150573   1.595   6.638   2.925 -0.0058 -0.5758  0.7248
 9694TIP3    H250574   1.601   6.771   2.997  1.6386 -2.2645  3.8412
 9695TIP3   OH250575   0.187   3.825   1.775  0.0559  0.3537  0.1954
 9695TIP3    H150576   0.190   3.895   1.711  0.7434 -2.2638 -2.7534
 9695TIP3    H250577   0.278   3.803   1.792 -0.1629 -0.6990  0.0739
 9696TIP3   OH250578   6.227   6.719  16.149  0.5641  0.1188  0.3518
 9696TIP3    H150579   6.277   6.765  16.216  1.4684  0.2013 -0.3664
 9696TIP3    H250580   6.285   6.717  16.073 -0.6389  0.4640 -0.5920
 9697TIP3   OH250581   2.607   5.207  17.081 -0.3701  0.3010 -0.1110
 9697TIP3    H150582   2.561   5.174  17.004  0.0291 -0.5008 -0.0128
 9697TIP3    H250583   2.654   5.131  17.115  0.3333  0.9116  0.2897
 9698TIP3   OH250584   6.067   4.601  12.864  0.3283 -0.1012 -0.0891
 9698TIP3    H150585   5.987   4.653  12.874  0.9704  0.6170  1.5148
 9698TIP3    H250586   6.041   4.528  12.808 -1.3133  0.4272 -0.0462
 9699TIP3   OH250587   1.041   4.814   1.685  0.5668  0.1320 -0.7949
 9699TIP3    H150588   0.993   4.867   1.622 -0.8678 -0.7441 -0.4647
 9699TIP3    H250589   1.062   4.733   1.638 -1.0946 -0.8061  0.0222
 9700TIP3   OH250590   4.374   5.166  14.535  0.0771 -0.0316 -1.0863
 9700TIP3    H150591   4.439   5.229  14.565  0.6909 -2.1586  2.3616
 9700TIP3    H250592   4.406   5.137  14.450  2.7958  0.2114 -0.2000
 9701TIP3   OH250593   2.224   6.759  11.094  0.5743 -0.0676  0.3996
 9701TIP3    H150594   2.185   6.768  11.007  3.3479  0.1993 -0.8769
 9701TIP3    H250595   2.167   6.698  11.140 -0.5879 -0.7245 -1.8395
 9702TIP3   OH250596   0.424   1.848   3.066 -1.0866  0.2051  0.4569
 9702TIP3    H150597   0.334   1.832   3.097 -1.1666  1.2875  0.7889
 9702TIP3    H250598   0.413   1.901   2.987 -0.8686 -2.2469 -1.3005
 9703TIP3   OH250599   0.564   4.270  12.304  1.0786  0.0731 -0.3278
 9703TIP3    H150600   0.632   4.303  12.363  1.1612  1.6650 -1.2775
 9703TIP3    H250601   0.612   4.213  12.243  1.1264 -0.8994  0.6115
 9704TIP3   OH250602   1.402   3.902  13.702  0.1403 -0.2848  0.5153
 9704TIP3    H150603   1.388   3.834  13.769  0.6348  1.1653  2.1412
 9704TIP3    H250604   1.482   3.947  13.730 -1.2392  2.2398  0.6059
 9705TIP3   OH250605   4.627   0.218   5.690 -0.0183 -0.3067 -0.0659
 9705TIP3    H150606   4.719   0.240   5.706 -0.1736  0.2800  0.0299
 9705TIP3    H250607   4.622   0.123   5.705  0.7308 -0.4703 -0.8567
 9706TIP3   OH250608   1.442   2.292  16.333 -0.0755  0.5070 -0.2205
 9706TIP3    H150609   1.480   2.374  16.302  0.6638 -0.3430 -1.5979
 9706TIP3    H250610   1.352   2.294  16.301  0.1111  0.5128 -0.7384
 9707TIP3   OH250611   2.491   1.551   1.264  0.6680  0.1789  0.7770
 9707TIP3    H150612   2.581   1.520   1.279  0.8830  0.3691 -0.0956
 9707TIP3    H250613   2.490   1.579   1.173 -1.0017 -2.1734  0.0417
 9708TIP3   OH250614   2.905   5.813   0.709 -0.4355 -0.2742  0.1450
 9708TIP3    H150615   2.870   5.893   0.668 -1.1589  0.2821  1.8160
 9708TIP3    H250616   2.995   5.836   0.732  0.0153 -0.6286 -1.2023
 9709TIP3   OH250617   2.433   1.356  12.932  0.4155  0.2819 -0.8829
 9709TIP3    H150618   2.437   1.441  12.889 -0.7639  1.1904  0.7173
 9709TIP3    H250619   2.483   1.369  13.013 -0.1892 -0.3751 -0.3971
 9710TIP3   OH250620   2.860   4.439  15.967 -0.2213 -0.3415 -0.8615
 9710TIP3    H150621   2.929   4.480  15.916  0.9214 -1.2447 -0.0644
 9710TIP3    H250622   2.818   4.511  16.014  1.9767 -0.0773  0.7918
 9711TIP3   OH250623   6.069   3.012  10.522 -0.1877 -0.1021 -0.4893
 9711TIP3    H150624   6.120   3.046  10.596 -0.5957 -1.4613  0.4352
 9711TIP3    H250625   6.054   2.920  10.543 -1.0808 -0.2821 -1.8391
 9712TIP3   OH250626   3.151   1.791  15.034 -0.2256 -0.6419 -0.0694
 9712TIP3    H150627   3.216   1.763  15.099 -1.0366 -1.3753  0.4274
 9712TIP3    H250628   3.200   1.849  14.975  1.0262 -1.6603 -0.0528
 9713TIP3   OH250629   4.806   3.559  16.955  0.1815  0.2626  0.1901
 9713TIP3    H150630   4.770   3.641  16.921 -2.0650 -0.9304 -0.4184
 9713TIP3    H250631   4.843   3.516  16.879 -0.4401 -0.1795  0.1323
 9714TIP3   OH250632   5.932   0.350   1.199 -0.7569 -0.5286  0.1535
 9714TIP3    H150633   6.021   0.385   1.200 -0.3617 -1.4951 -0.5858
 9714TIP3    H250634   5.938   0.270   1.147 -1.7651 -1.3712  1.2956
 9715TIP3   OH250635   4.061   3.293  11.147 -0.7861 -0.0280  0.2874
 9715TIP3    H150636   4.118   3.295  11.070 -0.7279 -2.4384  0.2031
 9715TIP3    H250637   4.008   3.213  11.135 -1.9332  0.4518  1.9323
 9716TIP3   OH250638   6.444   6.171  15.654 -0.3837  0.3169 -0.2255
 9716TIP3    H150639   6.359   6.147  15.690  0.0393  1.2866  1.5047
 9716TIP3    H250640   6.447   6.130  15.568 -1.9563 -1.0438  0.3480
 9717TIP3   OH250641   4.609   5.274  16.436  0.3814 -0.3480  0.0549
 9717TIP3    H150642   4.625   5.190  16.393 -0.0798 -0.7965  0.7551
 9717TIP3    H250643   4.566   5.327  16.370 -2.0037 -1.6440  0.5112
 9718TIP3   OH250644   6.143   5.871  12.637  0.2018 -0.3857 -0.0838
 9718TIP3    H150645   6.133   5.918  12.719  0.5681 -0.7557  0.1746
 9718TIP3    H250646   6.229   5.830  12.643  0.0525 -0.7614 -0.4700
 9719TIP3   OH250647   2.418   4.668   5.877  0.4049  0.1834  0.4837
 9719TIP3    H150648   2.447   4.739   5.820  0.1076 -0.1436 -0.0882
 9719TIP3    H250649   2.485   4.663   5.945  1.9000 -0.7980 -1.0160
 9720TIP3   OH250650   5.421   4.551   4.683 -0.5179 -0.3781 -0.0514
 9720TIP3    H150651   5.334   4.531   4.649 -1.0711  1.0126  0.5360
 9720TIP3    H250652   5.409   4.564   4.777  0.2354  0.3234 -0.0412
 9721TIP3   OH250653   5.241   4.579  15.076  0.2875 -0.0690  0.0807
 9721TIP3    H150654   5.279   4.661  15.043  1.6036 -0.4910  0.4916
 9721TIP3    H250655   5.312   4.539  15.126 -1.0607 -0.3533  1.8142
 9722TIP3   OH250656   4.902   2.442  11.159  0.1172  0.0207 -0.3788
 9722TIP3    H150657   4.831   2.479  11.108  0.6334  0.3268 -0.8836
 9722TIP3    H250658   4.951   2.389  11.096  1.6121  1.5747 -0.5469
 9723TIP3   OH250659   4.182   3.685  14.567  0.3182 -0.1162 -0.0386
 9723TIP3    H150660   4.126   3.640  14.631  0.1240 -0.5572 -0.5099
 9723TIP3    H250661   4.232   3.614  14.525  0.6207  0.1936 -0.2022
 9724TIP3   OH250662   3.185   4.743   5.301  0.1712  0.6747  0.6873
 9724TIP3    H150663   3.109   4.719   5.354  0.0531  2.9552  1.6038
 9724TIP3    H250664   3.207   4.663   5.253 -0.1923 -1.2104  3.5781
 9725TIP3   OH250665   5.337   4.502   2.313  0.5522  0.0017 -0.1006
 9725TIP3    H150666   5.392   4.425   2.300 -0.0714 -0.9571  2.5877
 9725TIP3    H250667   5.395   4.565   2.358  0.1520 -0.1300  0.6123
 9726TIP3   OH250668   2.761   4.713  15.394 -0.0403 -0.0575 -0.4062
 9726TIP3    H150669   2.830   4.763  15.349  1.0626  0.6147  1.9276
 9726TIP3    H250670   2.687   4.714  15.333  1.4832  0.5485 -2.3122
 9727TIP3   OH250671   3.917   4.453  16.732  0.1481  0.4433 -0.2164
 9727TIP3    H150672   3.999   4.404  16.730  0.7596  1.4180  0.5651
 9727TIP3    H250673   3.858   4.402  16.676  1.2532 -0.3011 -0.7383
 9728TIP3   OH250674   0.772   4.558  10.996 -0.1697  0.5451 -0.2080
 9728TIP3    H150675   0.811   4.604  11.071  1.1488  1.0119 -1.1505
 9728TIP3    H250676   0.834   4.573  10.924  0.4742 -3.0283 -0.4681
 9729TIP3   OH250677   1.050   2.621   0.188  0.2016  0.3675 -0.0481
 9729TIP3    H150678   1.000   2.551   0.145  0.1026  0.7487 -0.5645
 9729TIP3    H250679   1.088   2.671   0.115  1.0953  0.2548  0.3342
 9730TIP3   OH250680   6.247   2.274   2.644 -0.1187  0.4408 -0.1779
 9730TIP3    H150681   6.195   2.344   2.683  2.9746  0.4319  4.3429
 9730TIP3    H250682   6.205   2.193   2.674  0.5014  0.4209  0.6515
 9731TIP3   OH250683   6.091   1.080  17.190  0.1174 -0.1818 -0.8619
 9731TIP3    H150684   6.165   1.084  17.250  0.0240 -0.4674 -0.7259
 9731TIP3    H250685   6.106   1.152  17.128  0.1090  0.2344 -0.3793
 9732TIP3   OH250686   0.443   5.757   3.570  0.2628  0.0440  0.0622
 9732TIP3    H150687   0.469   5.812   3.644  1.7074 -0.3182 -0.1606
 9732TIP3    H250688   0.413   5.819   3.504  3.1522  0.7333 -0.7051
 9733TIP3   OH250689   6.743   6.720  15.244 -0.0383  0.4631 -0.1291
 9733TIP3    H150690   6.787   6.739  15.162 -0.2941 -1.1003 -0.6508
 9733TIP3    H250691   6.669   6.665  15.219 -0.8047  0.9568  1.0186
 9734TIP3   OH250692   5.770   0.537  14.530 -0.2368 -0.0699  0.7215
 9734TIP3    H150693   5.860   0.540  14.500 -0.8243 -2.5367 -1.4581
 9734TIP3    H250694   5.724   0.601  14.475 -0.1360 -0.0554  0.6538
 9735TIP3   OH250695   2.469   0.499   1.543  0.7666  0.3368 -0.1015
 9735TIP3    H150696   2.496   0.587   1.517  0.1589  0.5998  0.1572
 9735TIP3    H250697   2.392   0.512   1.599  0.3074 -0.3917 -0.5517
 9736TIP3   OH250698   0.091   2.077  14.375  0.0772 -0.3698 -0.1413
 9736TIP3    H150699   0.112   2.067  14.282  0.4640 -2.2417  0.1123
 9736TIP3    H250700   0.171   2.050  14.420 -0.2205  0.2084  0.7427
 9737TIP3   OH250701   5.907   4.628  11.868 -0.2738 -0.2573 -0.3542
 9737TIP3    H150702   5.868   4.711  11.838  1.9056  1.2212  0.7633
 9737TIP3    H250703   5.870   4.615  11.955  1.5771  1.0700  0.6476
 9738TIP3   OH250704   1.965   3.945  14.435 -0.3775  0.2276  0.4574
 9738TIP3    H150705   1.881   3.967  14.394 -0.9576 -2.3528  0.1728
 9738TIP3    H250706   2.016   3.903  14.365  0.1227 -0.6516  1.3406
 9739TIP3   OH250707   5.542   0.691  13.739 -0.3663  0.1672  0.0405
 9739TIP3    H150708   5.484   0.698  13.663  2.5237  1.2431 -2.1463
 9739TIP3    H250709   5.582   0.604  13.731  1.3597  1.0121 -0.7640
 9740TIP3   OH250710   1.739   3.714  12.426 -0.3796 -0.4031 -0.2596
 9740TIP3    H150711   1.752   3.809  12.422  1.1370 -0.5503  0.6977
 9740TIP3    H250712   1.684   3.701  12.504  1.3137 -0.4588  0.9661
 9741TIP3   OH250713   0.452   5.090  12.013 -0.2828 -0.1103 -0.0524
 9741TIP3    H150714   0.541   5.068  12.041 -1.0158 -0.8055  1.8490
 9741TIP3    H250715   0.418   5.145  12.084 -1.7322 -0.7213 -0.2589
 9742TIP3   OH250716   1.689   2.999  14.924 -0.0054  0.1003 -0.3773
 9742TIP3    H150717   1.629   3.008  14.850 -0.5527 -0.9692 -0.0770
 9742TIP3    H250718   1.641   3.035  14.999 -0.1763 -0.5115 -0.1889
 9743TIP3   OH250719   2.979   5.330  16.937 -0.8925 -0.4967 -0.0449
 9743TIP3    H150720   2.888   5.358  16.948 -0.3219  0.7769  1.7026
 9743TIP3    H250721   3.018   5.396  16.881 -1.1032 -1.1894 -1.0160
 9744TIP3   OH250722   6.282   0.039   0.656  0.4999 -0.8003 -0.0027
 9744TIP3    H150723   6.360   0.000   0.695  1.2922  0.2068 -0.5644
 9744TIP3    H250724   6.296   0.031   0.561 -0.0696 -0.6016 -0.1050
 9745TIP3   OH250725   5.055   4.482   3.648  0.2547  0.2434 -0.3680
 9745TIP3    H150726   5.052   4.389   3.671  2.5283  0.0036 -0.8578
 9745TIP3    H250727   5.006   4.526   3.717  1.2047 -1.1015  1.1878
 9746TIP3   OH250728   0.886   2.640  16.184  0.3650 -0.1577  0.3424
 9746TIP3    H150729   0.883   2.630  16.279 -0.9306 -1.7373  0.1692
 9746TIP3    H250730   0.953   2.578  16.155 -0.4406 -0.9194  0.0922
 9747TIP3   OH250731   0.373   3.109  14.337  0.3891  0.4874  0.6316
 9747TIP3    H150732   0.443   3.107  14.272  0.2566  1.8636  0.4408
 9747TIP3    H250733   0.323   3.030  14.320  1.7820 -0.4237  0.6504
 9748TIP3   OH250734   3.256   0.237  15.714 -0.4322  0.5504  0.0435
 9748TIP3    H150735   3.238   0.328  15.738  2.7276  1.2469  0.0165
 9748TIP3    H250736   3.191   0.216  15.648 -0.6059  3.1159 -0.6559
 9749TIP3   OH250737   3.898   1.266  13.279  0.6774  0.8129  0.4243
 9749TIP3    H150738   3.894   1.236  13.369  3.0324 -0.5660  0.1219
 9749TIP3    H250739   3.889   1.361  13.285  0.6856  0.7252  2.0865
 9750TIP3   OH250740   2.408   1.844   3.014 -0.6387  0.1440  0.1834
 9750TIP3    H150741   2.449   1.904   3.077 -0.5707  1.4239 -1.0645
 9750TIP3    H250742   2.361   1.781   3.069  0.7257  0.2868  1.5644
 9751TIP3   OH250743   3.331   1.043   0.546 -0.5510  0.3811 -0.3472
 9751TIP3    H150744   3.367   1.058   0.633  0.6918 -0.7867 -0.6445
 9751TIP3    H250745   3.246   1.086   0.547 -0.7257  0.0168  1.5808
 9752TIP3   OH250746   1.448   0.867   4.221 -0.2310  0.0235  0.3905
 9752TIP3    H150747   1.381   0.926   4.254  0.3272 -0.3298  2.2071
 9752TIP3    H250748   1.528   0.894   4.265  0.2830 -1.2735  0.2786
 9753TIP3   OH250749   5.290   0.546   3.592 -0.1433 -0.4544 -0.0741
 9753TIP3    H150750   5.354   0.557   3.522 -0.0674  2.5151  0.3792
 9753TIP3    H250751   5.326   0.478   3.648  1.3487 -0.6225 -1.2258
 9754TIP3   OH250752   1.842   1.431  14.745  0.0977  0.6254 -0.2527
 9754TIP3    H150753   1.929   1.453  14.710 -0.5457  1.5480 -1.3134
 9754TIP3    H250754   1.860   1.385  14.826  1.5570  2.7792  0.6921
 9755TIP3   OH250755   3.334   0.360  14.582  0.2842  0.4778 -0.2748
 9755TIP3    H150756   3.409   0.323  14.628 -0.6779  1.1192  1.8806
 9755TIP3    H250757   3.364   0.447  14.553  0.7195  0.2871 -0.3987
 9756TIP3   OH250758   6.259   1.745   3.505  0.2587 -0.3624  0.0603
 9756TIP3    H150759   6.315   1.694   3.564 -0.0001 -0.3451  0.3221
 9756TIP3    H250760   6.189   1.778   3.561  0.1588 -0.1221 -0.2065
 9757TIP3   OH250761   5.513   6.280   3.570 -0.5558  0.3626 -0.4659
 9757TIP3    H150762   5.587   6.335   3.595 -0.9975  0.8790 -0.2929
 9757TIP3    H250763   5.491   6.232   3.649  0.8848 -1.3128 -1.0397
 9758TIP3   OH250764   1.142   6.758   0.891  0.4317  0.2088  0.5443
 9758TIP3    H150765   1.214   6.748   0.953  1.5551  0.1668 -0.7497
 9758TIP3    H250766   1.157   6.843   0.850 -0.7166  0.5722  0.8362
 9759TIP3   OH250767   0.237   1.171   3.399  0.3383 -0.1419  0.2737
 9759TIP3    H150768   0.157   1.166   3.346  0.8054  1.9503 -0.7137
 9759TIP3    H250769   0.307   1.147   3.338  0.7588  1.0880  0.2596
 9760TIP3   OH250770   5.462   0.656   6.210 -0.1203 -0.1060 -0.2109
 9760TIP3    H150771   5.471   0.625   6.120 -0.2193 -3.3197  0.8300
 9760TIP3    H250772   5.377   0.623   6.239 -0.4732  1.6291  0.8099
 9761TIP3   OH250773   6.180   1.443  14.653  0.0124  0.4604 -0.6071
 9761TIP3    H150774   6.134   1.499  14.591  2.4512  2.4976 -0.6389
 9761TIP3    H250775   6.250   1.401  14.602 -0.3100 -0.8004 -0.0548
 9762TIP3   OH250776   1.698   6.507  12.669 -0.6432 -0.2223  0.2268
 9762TIP3    H150777   1.764   6.490  12.602 -0.9298  0.1468 -0.1551
 9762TIP3    H250778   1.725   6.453  12.743  0.2825  0.1783  0.1981
 9763TIP3   OH250779   3.765   2.179   1.220 -0.3321 -0.0303  0.3601
 9763TIP3    H150780   3.831   2.114   1.245 -1.1681 -0.3069  1.9567
 9763TIP3    H250781   3.807   2.232   1.152  0.7924 -1.4762 -0.0937
 9764TIP3   OH250782   4.747   5.311  16.934  0.5568  0.6117 -0.2666
 9764TIP3    H150783   4.722   5.290  16.843 -0.1871  0.7570 -0.0958
 9764TIP3    H250784   4.697   5.389  16.955  0.8178  0.6413  0.2350
 9765TIP3   OH250785   3.415   4.795   0.916  0.4701 -0.0055  0.4545
 9765TIP3    H150786   3.440   4.724   0.857 -0.9526  0.1609 -0.3443
 9765TIP3    H250787   3.483   4.861   0.903 -0.5077  0.5551 -1.9124
 9766TIP3   OH250788   4.882   4.153  13.147  0.5213  0.0640 -0.1016
 9766TIP3    H150789   4.901   4.208  13.223  0.6805 -0.5385  0.3003
 9766TIP3    H250790   4.828   4.082  13.182  0.0315  0.1501 -0.6805
 9767TIP3   OH250791   0.242   6.190   5.171 -0.2920  0.5701 -0.1326
 9767TIP3    H150792   0.277   6.272   5.205 -2.6808 -0.2697  4.7873
 9767TIP3    H250793   0.150   6.208   5.154 -0.0395 -0.1731 -2.4597
 9768TIP3   OH250794   0.492   6.409  13.506  0.7488 -0.3946  0.0047
 9768TIP3    H150795   0.403   6.394  13.538  0.9725 -2.6448 -0.3221
 9768TIP3    H250796   0.547   6.353  13.561  1.8387  0.1585 -0.5015
 9769TIP3   OH250797   1.189   4.810   0.831 -0.2137  0.0904  0.6259
 9769TIP3    H150798   1.213   4.727   0.871  1.9621  0.2573 -0.2525
 9769TIP3    H250799   1.195   4.795   0.737  0.8711  1.4204  0.4662
 9770TIP3   OH250800   3.494   1.989   6.113 -0.1368 -0.3833 -0.4709
 9770TIP3    H150801   3.498   1.998   6.017 -1.1132 -0.3083 -0.5106
 9770TIP3    H250802   3.511   1.896   6.128 -1.2482 -0.6464 -0.8063
 9771TIP3   OH250803   2.242   3.175   3.949  0.1881  0.4231 -0.0277
 9771TIP3    H150804   2.328   3.216   3.940 -0.2511  1.3814  0.1027
 9771TIP3    H250805   2.180   3.247   3.941 -0.6023 -0.2482 -0.0139
 9772TIP3   OH250806   5.140   5.378  14.138  0.4925 -0.5817  0.4120
 9772TIP3    H150807   5.173   5.289  14.130  1.2855 -0.1922 -0.7569
 9772TIP3    H250808   5.176   5.409  14.221  0.6332 -1.1685  0.5708
 9773TIP3   OH250809   4.959   6.525  13.169  0.1276 -0.7876 -0.1683
 9773TIP3    H150810   4.930   6.498  13.082  2.5943  1.8519 -1.8844
 9773TIP3    H250811   5.021   6.457  13.195  1.6174 -0.0953 -1.7876
 9774TIP3   OH250812   5.132   1.363   3.790  0.4819  0.3652 -0.2862
 9774TIP3    H150813   5.075   1.398   3.721  0.3966  1.1047  0.1573
 9774TIP3    H250814   5.169   1.283   3.752 -1.2234 -0.3967 -0.3896
 9775TIP3   OH250815   1.775   2.765   5.908  0.1121 -0.6222  0.8074
 9775TIP3    H150816   1.813   2.691   5.860 -0.3487 -0.6652  0.5091
 9775TIP3    H250817   1.715   2.806   5.846  0.4188  0.0455  0.9552
 9776TIP3   OH250818   5.232   5.088  16.627 -0.5010 -0.0502 -0.7352
 9776TIP3    H150819   5.184   5.009  16.653  0.1088  0.3863  1.8581
 9776TIP3    H250820   5.171   5.134  16.569 -1.4916 -1.6412 -0.9991
 9777TIP3   OH250821   4.059   2.915   3.215  0.3518  0.5588  0.3033
 9777TIP3    H150822   4.044   2.826   3.247  2.7640 -0.6270 -1.6400
 9777TIP3    H250823   4.092   2.962   3.291 -1.9022  0.1199  1.6188
 9778TIP3   OH250824   6.592   3.187  11.633 -0.0722 -0.5418  0.3656
 9778TIP3    H150825   6.572   3.096  11.611  0.4939 -0.9104  1.2922
 9778TIP3    H250826   6.535   3.207  11.708 -1.0162  0.2412 -0.5564
 9779TIP3   OH250827   4.524   6.247  11.567  0.2012  0.2341  0.2117
 9779TIP3    H150828   4.429   6.240  11.579  0.2495 -0.0695  0.4166
 9779TIP3    H250829   4.559   6.166  11.604  0.4298 -0.3436 -1.2202
 9780TIP3   OH250830   5.896   0.492   4.258  0.1718  0.3367  0.1121
 9780TIP3    H150831   5.936   0.462   4.340  1.8282  1.4478 -0.2630
 9780TIP3    H250832   5.955   0.560   4.226 -2.3373  2.4665 -0.1756
 9781TIP3   OH250833   0.649   1.645  11.498  0.2886 -0.4832 -0.0685
 9781TIP3    H150834   0.704   1.714  11.534  0.4015 -1.3553  1.4742
 9781TIP3    H250835   0.609   1.604  11.575  0.4080 -2.2872 -0.9561
 9782TIP3   OH250836   2.801   3.519  15.898  0.2004  0.1803 -0.3608
 9782TIP3    H150837   2.778   3.434  15.936 -0.0907  0.2425 -0.3916
 9782TIP3    H250838   2.866   3.555  15.957 -1.0039  0.7264  0.6604
 9783TIP3   OH250839   1.942   1.924   2.420 -0.4257  0.0252 -0.1716
 9783TIP3    H150840   1.860   1.875   2.418 -0.9035  0.7184  1.5453
 9783TIP3    H250841   1.925   1.996   2.480  0.9073  1.1669 -1.1353
 9784TIP3   OH250842   0.277   3.159   3.242  0.2987 -0.0430 -0.0636
 9784TIP3    H150843   0.254   3.096   3.311 -0.9487  1.0680  0.5884
 9784TIP3    H250844   0.327   3.109   3.178  1.3361 -1.1456  1.5741
 9785TIP3   OH250845   0.986   2.956  16.809 -0.6042 -0.3210 -0.2193
 9785TIP3    H150846   0.967   3.020  16.878  0.4826 -0.2077 -0.0177
 9785TIP3    H250847   1.081   2.954  16.804 -0.6566 -1.1966 -0.9197
 9786TIP3   OH250848   3.866   5.537   0.654 -0.0324  0.0356  0.0129
 9786TIP3    H150849   3.787   5.487   0.673  0.3227 -1.0676 -1.3058
 9786TIP3    H250850   3.852   5.573   0.566  0.4936  0.6937  0.1931
 9787TIP3   OH250851   3.834   1.045   1.268 -0.1593 -0.3916  0.3780
 9787TIP3    H150852   3.925   1.045   1.239 -0.7717  0.5339 -1.6021
 9787TIP3    H250853   3.818   1.135   1.297 -0.6945 -0.3313 -0.0988
 9788TIP3   OH250854   1.507   2.527  13.304  0.7593  0.1165 -0.4955
 9788TIP3    H150855   1.432   2.481  13.267  0.6075  0.6384 -0.8492
 9788TIP3    H250856   1.578   2.463  13.302  0.1710 -0.5787  0.4119
 9789TIP3   OH250857   0.618   4.806  12.760  0.0326  0.2992 -0.4459
 9789TIP3    H150858   0.536   4.771  12.793  0.2237  1.4045  1.2269
 9789TIP3    H250859   0.591   4.865  12.689 -0.5441  0.0526 -0.4394
 9790TIP3   OH250860   4.642   0.280   0.273  0.0783 -0.6232 -0.2265
 9790TIP3    H150861   4.586   0.274   0.350  2.1533 -1.2171  1.2832
 9790TIP3    H250862   4.609   0.212   0.214 -0.2366 -1.5565  1.0087
 9791TIP3   OH250863   2.873   4.329   5.484 -0.4927  0.5710  0.5051
 9791TIP3    H150864   2.810   4.376   5.429 -0.9753  0.7144  1.1716
 9791TIP3    H250865   2.893   4.250   5.435 -1.4054  0.3905  0.4082
 9792TIP3   OH250866   6.689   2.982  15.165  0.4326 -0.2036 -0.1361
 9792TIP3    H150867   6.725   2.895  15.150 -0.0609 -0.6270  1.1301
 9792TIP3    H250868   6.694   3.024  15.079  1.0999 -1.3120 -0.6566
 9793TIP3   OH250869   2.569   1.245  14.648 -0.8235 -0.1913  0.2340
 9793TIP3    H150870   2.552   1.184  14.721  2.7335 -2.8258 -1.0068
 9793TIP3    H250871   2.551   1.193  14.569 -0.7732  1.3814 -0.8322
 9794TIP3   OH250872   4.532   1.758   0.114 -0.9385  0.4106 -0.5829
 9794TIP3    H150873   4.507   1.678   0.159 -1.7105 -0.2971 -2.2177
 9794TIP3    H250874   4.627   1.764   0.126 -1.0513 -0.0454  0.6295
 9795TIP3   OH250875   4.906   2.628  10.656 -0.3738  0.3068  1.1705
 9795TIP3    H150876   4.968   2.599  10.724  1.7074 -2.9546 -1.8636
 9795TIP3    H250877   4.870   2.546  10.621 -2.8262  1.9865 -0.3519
 9796TIP3   OH250878   1.202   2.202   1.747  0.3945 -0.3893 -0.0515
 9796TIP3    H150879   1.116   2.202   1.703 -0.2022  0.0048  1.0811
 9796TIP3    H250880   1.214   2.293   1.775  1.5733 -0.2632 -0.9323
 9797TIP3   OH250881   4.966   5.429   4.301 -0.1722  0.1508 -0.3084
 9797TIP3    H150882   4.876   5.401   4.287 -0.1458 -0.1882  0.1917
 9797TIP3    H250883   4.987   5.399   4.389 -0.5054  2.6806  0.6931
 9798TIP3   OH250884   2.999   6.064  11.898  0.2405  0.3135  0.2148
 9798TIP3    H150885   3.021   5.977  11.932 -0.0702 -0.1483 -0.7571
 9798TIP3    H250886   3.077   6.091  11.849  0.3741  0.6295  0.5968
 9799TIP3   OH250887   1.706   2.803  16.341  0.1109  0.1970 -0.7075
 9799TIP3    H150888   1.763   2.850  16.281 -0.0509  1.3057 -0.0033
 9799TIP3    H250889   1.757   2.795  16.422 -1.1754  2.2986  0.3365
 9800TIP3   OH250890   1.383   2.900  11.112  0.2554  0.0552 -0.0476
 9800TIP3    H150891   1.387   2.812  11.075  0.1451 -0.1724  0.4767
 9800TIP3    H250892   1.313   2.944  11.063 -0.0602 -0.3233  0.0654
 9801TIP3   OH250893   6.219   1.413  11.104  0.0716  0.1424 -0.1066
 9801TIP3    H150894   6.281   1.464  11.052 -1.3772  0.1979 -1.8530
 9801TIP3    H250895   6.225   1.324  11.068 -0.2002 -0.0492  0.3225
 9802TIP3   OH250896   5.838   3.979   3.258 -0.1635  0.2756 -0.5313
 9802TIP3    H150897   5.787   3.961   3.337  0.9149 -1.4198 -0.1890
 9802TIP3    H250898   5.828   3.900   3.205 -2.7814  2.2533 -3.2036
 9803TIP3   OH250899   5.823   6.132   5.655  0.2950  0.0316  0.3411
 9803TIP3    H150900   5.864   6.208   5.614  0.9303 -0.9345 -0.8747
 9803TIP3    H250901   5.749   6.167   5.704  0.8417  1.4695  0.1434
 9804TIP3   OH250902   1.840   5.560  12.189  0.6143  0.5003  0.3609
 9804TIP3    H150903   1.860   5.621  12.118 -2.0135  1.1583  0.1397
 9804TIP3    H250904   1.891   5.482  12.169 -0.0824  0.6676 -2.2705
 9805TIP3   OH250905   1.562   3.583   5.385  0.2492  0.2990  0.3970
 9805TIP3    H150906   1.618   3.507   5.400 -1.7496 -1.0304  1.2205
 9805TIP3    H250907   1.495   3.552   5.324 -0.4083  1.5055  0.4881
 9806TIP3   OH250908   5.519   6.625  14.743  0.5352  0.1571  0.1609
 9806TIP3    H150909   5.526   6.674  14.661 -1.1076  0.6554  0.3051
 9806TIP3    H250910   5.425   6.614  14.757  0.7856  0.3030  2.1034
 9807TIP3   OH250911   4.768   3.095  11.640  0.4568  0.0607 -0.3785
 9807TIP3    H150912   4.692   3.037  11.630  0.3296 -0.0551  1.2034
 9807TIP3    H250913   4.739   3.161  11.702  0.8220  1.4732 -1.6863
 9808TIP3   OH250914   0.639   0.934   1.472  0.3314 -0.5293  0.3565
 9808TIP3    H150915   0.577   0.973   1.533 -0.0494 -0.9929  0.2673
 9808TIP3    H250916   0.622   0.978   1.389 -1.6380 -2.4250 -0.3008
 9809TIP3   OH250917   5.615   1.208  14.983 -0.4190  0.5908  0.0140
 9809TIP3    H150918   5.701   1.219  15.023 -0.6250  2.5134 -0.0014
 9809TIP3    H250919   5.630   1.223  14.889 -0.7656  0.9986  0.0190
 9810TIP3   OH250920   1.917   5.700  11.962 -0.3231 -0.7250  0.2213
 9810TIP3    H150921   1.991   5.678  11.905 -0.1917 -0.1512  0.1694
 9810TIP3    H250922   1.917   5.795  11.966 -1.1025 -0.7178  0.1708
 9811TIP3   OH250923   6.319   6.593   3.917 -0.0228  0.3401 -0.1109
 9811TIP3    H150924   6.230   6.611   3.888  0.4359  1.9573 -0.5282
 9811TIP3    H250925   6.371   6.666   3.883  1.4510 -0.5603  0.1795
 9812TIP3   OH250926   1.966   5.632   0.592  0.6370  0.2186  0.4200
 9812TIP3    H150927   1.928   5.551   0.625 -1.0677  1.1109  0.7110
 9812TIP3    H250928   2.014   5.606   0.513  1.1426 -1.2398  1.1830
 9813TIP3   OH250929   1.601   2.773  10.905 -0.2239 -0.0587  0.1113
 9813TIP3    H150930   1.542   2.711  10.947 -1.2328  0.8874  0.1210
 9813TIP3    H250931   1.687   2.753  10.941 -1.0326  0.6072  2.5134
 9814TIP3   OH250932   0.406   1.655   0.189 -0.4934 -0.0672  0.1986
 9814TIP3    H150933   0.489   1.630   0.230  0.9030  1.7707 -1.4020
 9814TIP3    H250934   0.409   1.615   0.102 -0.8654  0.7541 -0.1998
 9815TIP3   OH250935   1.437   1.586   0.750  0.2459  0.0368 -0.1084
 9815TIP3    H150936   1.473   1.531   0.820 -0.9101  1.4261  1.6142
 9815TIP3    H250937   1.352   1.546   0.730 -0.3003  0.8137  0.6742
 9816TIP3   OH250938   4.874   6.322   5.080  0.6500 -0.0437  0.0961
 9816TIP3    H150939   4.798   6.375   5.056  1.3370  1.1007  0.4304
 9816TIP3    H250940   4.936   6.337   5.009  0.0807 -2.0163 -0.8544
 9817TIP3   OH250941   4.430   5.404   2.002  0.0946 -0.1243 -0.3386
 9817TIP3    H150942   4.414   5.423   1.909 -0.9544 -0.3814 -0.2208
 9817TIP3    H250943   4.509   5.454   2.024  0.2933  0.0095 -1.3450
 9818TIP3   OH250944   6.561   0.212   5.995 -0.0342  0.2130 -0.2813
 9818TIP3    H150945   6.638   0.252   5.957  0.7029 -1.1045 -0.2121
 9818TIP3    H250946   6.487   0.259   5.957  0.8006  1.3294 -0.5146
 9819TIP3   OH250947   4.398   6.720   0.217 -0.5238 -0.0322 -0.3018
 9819TIP3    H150948   4.491   6.739   0.201 -0.2788 -0.4903  0.5260
 9819TIP3    H250949   4.375   6.776   0.291 -0.9026  0.0637 -0.4931
 9820TIP3   OH250950   0.579   4.183  10.516  0.4394  0.5675 -0.1407
 9820TIP3    H150951   0.595   4.089  10.507  0.7269  0.6212 -0.2149
 9820TIP3    H250952   0.617   4.205  10.602  0.3952  0.6200 -0.1358
 9821TIP3   OH250953   3.696   1.166  12.704 -0.9108  0.4655 -0.9042
 9821TIP3    H150954   3.777   1.216  12.696  0.5515 -1.6551  0.2419
 9821TIP3    H250955   3.658   1.195  12.787  0.0303 -0.4470 -0.1464
 9822TIP3   OH250956   2.694   1.788   4.842 -0.8380  0.6498  0.0549
 9822TIP3    H150957   2.741   1.872   4.843 -0.8106  0.6338  0.1779
 9822TIP3    H250958   2.739   1.735   4.908  0.5106 -0.2206 -1.5341
 9823TIP3   OH250959   4.396   0.086  12.254 -0.2682 -0.1700  0.8660
 9823TIP3    H150960   4.447   0.068  12.333  0.1217 -1.6107  0.2957
 9823TIP3    H250961   4.310   0.112  12.287 -0.7105 -2.6245  1.7735
 9824TIP3   OH250962   3.615   6.807  14.712  0.0721  0.2500  0.1277
 9824TIP3    H150963   3.638   6.809  14.805 -0.6238  0.6675  0.2927
 9824TIP3    H250964   3.548   6.739  14.706  0.5529 -0.1980 -0.1718
 9825TIP3   OH250965   3.411   5.930   4.439  0.0170  0.4232  0.2214
 9825TIP3    H150966   3.448   6.017   4.427  0.9406  0.0748  0.5832
 9825TIP3    H250967   3.486   5.872   4.444 -0.5917 -0.3621  0.3133
 9826TIP3   OH250968   1.142   4.558   1.639 -0.2431 -0.0118  0.4882
 9826TIP3    H150969   1.229   4.518   1.641  0.0857  0.5995 -0.7292
 9826TIP3    H250970   1.086   4.492   1.598 -0.4331 -0.5436  1.5922
 9827TIP3   OH250971   6.028   5.619  14.372  0.4588  0.2628 -0.2217
 9827TIP3    H150972   6.043   5.633  14.466  0.2484  1.0457 -0.3016
 9827TIP3    H250973   6.096   5.556  14.346 -0.5101 -1.2171  0.7952
 9828TIP3   OH250974   0.210   6.373  11.685 -0.0798  0.5540 -0.1971
 9828TIP3    H150975   0.169   6.311  11.625  0.0257  0.4035 -0.1140
 9828TIP3    H250976   0.287   6.327  11.719  1.4136  1.6175 -2.0377
 9829TIP3   OH250977   2.801   4.103  13.509 -0.0144 -0.2636  0.3455
 9829TIP3    H150978   2.781   4.186  13.552  1.0261  0.2968 -0.2410
 9829TIP3    H250979   2.818   4.126  13.418  0.4641 -1.0952  0.2173
 9830TIP3   OH250980   1.865   1.684  10.955  0.4246  0.6106  0.4071
 9830TIP3    H150981   1.885   1.593  10.938 -1.8618  0.1216  0.1773
 9830TIP3    H250982   1.784   1.682  11.006  1.1053  2.4580  1.6350
 9831TIP3   OH250983   3.622   5.445   0.547  0.3895  0.0866 -0.0204
 9831TIP3    H150984   3.565   5.480   0.478  1.5581  1.2114 -0.4224
 9831TIP3    H250985   3.647   5.358   0.515 -1.7904 -0.8023  0.5683
 9832TIP3   OH250986   3.248   0.319   2.291 -0.2466  0.8168 -0.1850
 9832TIP3    H150987   3.257   0.231   2.328 -0.8253  0.7907 -0.1076
 9832TIP3    H250988   3.338   0.348   2.278 -0.0569 -0.1453 -1.0533
 9833TIP3   OH250989   3.030   6.129  16.681 -0.1003  0.9776  0.2634
 9833TIP3    H150990   3.033   6.200  16.745  0.2423  0.6097  0.6536
 9833TIP3    H250991   3.000   6.172  16.600 -0.1229  1.5190  0.5548
 9834TIP3   OH250992   5.382   3.589   3.574  0.4255 -0.3321  0.3230
 9834TIP3    H150993   5.346   3.504   3.597 -0.9243 -0.3733 -1.8012
 9834TIP3    H250994   5.470   3.589   3.612  0.5626 -2.7795  0.0755
 9835TIP3   OH250995   1.137   0.393  12.507  0.2290  1.1960 -0.3788
 9835TIP3    H150996   1.068   0.330  12.489  1.6973 -0.5775  0.0216
 9835TIP3    H250997   1.093   0.478  12.509 -1.4034  0.4612 -3.2534
 9836TIP3   OH250998   5.733   4.964   2.892  0.4589  0.0281 -0.2293
 9836TIP3    H150999   5.786   4.918   2.957  0.7125  0.3593 -0.1989
 9836TIP3    H251000   5.673   4.898   2.858  0.4485 -0.1874  0.2126
 9837TIP3   OH251001   1.984   4.076   5.701  0.4095 -0.1793 -0.8468
 9837TIP3    H151002   2.073   4.102   5.676  0.3821  0.2618 -0.4860
 9837TIP3    H251003   1.951   4.027   5.625  1.0691 -0.6064 -0.8651
 9838TIP3   OH251004   0.506   0.628  16.188  0.2593  1.0401 -0.7602
 9838TIP3    H151005   0.544   0.681  16.119 -0.2221  0.0432 -1.8128
 9838TIP3    H251006   0.416   0.659  16.197  0.6648  1.9486  0.2305
 9839TIP3   OH251007   0.385   4.263  14.144  0.0912  0.5652  0.0368
 9839TIP3    H151008   0.455   4.307  14.193 -1.0952  1.4912  0.9097
 9839TIP3    H251009   0.371   4.320  14.068  0.8261 -0.0363 -0.5546
 9840TIP3   OH251010   1.300   2.589   3.417 -0.0162 -0.4405 -0.0099
 9840TIP3    H151011   1.283   2.651   3.346 -2.0295 -1.0162 -0.0437
 9840TIP3    H251012   1.308   2.504   3.374 -1.1844 -0.7844  0.4410
 9841TIP3   OH251013   0.828   5.190  12.547 -0.3724 -0.4529 -0.4598
 9841TIP3    H151014   0.762   5.200  12.478 -0.1200  0.9880 -0.4978
 9841TIP3    H251015   0.778   5.191  12.629 -0.4378  0.3640 -0.5036
 9842TIP3   OH251016   1.370   6.754   1.397 -0.2947  0.8961 -0.0793
 9842TIP3    H151017   1.364   6.819   1.327 -1.2563  0.8106 -0.0858
 9842TIP3    H251018   1.422   6.683   1.359 -2.0083  0.2096 -1.2276
 9843TIP3   OH251019   5.377   3.213   4.126 -0.0789  0.3740  0.8535
 9843TIP3    H151020   5.304   3.201   4.066 -0.7697  0.3225  1.6924
 9843TIP3    H251021   5.355   3.158   4.202  1.3850 -0.5585  0.6298
 9844TIP3   OH251022   5.642   6.761  13.107  0.0706 -0.2191 -0.4168
 9844TIP3    H151023   5.554   6.776  13.141  0.4525  1.7886 -0.2300
 9844TIP3    H251024   5.699   6.772  13.183  0.5770 -0.1764 -0.8035
 9845TIP3   OH251025   5.080   6.597  12.252 -0.5020 -0.0530  0.3063
 9845TIP3    H151026   5.034   6.604  12.335  0.0544  1.3559  0.5120
 9845TIP3    H251027   5.094   6.503  12.240 -2.5899 -0.4421  0.6783
 9846TIP3   OH251028   4.047   3.920  16.680  0.0752 -0.0022  0.2822
 9846TIP3    H151029   4.059   3.826  16.662  0.2612  0.1708 -0.5110
 9846TIP3    H251030   4.047   3.961  16.593  1.2564  0.8851  0.6945
 9847TIP3   OH251031   6.687   5.569   5.047  0.4326  0.9958 -0.0628
 9847TIP3    H151032   6.679   5.580   4.952  1.2668  0.3832 -0.2020
 9847TIP3    H251033   6.714   5.655   5.079 -0.1501  1.2873 -0.3372
 9848TIP3   OH251034   1.321   0.276   3.853  0.5635 -0.0052  0.6810
 9848TIP3    H151035   1.379   0.232   3.915  1.2106  1.2181  0.9458
 9848TIP3    H251036   1.364   0.358   3.833  0.5027 -0.5169 -1.6512
 9849TIP3   OH251037   3.581   6.114   2.959  0.7843  0.7455 -0.1360
 9849TIP3    H151038   3.622   6.146   2.879  0.1998 -0.4016 -0.9057
 9849TIP3    H251039   3.652   6.072   3.007  1.3295  2.2286  0.3863
 9850TIP3   OH251040   2.154   5.523   3.556 -0.1659 -0.0740  0.0164
 9850TIP3    H151041   2.169   5.449   3.496  0.5640 -0.7189  0.9782
 9850TIP3    H251042   2.178   5.489   3.642 -2.5879  0.3979  0.9158
 9851TIP3   OH251043   4.350   4.237   1.790  0.3834  0.0801 -0.1531
 9851TIP3    H151044   4.426   4.191   1.754 -0.0464  0.2081 -1.2390
 9851TIP3    H251045   4.281   4.171   1.794 -0.2465  0.6239 -1.7573
 9852TIP3   OH251046   0.893   6.204   3.245 -0.1129  0.3889 -0.3794
 9852TIP3    H151047   0.985   6.230   3.232 -0.1576  0.4472 -0.5743
 9852TIP3    H251048   0.886   6.119   3.203 -0.3321  0.7129 -1.0074
 9853TIP3   OH251049   0.235   0.034  13.236  0.3507  0.0699  0.1090
 9853TIP3    H151050   0.151   0.071  13.264  0.8624  1.4900 -0.1749
 9853TIP3    H251051   0.274  -0.001  13.316 -0.3652 -0.3021  0.2984
 9854TIP3   OH251052   3.206   0.321   5.066  0.4647 -0.1144 -0.2337
 9854TIP3    H151053   3.231   0.269   4.989 -0.2160 -1.2248  0.2820
 9854TIP3    H251054   3.184   0.407   5.030  0.0411 -0.6537 -1.3008
 9855TIP3   OH251055   0.514   5.181   1.762 -0.0845  0.1158  0.0656
 9855TIP3    H151056   0.546   5.226   1.684  3.7163 -2.3954  0.0352
 9855TIP3    H251057   0.466   5.106   1.728 -0.9636  0.6467  0.1346
 9856TIP3   OH251058   4.554   0.757  10.491  0.3686 -0.0446 -0.1205
 9856TIP3    H151059   4.633   0.800  10.525 -0.1088 -0.8566  2.0334
 9856TIP3    H251060   4.486   0.824  10.495  0.5028  0.0997 -0.2448
 9857TIP3   OH251061   1.979   5.093   0.244 -0.2234 -0.4272  0.5555
 9857TIP3    H151062   1.941   5.061   0.163 -1.4412 -1.3270  1.4579
 9857TIP3    H251063   1.985   5.015   0.300  1.9603 -0.1108  0.8242
 9858TIP3   OH251064   2.841   4.290   6.004 -0.1397  0.0784  0.1811
 9858TIP3    H151065   2.874   4.265   5.918 -2.1027 -1.2104 -0.2562
 9858TIP3    H251066   2.782   4.218   6.028 -2.3044  2.0851  1.0343
 9859TIP3   OH251067   3.019   6.300  11.231 -0.4871  0.2494  0.1306
 9859TIP3    H151068   3.106   6.341  11.232 -0.1055 -0.5548  1.8983
 9859TIP3    H251069   3.007   6.268  11.320 -2.0349 -0.8582 -0.4635
 9860TIP3   OH251070   3.517   5.953   1.497  0.4673 -0.5229 -0.2864
 9860TIP3    H151071   3.584   5.887   1.478 -0.4092 -1.6565  0.5218
 9860TIP3    H251072   3.561   6.015   1.556  1.1578 -0.6336 -0.6797
 9861TIP3   OH251073   3.829   0.738   3.249  0.1100  0.3154  0.4123
 9861TIP3    H151074   3.795   0.692   3.327  0.0394  1.5783  1.1392
 9861TIP3    H251075   3.816   0.676   3.178 -1.8785 -0.0207  1.0281
 9862TIP3   OH251076   3.450   4.517  11.537  0.4843 -0.0640  0.0304
 9862TIP3    H151077   3.361   4.521  11.573  0.2666 -2.0671 -0.2632
 9862TIP3    H251078   3.454   4.591  11.476 -1.0999 -0.1772 -0.2244
 9863TIP3   OH251079   0.013   3.159   2.243 -0.0924 -0.0156  0.4239
 9863TIP3    H151080   0.074   3.232   2.239 -0.8899  0.5840 -1.9385
 9863TIP3    H251081   0.066   3.082   2.228 -0.0166  0.5883 -2.6628
 9864TIP3   OH251082   6.271   5.260  16.682 -0.2031  0.1457 -0.1493
 9864TIP3    H151083   6.341   5.326  16.679 -0.1612  0.0941 -0.3180
 9864TIP3    H251084   6.282   5.210  16.601 -1.5488  1.2774 -1.0448
 9865TIP3   OH251085   3.492   0.602   0.612 -0.0823  0.4264 -0.1835
 9865TIP3    H151086   3.421   0.587   0.550 -0.4292 -0.5324  0.4460
 9865TIP3    H251087   3.461   0.675   0.666  0.1362  1.1327 -0.9931
 9866TIP3   OH251088   5.011   5.513  14.520  0.1310 -0.0921  0.6844
 9866TIP3    H151089   4.968   5.579  14.573 -1.7554  0.4321 -1.4407
 9866TIP3    H251090   4.948   5.442  14.514  0.7934 -0.6440  0.1194
 9867TIP3   OH251091   5.755   3.316  13.816  0.1810  0.9157  0.0645
 9867TIP3    H151092   5.821   3.355  13.759  0.4328  1.7195  0.8973
 9867TIP3    H251093   5.805   3.272  13.885 -0.1389  1.0248  0.3693
 9868TIP3   OH251094   4.974   5.926  16.560  0.1811  0.9351 -0.1076
 9868TIP3    H151095   5.061   5.964  16.548  1.3465 -1.4414  0.4448
 9868TIP3    H251096   4.938   5.973  16.635  1.3122  1.4185  0.1452
 9869TIP3   OH251097   1.282   6.450   0.465  0.0613  0.0296 -0.1585
 9869TIP3    H151098   1.292   6.499   0.383 -1.2289  0.1106 -0.2923
 9869TIP3    H251099   1.326   6.367   0.448  0.8138  0.4927 -0.5205
 9870TIP3   OH251100   5.331   0.513   4.467  0.6239 -0.8291 -0.1948
 9870TIP3    H151101   5.239   0.485   4.472  0.5327 -0.2327  2.7417
 9870TIP3    H251102   5.373   0.468   4.541  1.7567  2.0644  0.9998
 9871TIP3   OH251103   2.287   3.659   2.311  0.2496  0.4247  0.5135
 9871TIP3    H151104   2.346   3.714   2.362  1.2686 -1.0448  0.9539
 9871TIP3    H251105   2.319   3.666   2.221 -0.7392  1.9688  0.2625
 9872TIP3   OH251106   2.304   1.181   6.044  0.0435  0.6592  0.2895
 9872TIP3    H151107   2.240   1.249   6.067  0.8679  1.2387  0.8734
 9872TIP3    H251108   2.373   1.190   6.109  1.2622  0.7635 -1.0055
 9873TIP3   OH251109   4.628   6.632  16.744 -0.4494 -0.7517 -0.1451
 9873TIP3    H151110   4.573   6.560  16.713  0.7875 -0.2010 -3.7852
 9873TIP3    H251111   4.607   6.705  16.686 -0.0993  1.2207  2.1290
 9874TIP3   OH251112   4.917   6.594   3.442  0.2525  0.1973 -0.2560
 9874TIP3    H151113   5.009   6.573   3.456  0.2396  0.6743  0.5249
 9874TIP3    H251114   4.917   6.652   3.366  0.5265 -0.3618 -0.6922
 9875TIP3   OH251115   4.040   3.052   3.693 -0.0998  0.0574 -0.1805
 9875TIP3    H151116   4.084   3.029   3.775 -0.6875 -1.3247 -0.2406
 9875TIP3    H251117   4.045   2.973   3.640 -3.4451 -0.4436  0.1523
 9876TIP3   OH251118   4.856   4.321   4.763  0.2210 -0.3624  0.3101
 9876TIP3    H151119   4.830   4.235   4.797 -0.4208 -0.3474 -0.1367
 9876TIP3    H251120   4.807   4.383   4.816  0.7727 -0.2649  0.7091
 9877TIP3   OH251121   1.604   1.499   3.326 -0.3143 -0.1846 -0.1467
 9877TIP3    H151122   1.585   1.570   3.386 -0.1683  1.4313 -1.9828
 9877TIP3    H251123   1.700   1.497   3.320 -0.2681 -1.2272  0.6850
 9878TIP3   OH251124   4.807   6.133   1.015  0.0085 -0.0246  0.2739
 9878TIP3    H151125   4.902   6.142   1.012 -0.0886  1.2982  0.6960
 9878TIP3    H251126   4.789   6.082   1.094  0.4052 -0.9958 -0.2552
 9879TIP3   OH251127   6.705   6.508  10.791 -0.2427  0.0522 -0.1688
 9879TIP3    H151128   6.738   6.560  10.865 -1.8172 -1.4059  1.6175
 9879TIP3    H251129   6.624   6.553  10.765 -0.4511 -0.2606 -0.0579
 9880TIP3   OH251130   0.276   5.149  11.339  0.1819 -0.0354  0.3176
 9880TIP3    H151131   0.184   5.174  11.336  0.1338 -0.0869  1.4830
 9880TIP3    H251132   0.323   5.229  11.313 -0.0716  0.7081  2.1095
 9881TIP3   OH251133   5.453   6.120   1.555 -0.2707  0.5480 -0.2883
 9881TIP3    H151134   5.463   6.052   1.488  0.6077  0.5077 -0.1160
 9881TIP3    H251135   5.402   6.078   1.624 -0.2034  0.2365 -0.4294
 9882TIP3   OH251136   5.727   5.068  13.254 -0.2068  0.0421 -0.1679
 9882TIP3    H151137   5.675   4.992  13.279 -1.5782  1.0981  0.2554
 9882TIP3    H251138   5.749   5.053  13.162  1.7565 -2.1050  0.6009
 9883TIP3   OH251139   3.995   4.875   4.017  0.3944 -0.0644 -0.3880
 9883TIP3    H151140   4.048   4.868   4.097  0.2525 -0.2219 -0.3066
 9883TIP3    H251141   3.920   4.929   4.043  1.1157  1.1546 -0.8165
 9884TIP3   OH251142   5.302   2.316   5.893 -0.0590 -0.3152 -0.8164
 9884TIP3    H151143   5.395   2.303   5.878  0.8546  2.7305  1.6615
 9884TIP3    H251144   5.278   2.388   5.835 -0.3071  0.4479  0.2148
 9885TIP3   OH251145   0.735   5.751   1.734 -0.0465 -0.2117  0.7415
 9885TIP3    H151146   0.806   5.732   1.673  1.7736  0.8989  2.4700
 9885TIP3    H251147   0.674   5.804   1.684  1.6630  1.0885 -0.0035
 9886TIP3   OH251148   1.219   4.319  15.565  0.0777  0.3897 -0.3741
 9886TIP3    H151149   1.213   4.386  15.633  1.1922 -1.3516  1.5000
 9886TIP3    H251150   1.286   4.352  15.504  1.6430  0.3730  1.2862
 9887TIP3   OH251151   2.358   2.957  15.907 -0.6008  0.3799  0.0956
 9887TIP3    H151152   2.314   2.889  15.855  1.4224 -0.4298 -0.5920
 9887TIP3    H251153   2.436   2.979  15.856 -0.0690  1.6105  1.4260
 9888TIP3   OH251154   3.068   5.148   2.801 -0.0991  0.4125 -0.2068
 9888TIP3    H151155   3.125   5.156   2.877 -0.7339  0.3019  0.2885
 9888TIP3    H251156   3.000   5.214   2.815 -0.4081  0.1582 -0.5083
 9889TIP3   OH251157   4.421   1.512   3.113  0.2927  0.1429 -0.4398
 9889TIP3    H151158   4.329   1.509   3.090  0.6086 -2.4429 -1.5477
 9889TIP3    H251159   4.468   1.499   3.030  1.5627 -1.6485  0.5050
 9890TIP3   OH251160   4.226   3.543  14.150 -0.4783 -0.6351 -0.1187
 9890TIP3    H151161   4.234   3.493  14.069 -2.6580 -0.0452 -0.7194
 9890TIP3    H251162   4.132   3.546  14.167 -0.1603  0.7551  1.4912
 9891TIP3   OH251163   4.712   4.099   0.864 -0.1579 -0.1808 -0.7672
 9891TIP3    H151164   4.698   4.049   0.944 -0.4205 -0.6489 -1.1020
 9891TIP3    H251165   4.666   4.182   0.879  0.0734 -0.1357 -0.3082
 9892TIP3   OH251166   3.315   1.459   0.207  0.0358 -0.3929  0.6660
 9892TIP3    H151167   3.387   1.429   0.262 -1.1522 -0.9355  1.9598
 9892TIP3    H251168   3.248   1.392   0.216 -0.7811  0.2825 -0.2390
 9893TIP3   OH251169   0.047   4.687   5.577  0.4173 -0.1733 -0.1182
 9893TIP3    H151170  -0.040   4.707   5.540  0.3091  1.6363  1.0418
 9893TIP3    H251171   0.109   4.719   5.511  0.2073  1.1416  0.3015
 9894TIP3   OH251172   3.111   2.639  17.037  0.1051 -0.5528 -0.0248
 9894TIP3    H151173   3.080   2.730  17.039  1.1993 -0.0679 -2.6376
 9894TIP3    H251174   3.116   2.613  17.129 -2.4584  1.2393  0.6909
 9895TIP3   OH251175   1.609   5.545  14.261  0.2732 -0.1815  0.1670
 9895TIP3    H151176   1.639   5.464  14.303 -1.3392 -1.4133 -0.9529
 9895TIP3    H251177   1.606   5.523  14.167 -2.0050  0.5557  0.0401
 9896TIP3   OH251178   0.604   1.252  16.009 -0.1471  0.0077  0.0813
 9896TIP3    H151179   0.570   1.257  16.099 -0.1286 -0.3244  0.1067
 9896TIP3    H251180   0.556   1.179  15.970  0.3798 -0.3211  0.0500
 9897TIP3   OH251181   0.536   5.903  13.018 -0.1120  0.4921  0.3274
 9897TIP3    H151182   0.477   5.974  12.992 -1.4866 -0.7784 -0.1124
 9897TIP3    H251183   0.487   5.855  13.084  0.8813  0.0430  0.7409
 9898TIP3   OH251184   5.056   4.520  15.244  0.5450  0.1460 -0.0666
 9898TIP3    H151185   4.992   4.523  15.173  1.1690 -1.3002 -0.7090
 9898TIP3    H251186   5.131   4.570  15.212  0.9949 -0.8669 -0.6057
 9899TIP3   OH251187   6.221   4.520   1.618 -0.1921  0.2381 -0.3794
 9899TIP3    H151188   6.278   4.556   1.686  1.3499 -0.1660 -1.4475
 9899TIP3    H251189   6.134   4.516   1.660  0.2245  2.2813  0.7512
 9900TIP3   OH251190   4.504   5.430   0.252 -0.0909 -0.8482  0.2470
 9900TIP3    H151191   4.485   5.418   0.345  1.3579  0.6134  0.7511
 9900TIP3    H251192   4.478   5.520   0.233  1.5540 -0.4640 -0.2621
 9901TIP3   OH251193   2.764   0.368   2.755  0.4974  0.1570 -0.2574
 9901TIP3    H151194   2.797   0.458   2.745 -1.6294  1.2039  1.6859
 9901TIP3    H251195   2.717   0.369   2.839 -0.2221 -2.5853 -0.5760
 9902TIP3   OH251196   5.462   6.159  16.037  0.1786  0.6754  0.2777
 9902TIP3    H151197   5.536   6.191  15.986 -1.3366  1.4228 -1.5346
 9902TIP3    H251198   5.472   6.199  16.123  2.1106  0.3966  0.2116
 9903TIP3   OH251199   1.382   4.375   2.520  0.0372  0.2502 -0.1604
 9903TIP3    H151200   1.455   4.377   2.459  0.5809  0.6797  0.4913
 9903TIP3    H251201   1.325   4.448   2.493  0.8369  1.1430  0.5177
 9904TIP3   OH251202   1.690   6.334  14.903  0.0438  0.0099  0.0520
 9904TIP3    H151203   1.629   6.264  14.925  1.0321 -0.7685  0.3602
 9904TIP3    H251204   1.672   6.403  14.967 -1.1458  0.1736 -0.4483
 9905TIP3   OH251205   3.883   6.437   2.601 -0.5277  0.0341 -0.0067
 9905TIP3    H151206   3.946   6.384   2.651 -2.8732 -2.4114  0.4698
 9905TIP3    H251207   3.895   6.409   2.510 -0.3478  0.1789 -0.0276
 9906TIP3   OH251208   6.316   0.276  10.309  0.1570 -0.2025 -0.6865
 9906TIP3    H151209   6.246   0.214  10.289 -1.4184  0.9749  0.9977
 9906TIP3    H251210   6.353   0.246  10.392 -0.5488  1.0199  0.0859
 9907TIP3   OH251211   5.785   5.198  14.639  0.5861  0.3122  0.1682
 9907TIP3    H151212   5.847   5.266  14.612  0.8154 -0.4514 -1.2457
 9907TIP3    H251213   5.802   5.125  14.581 -0.3655 -0.6022  1.0166
 9908TIP3   OH251214   1.525   4.027   3.304 -0.7414 -0.7315 -0.1874
 9908TIP3    H151215   1.469   3.984   3.368 -0.6415 -0.0179  0.3885
 9908TIP3    H251216   1.486   4.114   3.291  0.6458  0.0623  0.8108
 9909TIP3   OH251217   4.348   0.784  13.205 -0.1210 -0.7332 -0.5299
 9909TIP3    H151218   4.284   0.746  13.265  0.5909  0.3104  0.9017
 9909TIP3    H251219   4.418   0.817  13.262  0.9136 -0.3866 -1.9772
 9910TIP3   OH251220   6.142   3.322  13.106 -0.2422 -0.1780  0.1084
 9910TIP3    H151221   6.104   3.374  13.177  0.2056 -1.8069  1.5744
 9910TIP3    H251222   6.230   3.301  13.135  0.9684  1.5289 -2.2210
 9911TIP3   OH251223   5.363   0.475  14.820  0.3858  0.0528  0.5181
 9911TIP3    H151224   5.312   0.503  14.897 -0.4098  0.8247 -0.2716
 9911TIP3    H251225   5.446   0.522  14.828 -0.0330  0.8205  0.4558
 9912TIP3   OH251226   2.557   5.039  12.896  0.2462  0.3922 -0.3247
 9912TIP3    H151227   2.615   5.067  12.966 -0.4986 -0.2712  0.5754
 9912TIP3    H251228   2.605   5.058  12.815  1.2121  0.9303  0.3721
 9913TIP3   OH251229   6.658   4.137  14.782 -0.1063  0.2397  0.4026
 9913TIP3    H151230   6.694   4.188  14.710  0.7158  0.0904  0.7097
 9913TIP3    H251231   6.564   4.156  14.780  0.0514  0.9837 -0.1056
 9914TIP3   OH251232   0.647   0.327   5.337  0.2069  0.0402  0.1777
 9914TIP3    H151233   0.615   0.382   5.409  1.7599  1.7278 -0.3667
 9914TIP3    H251234   0.736   0.304   5.364  0.9124  0.9583 -1.3335
 9915TIP3   OH251235   6.068   5.160   5.308  0.3308 -0.7537  0.2861
 9915TIP3    H151236   6.137   5.206   5.259 -0.5997 -0.2499 -0.5685
 9915TIP3    H251237   6.081   5.188   5.399  1.1638 -0.5553  0.1150
 9916TIP3   OH251238   6.618   5.790  16.330 -0.0968  0.5005 -0.2007
 9916TIP3    H151239   6.601   5.719  16.268 -2.2757  0.1406  0.7438
 9916TIP3    H251240   6.568   5.864  16.296 -1.2145  0.3376  1.0255
 9917TIP3   OH251241   6.678   5.100  13.615  0.6481 -0.3357  0.3707
 9917TIP3    H151242   6.602   5.072  13.665  1.9376 -1.8875  1.4996
 9917TIP3    H251243   6.661   5.192  13.595 -2.0654 -0.9721 -0.4529
 9918TIP3   OH251244   2.588   3.285  11.059 -0.0708  0.2807 -0.2966
 9918TIP3    H151245   2.682   3.276  11.072 -0.0583  0.8889  0.0523
 9918TIP3    H251246   2.579   3.311  10.967  0.1240  0.5775 -0.2327
 9919TIP3   OH251247   6.134   4.790   2.561  0.0732 -0.2873  0.1279
 9919TIP3    H151248   6.119   4.770   2.469  0.1975 -1.7035  0.4021
 9919TIP3    H251249   6.194   4.864   2.560  0.0800 -0.2949 -0.9324
 9920TIP3   OH251250   4.438   4.318   3.651 -0.3302  0.1718 -0.3664
 9920TIP3    H151251   4.351   4.326   3.612 -0.5755  0.5305  0.2631
 9920TIP3    H251252   4.495   4.369   3.594 -0.1187 -1.8951 -2.0811
 9921TIP3   OH251253   3.295   1.536   4.739  0.2110  0.2891 -0.4332
 9921TIP3    H151254   3.381   1.497   4.753  0.3622  1.3023  1.6326
 9921TIP3    H251255   3.306   1.628   4.764 -1.7486  0.1659  0.9988
 9922TIP3   OH251256   6.499   5.251  13.992  0.0995 -0.1661 -0.1151
 9922TIP3    H151257   6.426   5.271  14.051  0.7902 -1.4165  1.1950
 9922TIP3    H251258   6.465   5.182  13.935  0.4384 -1.2249  0.9307
 9923TIP3   OH251259   2.267   0.005   1.269 -0.2845 -0.1216  0.6067
 9923TIP3    H151260   2.305  -0.048   1.340 -2.5114 -0.3424  1.6778
 9923TIP3    H251261   2.334   0.070   1.249  0.1666  0.3296  3.3725
 9924TIP3   OH251262   4.144   3.695   3.364 -0.4558  0.4636  0.2376
 9924TIP3    H151263   4.198   3.702   3.285 -0.7029  0.0877  0.0379
 9924TIP3    H251264   4.058   3.669   3.333 -0.1400 -1.2942  0.7634
 9925TIP3   OH251265   3.211   2.393   2.360  0.0318 -0.3483  0.0767
 9925TIP3    H151266   3.240   2.470   2.311 -1.8399  0.5690  0.3779
 9925TIP3    H251267   3.199   2.325   2.294 -0.4128  0.2541 -0.4671
 9926TIP3   OH251268   5.080   1.245   2.507 -0.2599 -0.0139  0.0473
 9926TIP3    H151269   5.032   1.168   2.477 -0.5670  0.3229 -0.3269
 9926TIP3    H251270   5.172   1.218   2.502 -0.4528 -1.5548  3.2156
 9927TIP3   OH251271   3.480   1.423  17.284  0.3495  0.0976 -0.2217
 9927TIP3    H151272   3.433   1.493  17.329 -0.9499  0.7144 -2.4827
 9927TIP3    H251273   3.462   1.345  17.336  0.4221  1.1106  1.3657
 9928TIP3   OH251274   2.903   5.276  15.169 -0.0127 -0.7193  0.5734
 9928TIP3    H151275   2.999   5.279  15.174  0.1337 -0.9473 -1.4908
 9928TIP3    H251276   2.884   5.188  15.137 -0.7067  0.4381 -2.3126
 9929TIP3   OH251277   6.694   0.236   0.280  0.3065 -0.5574 -0.2335
 9929TIP3    H151278   6.700   0.316   0.333 -1.1819 -0.8183  0.3642
 9929TIP3    H251279   6.784   0.214   0.258  1.1299 -1.2922  3.5085
 9930TIP3   OH251280   1.931   2.800  16.507  0.3204 -0.3741  0.0116
 9930TIP3    H151281   1.965   2.827  16.592 -1.6778 -0.3881  0.8501
 9930TIP3    H251282   2.002   2.751  16.467  1.6388  0.4726  1.2589
 9931TIP3   OH251283   0.336   5.275   0.009  0.7767  0.4230 -0.0690
 9931TIP3    H151284   0.251   5.278  -0.035  1.1613  2.0071 -0.7431
 9931TIP3    H251285   0.316   5.286   0.101 -0.0015 -2.4312  0.1359
 9932TIP3   OH251286   6.664   3.498  16.951  0.1367  0.2736 -0.5932
 9932TIP3    H151287   6.745   3.547  16.963  0.9460 -1.2246  0.2471
 9932TIP3    H251288   6.667   3.468  16.860 -0.2819  1.6155 -1.0600
 9933TIP3   OH251289   3.107   3.752  14.788 -0.4215 -0.3341 -0.4668
 9933TIP3    H151290   3.072   3.731  14.875  2.1188  0.5822  0.8456
 9933TIP3    H251291   3.107   3.847  14.785 -0.1404 -0.3635 -1.3106
 9934TIP3   OH251292   0.181   4.691   3.545 -0.4529 -0.5472  0.2319
 9934TIP3    H151293   0.162   4.696   3.639 -1.6218  0.9784 -0.0679
 9934TIP3    H251294   0.257   4.747   3.532 -0.5613 -0.4011  0.2156
 9935TIP3   OH251295   2.191   2.284  12.361  0.0628 -0.3749 -0.5024
 9935TIP3    H151296   2.190   2.191  12.387 -2.4881 -0.3657 -0.4092
 9935TIP3    H251297   2.188   2.332  12.443  0.9248 -0.2191 -0.5631
 9936TIP3   OH251298   3.942   4.704  10.720  0.3645 -0.2327 -0.2900
 9936TIP3    H151299   3.857   4.683  10.758  0.0417  0.0174 -0.8671
 9936TIP3    H251300   4.006   4.665  10.780 -0.1570 -0.4594  0.1177
 9937TIP3   OH251301   4.204   3.300  15.506 -0.4206 -0.6419  0.3162
 9937TIP3    H151302   4.182   3.207  15.507 -2.0880 -0.2662  0.4548
 9937TIP3    H251303   4.251   3.313  15.424 -1.2254 -1.3786 -0.2687
 9938TIP3   OH251304   3.131   1.600   1.172 -0.1287  0.4352 -0.1450
 9938TIP3    H151305   3.155   1.598   1.079  0.1655 -0.7126 -0.0445
 9938TIP3    H251306   3.039   1.576   1.173 -0.1081  0.3554 -0.1366
 9939TIP3   OH251307   4.904   1.436   3.625 -0.4927 -0.0419 -0.1386
 9939TIP3    H151308   4.901   1.514   3.680  1.5341  0.1517 -0.2937
 9939TIP3    H251309   4.896   1.469   3.536 -1.3473 -0.1707 -0.1202
 9940TIP3   OH251310   1.635   1.287   4.060  0.6731  0.4229  0.0618
 9940TIP3    H151311   1.643   1.269   4.153  0.1562 -0.2360 -0.0129
 9940TIP3    H251312   1.540   1.284   4.044  0.8926 -2.9562 -1.1383
 9941TIP3   OH251313   6.385   6.262  13.048  0.2577  0.4080  0.3854
 9941TIP3    H151314   6.447   6.317  13.000 -0.8864 -0.0291 -1.6704
 9941TIP3    H251315   6.430   6.178  13.057  1.1384  0.9878  1.6005
 9942TIP3   OH251316   5.164   0.522  16.900  0.7614 -0.0827 -0.2883
 9942TIP3    H151317   5.193   0.452  16.959  1.1250 -0.0412 -0.4193
 9942TIP3    H251318   5.107   0.577  16.955  2.1071  0.6708  0.3775
 9943TIP3   OH251319   5.998   5.949   5.786 -0.3673  0.4395  0.0508
 9943TIP3    H151320   6.035   5.991   5.864 -0.6736  1.2861 -0.2481
 9943TIP3    H251321   5.934   6.013   5.753 -2.8871 -1.4241  1.1766
 9944TIP3   OH251322   0.554   3.228   0.669 -0.2766  0.2006  0.0995
 9944TIP3    H151323   0.543   3.140   0.632  0.9842  0.1746 -0.2388
 9944TIP3    H251324   0.525   3.220   0.760  1.2806 -0.9497  0.5071
 9945TIP3   OH251325   6.689   4.587  15.049 -0.4059 -0.3055  0.1193
 9945TIP3    H151326   6.655   4.545  14.970 -0.0068 -1.5552  0.6057
 9945TIP3    H251327   6.783   4.595  15.034 -0.2528 -1.0202  0.6833
 9946TIP3   OH251328   2.445   2.661  13.214  0.1048 -0.0880 -0.0028
 9946TIP3    H151329   2.507   2.686  13.283  0.1349  1.8421 -0.6961
 9946TIP3    H251330   2.408   2.744  13.184 -5.1035 -1.3159  2.4474
 9947TIP3   OH251331   0.661   3.277   1.041 -0.6860  0.9935 -0.6469
 9947TIP3    H151332   0.744   3.311   1.007 -0.5317 -0.2380 -1.5403
 9947TIP3    H251333   0.681   3.250   1.131 -0.3440  1.5524 -0.5552
 9948TIP3   OH251334   2.440   6.734  13.117 -0.4637 -0.1333 -0.9199
 9948TIP3    H151335   2.535   6.729  13.128 -0.2255  1.9023 -1.7055
 9948TIP3    H251336   2.406   6.745  13.206 -0.0817 -2.1662 -0.5131
 9949TIP3   OH251337   0.540   0.860   4.529  0.0164  0.5136  0.1858
 9949TIP3    H151338   0.488   0.842   4.607  0.8242 -0.2090  0.5685
 9949TIP3    H251339   0.575   0.774   4.503  1.3223  1.0430  0.1629
 9950TIP3   OH251340   0.495   0.580   3.622  0.6955  0.1186  0.2261
 9950TIP3    H151341   0.552   0.581   3.544  1.7874 -0.0962  1.0160
 9950TIP3    H251342   0.407   0.588   3.586  1.2188  0.5379 -1.0201
 9951TIP3   OH251343   3.807   2.087   2.564  0.2589  0.1223 -0.9306
 9951TIP3    H151344   3.859   2.073   2.485  1.0605  1.5655 -0.6864
 9951TIP3    H251345   3.716   2.087   2.534  0.5472  0.3547 -1.8109
 9952TIP3   OH251346   4.060   3.084  16.742 -0.1893  0.4194 -0.3820
 9952TIP3    H151347   4.074   3.049  16.654 -1.0220  0.4806 -0.5377
 9952TIP3    H251348   4.024   3.172  16.728  0.3017  0.6858  0.0191
 9953TIP3   OH251349   2.692   0.742   5.592  0.3080  0.4726 -0.1941
 9953TIP3    H151350   2.654   0.774   5.510 -0.0892  1.2870  0.3054
 9953TIP3    H251351   2.773   0.699   5.566  0.4218  1.1516 -0.9644
 9954TIP3   OH251352   3.811   2.877  14.383  0.1702  0.1023  0.3594
 9954TIP3    H151353   3.758   2.843  14.312 -0.7065  0.1691  0.9754
 9954TIP3    H251354   3.898   2.839  14.369  0.3093  1.0184 -1.3952
 9955TIP3   OH251355   3.328   4.827   2.941  0.0023  0.1931 -0.9188
 9955TIP3    H151356   3.383   4.887   2.890  0.0539 -0.4015 -1.5665
 9955TIP3    H251357   3.349   4.740   2.908  0.1243 -0.2208  0.2066
 9956TIP3   OH251358   2.308   5.871  14.763  0.3302 -0.3088 -0.3071
 9956TIP3    H151359   2.300   5.897  14.671  1.5787 -1.8247 -0.8736
 9956TIP3    H251360   2.395   5.832  14.769  0.6451  0.6707  1.7712
 9957TIP3   OH251361   1.199   5.748   3.949  0.1014 -0.2032 -0.2344
 9957TIP3    H151362   1.121   5.731   3.897 -2.0179 -1.4950  3.2331
 9957TIP3    H251363   1.175   5.822   4.006  2.1767  0.8459 -0.6791
 9958TIP3   OH251364   4.787   6.620   5.056  0.6140 -0.3557 -0.0775
 9958TIP3    H151365   4.818   6.701   5.017  0.7866  0.6572  2.1060
 9958TIP3    H251366   4.832   6.615   5.141 -0.8789 -1.7273  0.6692
 9959TIP3   OH251367   4.468   0.824   1.605 -0.4936 -0.0259  0.3310
 9959TIP3    H151368   4.408   0.788   1.540 -0.6819  1.0738 -0.1154
 9959TIP3    H251369   4.484   0.751   1.665  0.4688 -1.3552 -1.4914
 9960TIP3   OH251370   4.838   3.932  14.141  0.6033 -0.2875 -0.2944
 9960TIP3    H151371   4.876   3.934  14.053 -0.6754  1.2407 -0.8437
 9960TIP3    H251372   4.876   4.008  14.185  1.7213 -1.4076  0.6982
 9961TIP3   OH251373   3.934   4.322   2.297  0.5557 -0.1265  0.0159
 9961TIP3    H151374   3.912   4.410   2.270 -2.2506 -0.2050  1.8939
 9961TIP3    H251375   3.889   4.265   2.234  0.6601 -0.2455  0.0482
 9962TIP3   OH251376   4.349   2.539  14.843 -0.1673 -0.1060 -0.2758
 9962TIP3    H151377   4.292   2.492  14.781  0.8168  0.3656 -1.5552
 9962TIP3    H251378   4.435   2.498  14.832  0.6954  1.9196 -1.3583
 9963TIP3   OH251379   1.665   4.720   6.379 -0.1927  0.5035 -0.6734
 9963TIP3    H151380   1.673   4.717   6.474  0.3281  2.8152 -0.6108
 9963TIP3    H251381   1.709   4.641   6.348 -0.5737 -0.3896  0.9996
 9964TIP3   OH251382   5.061   4.448   6.663  0.5446  0.1203  0.1980
 9964TIP3    H151383   4.995   4.380   6.669 -0.8638  1.2434 -1.8633
 9964TIP3    H251384   5.027   4.520   6.717  0.8230  0.1286  0.3653
 9965TIP3   OH251385   5.406   1.705   4.055  0.4429  0.5458 -0.9023
 9965TIP3    H151386   5.338   1.660   4.005 -0.5923  1.8553 -0.7207
 9965TIP3    H251387   5.485   1.655   4.039 -0.8944 -2.0481  0.2744
 9966TIP3   OH251388   1.109   4.939  15.474 -0.5487  0.1142  0.7053
 9966TIP3    H151389   1.047   4.986  15.417  2.4497  3.2539 -0.1379
 9966TIP3    H251390   1.133   4.861  15.424  0.8380  2.0297 -1.7055
 9967TIP3   OH251391   1.233   1.005  13.228 -0.7754  0.2181 -0.3021
 9967TIP3    H151392   1.215   1.016  13.135 -0.3652 -0.5474 -0.4775
 9967TIP3    H251393   1.321   1.041  13.240  0.0064 -1.5412 -0.6133
 9968TIP3   OH251394   0.067   1.182   0.150 -0.2033  0.0864  0.3936
 9968TIP3    H151395   0.053   1.231   0.069  0.5668 -1.0438 -0.4427
 9968TIP3    H251396   0.142   1.224   0.192 -1.4046  1.4825  1.1786
 9969TIP3   OH251397   2.894   3.668   5.465 -0.5531 -0.1519 -0.0048
 9969TIP3    H151398   2.947   3.721   5.405  0.0103 -0.8065 -0.0904
 9969TIP3    H251399   2.949   3.592   5.485 -1.8981 -1.4287 -0.9953
 9970TIP3   OH251400   6.237   6.339  15.390 -0.2621 -0.4732  0.0494
 9970TIP3    H151401   6.297   6.285  15.339 -2.2450 -1.6780 -1.1029
 9970TIP3    H251402   6.170   6.366  15.327  0.5728  3.1866  0.6532
 9971TIP3   OH251403   4.352   5.610  12.020  0.0961  0.3055  0.5877
 9971TIP3    H151404   4.269   5.563  12.011 -0.3577  1.2473 -0.1577
 9971TIP3    H251405   4.329   5.702  12.009  1.7337  0.3563 -3.3462
 9972TIP3   OH251406   1.484   1.787   3.010  0.2891 -0.0853 -0.1901
 9972TIP3    H151407   1.541   1.819   3.080 -0.4305 -0.2241  0.4657
 9972TIP3    H251408   1.411   1.850   3.007  0.4326  0.0527 -0.9761
 9973TIP3   OH251409   3.920   1.974   3.818 -0.5365  0.1669  0.2550
 9973TIP3    H151410   3.955   1.944   3.734 -0.6494  0.2258  0.1871
 9973TIP3    H251411   3.996   1.978   3.876 -0.5222 -0.2900  0.2736
 9974TIP3   OH251412   1.319   5.089  14.800  0.1056  0.1315  0.7148
 9974TIP3    H151413   1.326   5.010  14.853  1.5237  0.3043  0.7992
 9974TIP3    H251414   1.407   5.103  14.765 -1.2178 -1.1213 -3.3544
 9975TIP3   OH251415   2.723   3.181   0.577 -0.6304  0.0856 -0.6867
 9975TIP3    H151416   2.687   3.144   0.658  0.2068 -0.3896 -0.5189
 9975TIP3    H251417   2.691   3.124   0.508 -1.6622  0.7176 -0.7305
 9976TIP3   OH251418   6.163   3.907   3.624 -0.0080  0.5002  0.1931
 9976TIP3    H151419   6.147   3.867   3.538 -0.4851 -0.7857  0.8637
 9976TIP3    H251420   6.254   3.937   3.620 -0.0068  0.3891 -0.7418
 9977TIP3   OH251421   2.593   0.993   2.478 -0.1778  0.4049 -0.1884
 9977TIP3    H151422   2.610   0.988   2.573 -0.0027 -0.6695 -0.2709
 9977TIP3    H251423   2.535   0.920   2.460  1.6861 -0.8559 -1.3077
 9978TIP3   OH251424   1.730   5.929  11.831  0.1387 -0.0228 -0.6183
 9978TIP3    H151425   1.802   5.900  11.774  0.0797 -1.9936  0.2736
 9978TIP3    H251426   1.748   6.022  11.847  2.9872 -0.6851  0.2844
 9979TIP3   OH251427   0.190   0.516   3.142 -0.0008  0.4961 -0.2270
 9979TIP3    H151428   0.268   0.506   3.088  1.3795 -1.1427  1.9575
 9979TIP3    H251429   0.159   0.427   3.156 -0.5332  0.9152  1.3580
 9980TIP3   OH251430   4.470   4.868   0.337  0.1925  0.0110 -0.3507
 9980TIP3    H151431   4.433   4.944   0.381  1.6724 -0.8168  2.4271
 9980TIP3    H251432   4.459   4.887   0.243 -3.2039  1.7236  0.3126
 9981TIP3   OH251433   5.746   5.454  14.439  0.0871 -0.0651 -0.1771
 9981TIP3    H151434   5.831   5.441  14.480  0.0564  0.5904  0.0926
 9981TIP3    H251435   5.683   5.422  14.503  0.0406  0.9330  0.2718
 9982TIP3   OH251436   4.856   4.127   4.377  0.3660 -0.5979  0.6474
 9982TIP3    H151437   4.791   4.057   4.382 -0.3876 -0.0914 -1.7593
 9982TIP3    H251438   4.811   4.204   4.411 -0.8883  0.1368 -2.5435
 9983TIP3   OH251439   2.671   0.707   4.911  0.2539 -0.0129 -0.1951
 9983TIP3    H151440   2.635   0.774   4.853  1.7006 -0.0289 -1.1356
 9983TIP3    H251441   2.765   0.707   4.892  0.3996 -1.6854  0.4449
 9984TIP3   OH251442   5.511   5.679  16.865 -0.4496  0.1074 -0.4278
 9984TIP3    H151443   5.508   5.620  16.940  0.2984  0.4912 -0.0904
 9984TIP3    H251444   5.421   5.707  16.852 -0.4294  0.8443  0.9758
 9985TIP3   OH251445   2.938   2.458  11.364  0.1451  0.3145  0.1042
 9985TIP3    H151446   2.972   2.439  11.276 -0.2233 -0.4461  0.1149
 9985TIP3    H251447   2.844   2.437  11.358  0.2844 -0.6021  0.9095
 9986TIP3   OH251448   4.622   4.316  13.328 -0.2247 -0.7941  0.0974
 9986TIP3    H151449   4.665   4.233  13.347 -0.4194 -1.1849 -1.0892
 9986TIP3    H251450   4.604   4.355  13.413  0.1238 -1.8430  0.6513
 9987TIP3   OH251451   0.287   1.889  11.426 -0.4216  0.4280  0.1815
 9987TIP3    H151452   0.239   1.838  11.361 -1.6669  1.1242  0.5270
 9987TIP3    H251453   0.252   1.858  11.510  0.0549  0.6412  0.4599
 9988TIP3   OH251454   3.684   0.557   4.881 -0.2413 -0.0050 -0.0687
 9988TIP3    H151455   3.589   0.548   4.882 -0.3835  1.3583 -0.5278
 9988TIP3    H251456   3.700   0.644   4.918  0.9025 -0.7880  1.3590
 9989TIP3   OH251457   6.550   3.726  13.913  0.1768  0.3702 -0.0524
 9989TIP3    H151458   6.589   3.735  13.826  2.1389  1.1865  0.8817
 9989TIP3    H251459   6.539   3.632  13.926 -0.5528  0.2704 -1.3622
 9990TIP3   OH251460   6.532   1.257   1.701 -0.1312  0.3016 -0.0957
 9990TIP3    H151461   6.467   1.195   1.735 -2.3604  1.4538 -2.0996
 9990TIP3    H251462   6.520   1.336   1.753 -1.3172  0.9763 -1.3632
 9991TIP3   OH251463   6.189   2.803   0.708 -0.0279  0.5802 -0.2266
 9991TIP3    H151464   6.117   2.849   0.665 -0.4080  0.9792  0.8096
 9991TIP3    H251465   6.148   2.758   0.782  0.6549  0.1285 -0.1218
 9992TIP3   OH251466   6.458   3.802   1.186  0.3398  0.0183  0.7752
 9992TIP3    H151467   6.482   3.761   1.103  0.9260  0.4443  0.7342
 9992TIP3    H251468   6.383   3.857   1.165 -0.8927 -1.5603  0.9646
 9993TIP3   OH251469   1.774   5.443   0.044  0.6329 -0.5083  0.4199
 9993TIP3    H151470   1.870   5.437   0.049  0.5880 -0.5030  1.5288
 9993TIP3    H251471   1.757   5.490  -0.037  1.5092 -2.3652 -0.8858
 9994TIP3   OH251472   6.452   2.560  17.038 -0.0648 -0.1593  0.2049
 9994TIP3    H151473   6.440   2.519  16.952 -0.1390  0.1392  0.0709
 9994TIP3    H251474   6.395   2.511  17.097 -0.3849 -0.0541 -0.0178
 9995TIP3   OH251475   1.231   5.802   0.279  0.0669 -0.0290 -0.0696
 9995TIP3    H151476   1.230   5.845   0.365 -1.1131  0.6492 -0.4152
 9995TIP3    H251477   1.278   5.720   0.294 -0.0400  0.1310  1.2082
 9996TIP3   OH251478   3.220   3.113   1.119  0.2534 -0.5365  0.0246
 9996TIP3    H151479   3.174   3.156   1.048 -1.1247  0.3557  1.4133
 9996TIP3    H251480   3.309   3.147   1.115  0.1477 -0.4089 -1.1888
 9997TIP3   OH251481   3.237   5.941  16.569  0.2942 -0.1754 -0.6685
 9997TIP3    H151482   3.277   6.026  16.590 -0.0379 -0.0903 -0.3607
 9997TIP3    H251483   3.144   5.954  16.589 -0.2840  0.3285 -3.4608
 9998TIP3   OH251484   2.811   3.627   3.111 -0.2793 -0.3851  0.4445
 9998TIP3    H151485   2.889   3.624   3.166  0.5608 -1.1207 -0.7822
 9998TIP3    H251486   2.803   3.718   3.084  0.8296 -0.5326 -0.3894
 9999TIP3   OH251487   5.038   6.555  10.702  0.1400 -0.1155 -0.2331
 9999TIP3    H151488   4.977   6.627  10.716  0.0359 -0.2324 -0.0817
 9999TIP3    H251489   4.989   6.476  10.726  0.5052 -0.1627  0.3731
10000TIP3   OH251490   6.483   2.423   2.902  0.2496  0.4763 -0.4088
10000TIP3    H151491   6.516   2.423   2.992  0.8211 -1.4968 -0.6069
10000TIP3    H251492   6.478   2.331   2.878 -1.0189  0.9360 -2.0038
10001TIP3   OH251493   1.014   0.864  14.721  0.2974  0.5204 -0.7866
10001TIP3    H151494   0.995   0.929  14.788 -0.2305 -0.0229 -0.4025
10001TIP3    H251495   1.069   0.910  14.657 -0.7799  1.5770 -0.9599
10002TIP3   OH251496   4.771   0.760  10.698 -0.4539 -0.3186 -0.1421
10002TIP3    H151497   4.829   0.698  10.653  0.1346  0.7308 -0.8455
10002TIP3    H251498   4.790   0.747  10.791 -1.9511 -2.7708 -0.1177
10003TIP3   OH251499   1.621   1.124   3.064  0.0101 -0.0808 -0.3615
10003TIP3    H151500   1.609   1.187   2.992  1.2072 -0.4018 -0.8613
10003TIP3    H251501   1.533   1.107   3.096 -0.4661  0.6867 -1.2330
10004TIP3   OH251502   0.813   0.543  16.728  0.3921  0.2771  0.3054
10004TIP3    H151503   0.783   0.458  16.695 -0.0805  0.5247  0.0857
10004TIP3    H251504   0.733   0.584  16.762  0.8270  0.1302  1.5250
10005TIP3   OH251505   5.720   0.679  14.154 -0.2184 -0.4155 -0.6177
10005TIP3    H151506   5.642   0.695  14.208 -0.1701  1.2560 -1.0294
10005TIP3    H251507   5.691   0.613  14.091 -0.8939 -0.8283  0.1098
10006TIP3   OH251508   3.293   4.854  14.574  0.1288 -0.0094  0.7995
10006TIP3    H151509   3.336   4.805  14.644 -0.0866 -2.7931 -0.9804
10006TIP3    H251510   3.217   4.894  14.617  0.3026 -1.2284  2.2902
10007TIP3   OH251511   5.437   2.737  13.068 -0.3242 -0.0790  0.1954
10007TIP3    H151512   5.522   2.764  13.103 -0.9228 -0.1299  1.7441
10007TIP3    H251513   5.453   2.650  13.030  0.2371 -0.2723  0.8629
10008TIP3   OH251514   3.797   4.527  14.926  0.2046  0.0989  0.1404
10008TIP3    H151515   3.798   4.566  14.838 -0.7937  0.7650  0.4190
10008TIP3    H251516   3.876   4.562  14.968  0.3064  0.3390 -0.2498
10009TIP3   OH251517   1.027   5.366   0.795 -0.0563 -0.3786 -0.5326
10009TIP3    H151518   1.119   5.340   0.800 -0.5232 -1.9229  0.4360
10009TIP3    H251519   1.010   5.411   0.877  0.2825  1.4583 -1.4580
10010TIP3   OH251520   4.020   0.774   6.491 -0.2319 -0.7132  1.0804
10010TIP3    H151521   3.959   0.832   6.536  0.1526  0.0602  0.6174
10010TIP3    H251522   4.085   0.833   6.453 -0.3438 -1.3907 -0.1690
10011TIP3   OH251523   4.322   5.711  10.982  0.2868 -0.3672  0.8398
10011TIP3    H151524   4.236   5.672  10.968  0.1346 -0.9451  3.1690
10011TIP3    H251525   4.351   5.675  11.066  2.2167  0.8554  0.7219
10012TIP3   OH251526   6.731   6.241  11.591 -0.2641  0.3034  0.0697
10012TIP3    H151527   6.679   6.296  11.533 -2.1210 -0.5782  0.8780
10012TIP3    H251528   6.726   6.284  11.676  1.3460  0.8689 -0.1065
10013TIP3   OH251529   3.463   5.209   0.656  0.3260  0.0659  0.2864
10013TIP3    H151530   3.388   5.270   0.659  0.9096  0.9812 -2.5073
10013TIP3    H251531   3.514   5.230   0.734 -1.4780  0.5328  1.3725
10014TIP3   OH251532   5.946   2.495   0.054 -0.5041 -0.2092 -0.0486
10014TIP3    H151533   5.874   2.512   0.114 -1.2392 -1.1236 -0.6639
10014TIP3    H251534   5.906   2.498  -0.033  0.4806  0.7476 -0.4917
10015TIP3   OH251535   6.217   4.942   3.798 -0.1570  0.0243 -0.2759
10015TIP3    H151536   6.121   4.945   3.788 -0.3014 -1.0725  0.6715
10015TIP3    H251537   6.231   4.886   3.874  1.2161  1.0598  0.2465
10016TIP3   OH251538   2.918   4.837  12.374 -0.2809  0.8139 -0.5354
10016TIP3    H151539   2.929   4.928  12.345 -1.3048  1.5733  1.4027
10016TIP3    H251540   2.987   4.824  12.439 -0.3166  0.2843 -0.5989
10017TIP3   OH251541   0.722   5.570  12.189 -0.2285  0.1163  0.5312
10017TIP3    H151542   0.723   5.618  12.272  0.1545 -1.9202  1.7381
10017TIP3    H251543   0.812   5.574  12.158 -0.3749  0.8933  0.1842
10018TIP3   OH251544   2.101   2.213   6.223 -0.2871  0.3033 -0.2585
10018TIP3    H151545   2.034   2.281   6.225 -1.0424 -0.3940 -1.0971
10018TIP3    H251546   2.060   2.137   6.263  0.8408  0.5732  1.4474
10019TIP3   OH251547   1.566   1.330   4.364  0.4087 -0.4698  0.2064
10019TIP3    H151548   1.488   1.385   4.358  2.5567  2.4207 -2.7630
10019TIP3    H251549   1.596   1.340   4.455 -0.8383  1.0260  0.4657
10020TIP3   OH251550   1.518   4.566   2.743  0.6792  0.4337  0.5745
10020TIP3    H151551   1.449   4.540   2.805 -1.0678 -1.5716 -2.0781
10020TIP3    H251552   1.598   4.567   2.795 -0.7206 -1.2375  2.8742
10021TIP3   OH251553   4.900   1.409   1.824  0.4035 -0.3763  0.2702
10021TIP3    H151554   4.923   1.502   1.823  1.8789 -0.7268  0.3294
10021TIP3    H251555   4.972   1.367   1.871 -0.8627 -1.3959  1.3233
10022TIP3   OH251556   6.794   3.341  15.634  0.5239 -0.2248 -0.8388
10022TIP3    H151557   6.761   3.260  15.673 -0.1084  0.8600  0.9410
10022TIP3    H251558   6.874   3.315  15.588  0.0519 -1.9354 -0.7246
10023TIP3   OH251559   2.122   6.198   0.419 -0.2756 -0.1640  0.2231
10023TIP3    H151560   2.140   6.178   0.327 -1.2366 -1.7132  0.3399
10023TIP3    H251561   2.162   6.126   0.467  1.6600  1.4973  1.1630
10024TIP3   OH251562   5.153   2.430  13.135  0.1960  0.7892  0.0203
10024TIP3    H151563   5.235   2.395  13.100 -1.0469  0.2047 -2.4513
10024TIP3    H251564   5.145   2.516  13.095  1.0257  2.0914  2.5731
10025TIP3   OH251565   1.891   6.670   5.990  0.3807 -0.3072 -0.1456
10025TIP3    H151566   1.944   6.635   5.919 -0.7540 -2.0898 -0.1429
10025TIP3    H251567   1.827   6.602   6.009  0.5921  0.1592  2.5432
10026TIP3   OH251568   1.774   5.851   1.699 -0.0032 -0.0262 -0.3437
10026TIP3    H151569   1.785   5.847   1.604 -1.6200 -0.6359 -0.5087
10026TIP3    H251570   1.709   5.919   1.714  0.0862 -0.0781  0.3143
10027TIP3   OH251571   5.404   6.808  13.211  0.0356  0.9876  0.4318
10027TIP3    H151572   5.392   6.726  13.258  0.1394  1.2202  0.8665
10027TIP3    H251573   5.371   6.875  13.271 -1.3622  1.1399 -0.4849
10028TIP3   OH251574   3.914   3.599  10.733 -0.5187 -0.7182 -0.4370
10028TIP3    H151575   3.822   3.623  10.720  0.1197  1.4740 -1.0755
10028TIP3    H251576   3.911   3.511  10.771 -2.8733 -0.6801 -0.4891
10029TIP3   OH251577   0.664   6.073   5.058 -0.4395  0.1914 -0.0693
10029TIP3    H151578   0.644   6.145   5.118  0.2502  0.8494 -0.6084
10029TIP3    H251579   0.638   6.105   4.972  2.6237  1.0091 -0.7616
10030TIP3   OH251580   1.367   4.401   1.664 -0.1855 -0.7505 -0.4248
10030TIP3    H151581   1.431   4.345   1.619  0.1975 -0.4302 -0.2764
10030TIP3    H251582   1.402   4.412   1.752 -0.2327 -0.2299 -0.4680
10031TIP3   OH251583   4.926   4.271   1.363  0.1263  0.1175 -0.1750
10031TIP3    H151584   4.939   4.362   1.335  1.4034  1.0511  3.2356
10031TIP3    H251585   4.865   4.278   1.437  1.9147 -1.5588  1.4920
10032TIP3   OH251586   6.770   6.632  16.575  0.2610  0.1273  0.1597
10032TIP3    H151587   6.822   6.654  16.498 -1.7230 -0.1878 -1.2952
10032TIP3    H251588   6.693   6.587  16.541 -0.1660 -0.9189  2.4055
10033TIP3   OH251589   4.448   0.775   4.435 -0.1320  0.4780  0.2952
10033TIP3    H151590   4.467   0.816   4.351 -0.5546 -0.3715 -0.2244
10033TIP3    H251591   4.399   0.841   4.484 -0.8487  0.5746 -0.5439
10034TIP3   OH251592   1.742   4.587  14.034  0.0115 -0.0393 -0.1320
10034TIP3    H151593   1.652   4.559  14.049 -0.4346  1.8099  0.7982
10034TIP3    H251594   1.735   4.680  14.012  1.7019  0.1760  0.1523
10035TIP3   OH251595   6.553   4.363   0.857 -0.1047  0.2880 -0.1826
10035TIP3    H151596   6.557   4.427   0.786  0.7783  0.3137 -0.1064
10035TIP3    H251597   6.564   4.415   0.936 -1.1210  0.2634 -0.0124
10036TIP3   OH251598   1.007   5.063   0.714  0.0232 -0.0291 -0.3444
10036TIP3    H151599   1.093   5.038   0.747 -0.6645 -0.2213  1.3298
10036TIP3    H251600   0.966   5.110   0.786 -2.1889 -2.0394 -0.2269
10037TIP3   OH251601   0.531   1.811   3.589 -0.2544  0.1342  0.4254
10037TIP3    H151602   0.467   1.834   3.656 -1.3953 -2.8446  0.4134
10037TIP3    H251603   0.487   1.828   3.506 -0.2423  0.0985  0.4118
10038TIP3   OH251604   6.485   1.709  16.507  0.0991  0.2108 -0.0391
10038TIP3    H151605   6.425   1.690  16.436 -0.5184 -0.4647  0.6596
10038TIP3    H251606   6.429   1.729  16.582  0.7334 -0.5612  0.6530
10039TIP3   OH251607   4.572   3.484   5.785 -0.4938 -0.2752 -0.2741
10039TIP3    H151608   4.584   3.513   5.875 -1.7212 -0.0600 -0.1756
10039TIP3    H251609   4.532   3.397   5.792  1.3360 -1.1627 -0.5965
10040TIP3   OH251610   3.280   3.874  16.079  0.1377  1.1125  0.5574
10040TIP3    H151611   3.313   3.963  16.091 -0.1364  1.5596 -1.7683
10040TIP3    H251612   3.222   3.879  16.003 -0.8023 -0.8273  1.1026
10041TIP3   OH251613   0.823   5.431   2.866 -0.0392  0.1604  0.1904
10041TIP3    H151614   0.832   5.523   2.888  0.2657 -0.1334  1.3319
10041TIP3    H251615   0.765   5.395   2.934  1.4806 -0.9050  0.9649
10042TIP3   OH251616   4.243   2.492  16.986  0.0664 -0.3555  0.1012
10042TIP3    H151617   4.217   2.580  16.958  0.2924  0.0043  0.9895
10042TIP3    H251618   4.192   2.433  16.930 -0.0524  0.3378 -0.5304
10043TIP3   OH251619   1.406   1.894  15.989 -0.4668  0.2964  0.3415
10043TIP3    H151620   1.354   1.864  15.914 -1.6215 -1.6678  1.8928
10043TIP3    H251621   1.497   1.876  15.964 -0.9184 -1.4575 -0.1173
10044TIP3   OH251622   1.773   2.763  15.058 -0.1198 -0.2612 -0.2075
10044TIP3    H151623   1.857   2.754  15.012  0.7494 -2.0605  1.6652
10044TIP3    H251624   1.767   2.856  15.080  1.3958 -0.1353 -0.2945
10045TIP3   OH251625   6.418   4.496   3.986  0.1069  0.0647  0.2028
10045TIP3    H151626   6.497   4.446   3.966  0.1919  0.2159  0.1590
10045TIP3    H251627   6.424   4.574   3.930  0.2955  0.4361  0.7285
10046TIP3   OH251628   1.922   1.918   4.091 -0.3618 -0.3595  0.7500
10046TIP3    H151629   1.860   1.908   4.163 -0.0041 -0.2383  1.0742
10046TIP3    H251630   1.967   2.000   4.110  0.0974 -0.5931  0.6596
10047TIP3   OH251631   3.500   4.316   5.574 -0.2509 -0.3159  0.0859
10047TIP3    H151632   3.469   4.250   5.636 -0.3228 -1.0554 -0.7214
10047TIP3    H251633   3.494   4.273   5.488 -1.9167  1.3475 -0.6433
10048TIP3   OH251634   5.501   4.838  13.310 -0.0303  0.7345 -0.0196
10048TIP3    H151635   5.424   4.883  13.344 -0.0713  1.1921 -0.7063
10048TIP3    H251636   5.538   4.793  13.386 -0.5855  1.0709  0.4531
10049TIP3   OH251637   2.514   6.469  13.357  0.4074  0.3772 -0.0759
10049TIP3    H151638   2.494   6.407  13.287 -3.1126  0.6919  0.5323
10049TIP3    H251639   2.516   6.555  13.314  2.0165  0.1860 -0.3892
10050TIP3   OH251640   5.927   3.782  12.205 -0.1581 -0.0086 -0.4001
10050TIP3    H151641   5.999   3.811  12.260  0.5840  0.2640 -1.4994
10050TIP3    H251642   5.867   3.737  12.265  1.9638 -2.1692  0.1812
10051TIP3   OH251643   5.098   5.285   3.069  0.2823 -0.6487 -0.1483
10051TIP3    H151644   5.002   5.293   3.076  0.5628  0.4487  2.9510
10051TIP3    H251645   5.119   5.204   3.114  1.1085  0.9290  2.4071
10052TIP3   OH251646   5.690   2.967  15.576  0.0263 -0.2172  0.3373
10052TIP3    H151647   5.773   3.004  15.547  0.0670 -0.7272 -0.2172
10052TIP3    H251648   5.656   2.923  15.498  0.0520 -1.4640  1.0305
10053TIP3   OH251649   5.076   1.325  16.236  0.3218  0.8470  0.1279
10053TIP3    H151650   5.134   1.360  16.303  1.6970 -1.6288  0.3141
10053TIP3    H251651   5.006   1.280  16.284  1.7587 -1.6535  0.0056
10054TIP3   OH251652   2.203   1.746   3.831 -0.6716 -0.2764 -0.5196
10054TIP3    H151653   2.273   1.810   3.838 -1.3887  0.4687 -0.1388
10054TIP3    H251654   2.150   1.775   3.756 -0.1794 -1.2268 -1.2481
10055TIP3   OH251655   2.569   2.772  14.438 -0.6178 -0.4530  0.0816
10055TIP3    H151656   2.579   2.748  14.530  0.2095  0.9057  0.3474
10055TIP3    H251657   2.498   2.836  14.438  0.7716  1.1057  0.0398
10056TIP3   OH251658   2.083   4.864   1.991  0.2370 -0.3322 -0.8886
10056TIP3    H151659   2.130   4.811   1.926 -0.0667 -1.5495 -0.1375
10056TIP3    H251660   1.994   4.829   1.989 -0.4085  1.3189 -1.6154
10057TIP3   OH251661   4.590   6.211   2.511 -0.2290 -0.7023 -0.2877
10057TIP3    H151662   4.610   6.123   2.541 -2.1264 -1.5311 -1.3939
10057TIP3    H251663   4.515   6.239   2.563  0.1487  0.1369 -0.1792
10058TIP3   OH251664   0.272   2.180  15.081  0.0592  0.6796 -0.2653
10058TIP3    H151665   0.193   2.230  15.065 -0.0050  1.1613  1.5055
10058TIP3    H251666   0.244   2.088  15.074 -0.2370  0.8535 -1.5079
10059TIP3   OH251667   6.573   5.363   4.129  0.2155 -0.5770 -0.0581
10059TIP3    H151668   6.485   5.334   4.153 -0.1787 -0.5800 -1.4971
10059TIP3    H251669   6.582   5.339   4.037  1.8686 -0.9310  0.1801
10060TIP3   OH251670   3.779   0.323  12.291  0.2393 -0.0842 -0.3939
10060TIP3    H151671   3.768   0.323  12.195 -0.0114  0.0103 -0.3668
10060TIP3    H251672   3.732   0.401  12.320  1.5488  0.7088 -0.3323
10061TIP3   OH251673   2.177   5.336   1.271 -0.0886 -0.1803  0.0539
10061TIP3    H151674   2.240   5.293   1.329 -0.5210 -2.1735 -0.9363
10061TIP3    H251675   2.222   5.342   1.187 -1.1175 -1.4050 -0.6004
10062TIP3   OH251676   1.715   3.794   0.180 -0.2411 -0.2829 -0.3177
10062TIP3    H151677   1.740   3.861   0.117  1.4198 -0.3230  0.2638
10062TIP3    H251678   1.650   3.740   0.134 -1.5429  1.6599 -0.8106
10063TIP3   OH251679   3.439   0.092   2.239 -0.3897 -0.4202  0.4210
10063TIP3    H151680   3.480   0.006   2.249  0.5980 -0.0967 -0.7169
10063TIP3    H251681   3.369   0.093   2.305  1.8181 -0.7367  2.8324
10064TIP3   OH251682   0.140   5.826   4.794 -0.3656  0.1344  0.2387
10064TIP3    H151683   0.167   5.904   4.842 -1.2638  0.7609 -0.2591
10064TIP3    H251684   0.129   5.856   4.704 -1.0452 -0.4948  0.1109
10065TIP3   OH251685   6.763   6.267   1.764  0.2252  0.3133  0.0149
10065TIP3    H151686   6.852   6.289   1.792  0.6884 -0.9294 -0.4414
10065TIP3    H251687   6.707   6.303   1.832  0.9757  2.3841 -0.4222
10066TIP3   OH251688   6.263   1.918   2.185 -0.0224 -0.0450 -0.5968
10066TIP3    H151689   6.178   1.895   2.222 -0.0201 -0.2130 -0.6951
10066TIP3    H251690   6.243   1.947   2.096  0.0291 -0.1447 -0.6411
10067TIP3   OH251691   6.435   0.062  16.261  0.2181  0.1107  0.5095
10067TIP3    H151692   6.525   0.030  16.264  0.5907  0.9572 -1.3241
10067TIP3    H251693   6.426   0.103  16.175 -2.1352 -0.5524  0.3968
10068TIP3   OH251694   1.204   4.882   4.851 -0.1420  0.1994 -0.3113
10068TIP3    H151695   1.216   4.796   4.892 -0.0346  0.5034  0.3049
10068TIP3    H251696   1.155   4.864   4.771 -0.5844 -0.3792  0.0813
10069TIP3   OH251697   4.962   3.960   1.572 -0.1121 -0.1792  0.0186
10069TIP3    H151698   4.979   3.906   1.495  1.7287 -1.7998  1.5047
10069TIP3    H251699   4.935   3.898   1.640  1.3907  0.8051  1.5661
10070TIP3   OH251700   1.667   1.561  12.943 -0.3989  0.3385 -0.2342
10070TIP3    H151701   1.611   1.532  12.871  0.2227 -0.8618 -0.2553
10070TIP3    H251702   1.619   1.633  12.984 -1.3204  0.2153 -1.0867
10071TIP3   OH251703   6.316   5.679   3.131 -0.3045 -0.1087  0.2337
10071TIP3    H151704   6.294   5.625   3.055 -0.6971  0.8333 -0.3263
10071TIP3    H251705   6.401   5.717   3.110 -0.1419 -0.3124  0.5215
10072TIP3   OH251706   2.345   0.168   5.198  0.0418 -0.3061 -0.2375
10072TIP3    H151707   2.363   0.153   5.291  0.8858  0.4636 -0.2697
10072TIP3    H251708   2.286   0.244   5.198 -2.7451 -2.4075 -0.1651
10073TIP3   OH251709   6.537   4.368  12.242  0.0204  0.3734  0.1692
10073TIP3    H151710   6.476   4.298  12.221 -1.2997  1.5566 -0.0361
10073TIP3    H251711   6.590   4.378  12.163 -0.4695  0.2999 -0.1688
10074TIP3   OH251712   0.774   0.692  14.832  0.2982  0.3965 -0.7373
10074TIP3    H151713   0.830   0.734  14.766  0.3819 -0.1286 -1.0077
10074TIP3    H251714   0.694   0.743  14.831  0.1193  0.1139 -1.5922
10075TIP3   OH251715   1.907   2.416   6.083 -0.2013 -0.2608 -0.3383
10075TIP3    H151716   1.812   2.427   6.082 -0.2487 -0.6886 -0.3663
10075TIP3    H251717   1.935   2.441   5.995 -0.1218  1.3539  0.1198
10076TIP3   OH251718   6.514   4.050  14.105  0.2189 -0.5883 -0.1469
10076TIP3    H151719   6.492   4.077  14.016 -0.4083 -1.4733 -0.2695
10076TIP3    H251720   6.582   4.112  14.133 -0.3016  0.3260 -0.8665
10077TIP3   OH251721   3.805   3.334  12.611 -0.4027 -0.0794 -0.7172
10077TIP3    H151722   3.718   3.308  12.580  0.3435 -3.1318 -0.4010
10077TIP3    H251723   3.789   3.414  12.662 -3.2524 -1.4113  0.6144
10078TIP3   OH251724   4.053   1.138   3.025 -0.5308 -0.2980 -0.4458
10078TIP3    H151725   3.982   1.193   3.059  0.6417  1.1387 -0.2404
10078TIP3    H251726   4.010   1.071   2.973 -1.8951  2.0340 -2.4065
10079TIP3   OH251727   3.128   1.758  13.755 -0.1121 -0.6318  0.1978
10079TIP3    H151728   3.037   1.741  13.731 -0.6373  0.1576  1.5652
10079TIP3    H251729   3.127   1.847  13.790  0.6861 -1.5746  2.7017
10080TIP3   OH251730   4.538   6.377  14.281  0.0288  0.3419  0.2029
10080TIP3    H151731   4.536   6.408  14.372 -1.7110 -1.1839  0.7175
10080TIP3    H251732   4.499   6.449  14.231 -1.1198  0.2792  0.9840
10081TIP3   OH251733   0.480   6.516   0.968  0.7726 -0.0392 -0.4822
10081TIP3    H151734   0.446   6.427   0.982  2.0627 -0.4292  0.3720
10081TIP3    H251735   0.425   6.572   1.022  0.2469 -0.3888 -0.6546
10082TIP3   OH251736   1.004   5.706   5.762 -0.2283 -0.4669  0.3879
10082TIP3    H151737   0.975   5.773   5.824 -1.5041 -1.2081  0.6121
10082TIP3    H251738   0.923   5.670   5.727  0.4163 -2.4740  0.9070
10083TIP3   OH251739   5.830   5.889  12.755  0.0207  0.0801 -0.3446
10083TIP3    H151740   5.884   5.948  12.809  0.8984 -2.5382  1.7550
10083TIP3    H251741   5.892   5.849  12.694 -0.1726 -0.3093 -0.2854
10084TIP3   OH251742   4.414   5.433  14.214  0.6533 -0.0950 -0.3309
10084TIP3    H151743   4.337   5.435  14.270 -0.6746  0.7777 -2.1328
10084TIP3    H251744   4.462   5.356  14.242 -0.7771 -0.5461  0.9489
10085TIP3   OH251745   5.353   2.926  11.101 -0.2218 -0.1094 -0.2273
10085TIP3    H151746   5.339   3.018  11.125 -1.4566 -0.2629 -0.3574
10085TIP3    H251747   5.412   2.893  11.169  0.6063  0.8912 -0.4374
10086TIP3   OH251748   0.696   1.765   2.206 -0.1878 -0.1875  0.1144
10086TIP3    H151749   0.614   1.716   2.217 -1.5647  1.7668 -1.1506
10086TIP3    H251750   0.760   1.698   2.180 -1.8431 -1.4651 -0.8376
10087TIP3   OH251751   5.343   1.911  12.983  0.2884 -0.3683  0.0467
10087TIP3    H151752   5.402   1.894  13.056  0.7295  0.7615 -0.0352
10087TIP3    H251753   5.367   1.848  12.916  0.5184 -0.7772  0.5189
10088TIP3   OH251754   5.265   1.332  10.992 -0.4717  0.4499 -0.0736
10088TIP3    H151755   5.252   1.364  10.903  0.0331  0.0344 -0.2935
10088TIP3    H251756   5.348   1.372  11.020  0.4109 -1.0394 -0.5174
10089TIP3   OH251757   1.561   6.202   1.987 -0.1173 -0.6368 -0.2347
10089TIP3    H151758   1.561   6.127   1.928  0.1935  0.4367 -1.6190
10089TIP3    H251759   1.601   6.168   2.067  0.9408 -1.6913 -1.1782
10090TIP3   OH251760   2.281   1.998   5.437  0.0473  0.5135  0.4646
10090TIP3    H151761   2.199   1.970   5.396  0.4693 -0.2241  0.1067
10090TIP3    H251762   2.314   2.067   5.380  0.0259  0.3274  0.2268
10091TIP3   OH251763   5.799   6.673  11.564  0.4245 -0.2790  0.4448
10091TIP3    H151764   5.849   6.605  11.520 -0.1194 -0.8166  0.6458
10091TIP3    H251765   5.848   6.753  11.548  1.1684 -0.7476  0.3654
10092TIP3   OH251766   4.875   5.665   1.860 -0.2637  0.1793  0.1187
10092TIP3    H151767   4.916   5.750   1.876  0.9321 -0.9390  3.4438
10092TIP3    H251768   4.844   5.637   1.946  2.6930 -4.3867 -0.1237
10093TIP3   OH251769   3.527   0.902  16.425 -0.3884 -0.5449 -0.3304
10093TIP3    H151770   3.452   0.962  16.426 -0.0132 -0.0419  2.3989
10093TIP3    H251771   3.520   0.853  16.507  2.2070 -0.5285 -0.0542
10094TIP3   OH251772   5.749   2.038   3.310  0.3802 -0.3125 -0.4231
10094TIP3    H151773   5.787   2.040   3.222  1.6877 -0.3575  0.1168
10094TIP3    H251774   5.669   1.988   3.301  0.4508 -0.2253 -1.6107
10095TIP3   OH251775   5.675   6.636  11.960 -0.1093 -0.3210  0.1342
10095TIP3    H151776   5.691   6.584  12.039  1.2484 -0.1334 -0.0068
10095TIP3    H251777   5.652   6.723  11.993  1.4001  0.0249  0.3431
10096TIP3   OH251778   3.193   6.511  11.077 -0.2905  0.4641  0.3048
10096TIP3    H151779   3.201   6.563  10.997 -2.2371  0.4403  0.0555
10096TIP3    H251780   3.098   6.498  11.087  0.0750 -1.8456  1.1194
10097TIP3   OH251781   5.912   0.157   4.619  0.8326  0.5476 -0.0744
10097TIP3    H151782   5.962   0.101   4.678  0.8101 -0.0199 -0.5926
10097TIP3    H251783   5.924   0.246   4.653  1.1028  0.2582  0.5766
10098TIP3   OH251784   2.445   3.905  11.505 -0.0589 -0.2049 -0.0718
10098TIP3    H151785   2.388   3.947  11.569  1.4305  0.0821  1.1117
10098TIP3    H251786   2.453   3.969  11.433  0.9607  0.9270  1.0174
10099TIP3   OH251787   6.774   3.472  14.056 -0.0366 -0.0934 -0.2811
10099TIP3    H151788   6.707   3.479  13.988 -1.0989  0.3187  0.7838
10099TIP3    H251789   6.811   3.384  14.046  0.6380  0.3752 -2.1252
10100TIP3   OH251790   4.064   1.262  17.103 -0.6807  0.2240  0.0250
10100TIP3    H151791   4.040   1.171  17.122  0.6066 -0.7853 -2.8145
10100TIP3    H251792   4.038   1.311  17.181 -1.3491 -2.5898  1.6352
10101TIP3   OH251793   0.480   0.237  15.678 -0.2058  0.1613 -0.1956
10101TIP3    H151794   0.404   0.291  15.697 -0.5293 -1.0717  2.2335
10101TIP3    H251795   0.554   0.286  15.714 -0.2244  0.0721 -0.0312
10102TIP3   OH251796   0.408   4.540   4.750  0.1667  0.1950 -0.1869
10102TIP3    H151797   0.372   4.476   4.811  1.6944 -1.8986 -1.4444
10102TIP3    H251798   0.470   4.591   4.803 -0.0295 -0.2587  0.4865
10103TIP3   OH251799   1.341   3.930  12.883  0.4289 -0.4004 -0.4287
10103TIP3    H151800   1.424   3.918  12.838 -0.3665  0.4600 -2.1974
10103TIP3    H251801   1.332   3.853  12.940  2.6228 -0.2636  0.1341
10104TIP3   OH251802   6.321   6.374  10.154 -0.5514 -0.4348  0.1797
10104TIP3    H151803   6.249   6.414  10.105  0.3738 -0.2014 -1.0115
10104TIP3    H251804   6.334   6.289  10.113  0.0287 -0.3643  0.2146
10105TIP3   OH251805   1.279   4.081  15.044  0.9664  0.1233  0.2753
10105TIP3    H151806   1.228   4.088  15.125  0.1086  1.5159 -0.3701
10105TIP3    H251807   1.267   3.990  15.016 -1.1360  0.4021  0.1844
10106TIP3   OH251808   3.048   5.774  10.775 -0.2879 -0.6964  0.0125
10106TIP3    H151809   3.004   5.851  10.738  0.7439 -0.4224 -0.6591
10106TIP3    H251810   3.138   5.803  10.790 -0.0812 -1.5591  0.4510
10107TIP3   OH251811   1.858   4.125   3.772  0.4366  0.0222 -0.2006
10107TIP3    H151812   1.949   4.151   3.762  0.2165  0.1501 -1.9688
10107TIP3    H251813   1.852   4.040   3.729 -0.9587  1.4577 -2.9973
10108TIP3   OH251814   1.443   1.780  15.639 -0.5134 -0.2403  0.0049
10108TIP3    H151815   1.415   1.752  15.551 -0.9775 -0.0637  0.0973
10108TIP3    H251816   1.464   1.698  15.684 -1.0130 -0.3843 -0.0214
10109TIP3   OH251817   3.808   3.616  14.670  0.7647  0.0233 -0.2487
10109TIP3    H151818   3.805   3.707  14.701  0.0797  1.1666 -3.5308
10109TIP3    H251819   3.739   3.572  14.720  1.0867  1.2892  1.3516
10110TIP3   OH251820   0.411   3.178   3.869  0.0920 -0.3904  0.2116
10110TIP3    H151821   0.448   3.156   3.783 -1.0258  2.3236 -1.0141
10110TIP3    H251822   0.425   3.272   3.878  0.6056 -0.7261  3.2433
10111TIP3   OH251823   1.999   5.280  10.565 -0.2458  0.3904  0.6792
10111TIP3    H151824   2.053   5.293  10.488 -1.6330 -0.2531 -0.4169
10111TIP3    H251825   2.054   5.308  10.638  0.7101  1.9658 -0.6195
10112TIP3   OH251826   3.608   1.298  14.143  0.3785 -0.0661  0.2774
10112TIP3    H151827   3.611   1.208  14.175  0.2269 -1.0567 -2.3224
10112TIP3    H251828   3.689   1.309  14.094 -1.1295  0.0229 -2.2952
10113TIP3   OH251829   1.629   3.121   4.714 -0.0431  0.5489 -0.0492
10113TIP3    H151830   1.663   3.045   4.760 -0.2949  1.3494  1.5106
10113TIP3    H251831   1.546   3.092   4.677  1.5952 -0.9840 -2.6287
10114TIP3   OH251832   4.142   6.429  12.671 -0.2473  0.1039 -0.3510
10114TIP3    H151833   4.114   6.510  12.628 -0.1540  0.2230 -0.1883
10114TIP3    H251834   4.093   6.360  12.626 -1.8287  0.4262  0.8202
10115TIP3   OH251835   1.284   3.545   2.202 -0.5752 -0.0961  0.3303
10115TIP3    H151836   1.264   3.497   2.282  0.0563 -1.3556 -0.2635
10115TIP3    H251837   1.329   3.482   2.146 -0.1106  1.0642 -0.6264
10116TIP3   OH251838   0.490   1.955   2.225 -0.3022  0.0208  0.6848
10116TIP3    H151839   0.532   2.036   2.196 -1.4731  0.0474 -0.9965
10116TIP3    H251840   0.549   1.885   2.196 -0.3146  0.1689  0.3055
10117TIP3   OH251841   3.850   2.602   0.861 -0.7699 -0.6258 -0.5016
10117TIP3    H151842   3.921   2.620   0.799  0.4639 -3.2278  0.0595
10117TIP3    H251843   3.772   2.593   0.807 -0.3302  0.3615 -1.3227
10118TIP3   OH251844   0.987   4.281   0.029 -0.1448  0.5278  0.5459
10118TIP3    H151845   1.082   4.276   0.046 -0.2356  1.3349  1.3093
10118TIP3    H251846   0.969   4.374   0.022 -1.1483  0.4620  2.0044
10119TIP3   OH251847   0.551   1.425   1.652  0.8848 -0.2326 -0.6450
10119TIP3    H151848   0.631   1.462   1.616  0.6989  2.6447  1.7411
10119TIP3    H251849   0.484   1.441   1.586  2.0359 -1.9303 -2.2955
10120TIP3   OH251850   3.882   2.526  14.330 -1.2105  0.4237 -0.5516
10120TIP3    H151851   3.948   2.589  14.358 -0.1461 -0.3077 -1.3277
10120TIP3    H251852   3.815   2.579  14.288 -0.1289  1.0274 -1.5655
10121TIP3   OH251853   4.201   1.010   0.074  0.2997 -0.1966  0.2117
10121TIP3    H151854   4.270   1.061   0.031  0.5009 -0.0921  0.6461
10121TIP3    H251855   4.179   0.941   0.012  1.2956 -0.6523  0.3455
10122TIP3   OH251856   4.716   6.206  11.927  0.6756  0.7866  0.0447
10122TIP3    H151857   4.625   6.231  11.917  1.2522  2.2700 -1.8890
10122TIP3    H251858   4.761   6.287  11.952  1.7336  0.5362 -0.9737
10123TIP3   OH251859   2.277   4.230  15.380 -0.5987 -0.1893  0.0013
10123TIP3    H151860   2.366   4.214  15.413 -1.6070 -0.4951  2.7739
10123TIP3    H251861   2.269   4.325  15.375 -0.6699 -0.1068  1.4557
10124TIP3   OH251862   5.560   6.336  16.228  0.0447  0.5759  0.2217
10124TIP3    H151863   5.554   6.416  16.176 -0.3311  1.0992  1.0587
10124TIP3    H251864   5.654   6.325  16.244  0.0534  1.1544  0.5731
10125TIP3   OH251865   3.346   3.564   0.769 -0.1531  1.0689 -0.5190
10125TIP3    H151866   3.377   3.654   0.756 -0.9529  1.2381 -1.3572
10125TIP3    H251867   3.397   3.512   0.706  1.2927  0.7090  0.9251
10126TIP3   OH251868   6.515   2.343   5.332 -0.0750  0.3737 -0.0205
10126TIP3    H151869   6.550   2.431   5.321  1.5884 -0.1044  1.1168
10126TIP3    H251870   6.423   2.350   5.307  0.4987  1.9840 -1.8191
10127TIP3   OH251871   4.393   4.668  13.514  0.1226  0.7192 -0.9714
10127TIP3    H151872   4.373   4.668  13.608 -0.7591 -0.5167 -1.1499
10127TIP3    H251873   4.440   4.751  13.499 -0.7330  1.4456  0.3386
10128TIP3   OH251874   1.741   2.760  11.277  0.3005 -0.2892  0.1717
10128TIP3    H151875   1.800   2.744  11.204 -0.5224 -0.2565 -0.5176
10128TIP3    H251876   1.702   2.846  11.259  0.3677 -0.1150  0.8360
10129TIP3   OH251877   1.683   2.736  12.242 -0.3770 -0.8106 -0.1902
10129TIP3    H151878   1.702   2.757  12.334 -1.1666 -0.6329 -0.0607
10129TIP3    H251879   1.711   2.814  12.194  0.9417 -1.2901 -0.2100
10130TIP3   OH251880   6.349   4.576   5.503 -0.0804  0.1849  0.0444
10130TIP3    H151881   6.442   4.596   5.515  0.9592 -1.9476 -3.5685
10130TIP3    H251882   6.327   4.519   5.576  1.8611 -0.4438  0.1688
10131TIP3   OH251883   5.015   3.738  13.109  0.0067 -0.8370 -0.7569
10131TIP3    H151884   5.049   3.744  13.198  1.4553 -4.0877 -0.9905
10131TIP3    H251885   5.065   3.802  13.059  0.8807 -0.6741  0.3167
10132TIP3   OH251886   0.183   1.477  15.258  0.5042 -0.0531 -0.1239
10132TIP3    H151887   0.104   1.442  15.299 -0.8400 -0.6676 -3.0740
10132TIP3    H251888   0.235   1.399  15.239  1.9538  0.3663  1.9824
10133TIP3   OH251889   0.873   4.459   4.600 -0.2057 -0.2693 -0.6946
10133TIP3    H151890   0.809   4.524   4.568  0.1650  1.3505  1.7586
10133TIP3    H251891   0.958   4.501   4.585 -0.0028  0.2257  1.7535
10134TIP3   OH251892   0.942   4.378  14.808 -0.1155 -0.1215 -0.1809
10134TIP3    H151893   0.912   4.416  14.891 -0.4584  0.1488 -0.4306
10134TIP3    H251894   1.031   4.348  14.827 -0.5314 -0.9328  0.5683
10135TIP3   OH251895   3.256   1.446  12.759  0.7091  0.0440 -0.3218
10135TIP3    H151896   3.167   1.454  12.793  1.6429 -1.9897  2.8942
10135TIP3    H251897   3.291   1.535  12.761 -0.2383  0.4083  1.4920
10136TIP3   OH251898   2.709   1.519   5.837  0.9044 -0.0887  0.2166
10136TIP3    H151899   2.734   1.458   5.907  1.6584  1.9391  1.7742
10136TIP3    H251900   2.703   1.604   5.881  0.0120  0.9901 -1.9364
10137TIP3   OH251901   6.695   1.878   4.348  0.7544  0.3176 -0.1291
10137TIP3    H151902   6.614   1.875   4.400  0.5605  0.4216 -0.4205
10137TIP3    H251903   6.765   1.871   4.412  0.4924 -1.1510  0.0253
10138TIP3   OH251904   0.147   1.967  13.360 -0.1983 -0.2154 -1.0160
10138TIP3    H151905   0.118   2.027  13.291 -0.7498  0.8265  0.1002
10138TIP3    H251906   0.219   2.013  13.404  0.4425 -1.0591 -1.1694
10139TIP3   OH251907   1.244   0.233   3.086  0.4673  0.6079  0.6138
10139TIP3    H151908   1.173   0.227   3.023  0.1471  0.1845  1.0103
10139TIP3    H251909   1.235   0.155   3.141  1.8982 -0.0113 -0.0067
10140TIP3   OH251910   4.098   1.650  11.397  0.4042  0.4601  1.1845
10140TIP3    H151911   4.122   1.562  11.426  2.9480  0.6086 -0.3304
10140TIP3    H251912   4.108   1.648  11.302 -3.3541  1.3003  0.6991
10141TIP3   OH251913   3.616   4.559  16.436 -0.4969  0.2747 -0.1746
10141TIP3    H151914   3.526   4.532  16.452 -0.5594  0.9953  0.7214
10141TIP3    H251915   3.670   4.491  16.476 -0.6504  1.3449  1.9037
10142TIP3   OH251916   4.072   4.768   2.017  0.2212 -0.5959 -0.5612
10142TIP3    H151917   4.128   4.759   2.094  1.2949  1.3100 -1.0945
10142TIP3    H251918   4.110   4.840   1.967 -2.7865  0.8631 -0.8765
10143TIP3   OH251919   2.125   6.254  16.849  0.2831 -0.7656  0.2983
10143TIP3    H151920   2.077   6.188  16.899  0.1252 -0.9710 -0.1257
10143TIP3    H251921   2.115   6.228  16.758 -0.8679  0.5660  0.0204
10144TIP3   OH251922   3.720   0.303   3.647  0.4002 -0.2758  0.2394
10144TIP3    H151923   3.685   0.317   3.559 -2.5292  0.6301  1.5056
10144TIP3    H251924   3.668   0.230   3.682  1.0716 -0.1623  1.4993
10145TIP3   OH251925   4.442   6.017  11.744  0.5573  0.2404  0.0468
10145TIP3    H151926   4.481   5.934  11.772 -0.8861  0.0034  1.4086
10145TIP3    H251927   4.410   6.057  11.824  0.9660  1.9835 -0.6502
10146TIP3   OH251928   6.438   2.562  14.510 -0.2608 -0.1944 -0.3177
10146TIP3    H151929   6.532   2.572  14.495  0.0719 -1.6781  0.6632
10146TIP3    H251930   6.405   2.521  14.430 -0.4257  2.1083 -1.4606
10147TIP3   OH251931   0.305   6.776   4.058  0.6984 -0.1057 -0.6777
10147TIP3    H151932   0.330   6.868   4.073  0.1725 -0.4704  3.0064
10147TIP3    H251933   0.389   6.729   4.058  0.8029  0.0530  0.4042
10148TIP3   OH251934   1.477   5.718   0.021 -0.2540 -0.6654  0.6080
10148TIP3    H151935   1.478   5.647  -0.042 -0.3569 -1.5640  1.5986
10148TIP3    H251936   1.501   5.677   0.104  3.0064  1.0867  0.5993
10149TIP3   OH251937   3.322   3.814  12.358  0.1975  0.2682 -0.2779
10149TIP3    H151938   3.396   3.805  12.419 -0.3627  0.6671  0.4664
10149TIP3    H251939   3.340   3.751  12.289  0.7537 -0.3111  0.3951
10150TIP3   OH251940   4.523   0.524  11.054  0.0862 -0.8917 -0.0255
10150TIP3    H151941   4.497   0.483  11.137  0.9749  1.2305  1.3198
10150TIP3    H251942   4.618   0.512  11.050  0.4882  1.8480  0.8504
10151TIP3   OH251943   1.582   1.642  12.432  0.8610  0.3454  0.0391
10151TIP3    H151944   1.650   1.705  12.455  1.5570 -0.9867  1.7883
10151TIP3    H251945   1.590   1.631  12.337  0.6084  2.9762 -0.3174
10152TIP3   OH251946   5.888   4.508  17.182  0.6783 -0.4822 -0.3367
10152TIP3    H151947   5.889   4.434  17.122  1.3152 -0.0414 -0.8799
10152TIP3    H251948   5.903   4.585  17.126 -3.1126  0.4192 -0.2543
10153TIP3   OH251949   2.424   4.689   0.840  0.8695 -0.2987  0.4097
10153TIP3    H151950   2.500   4.631   0.849  1.1801  0.0062 -0.2373
10153TIP3    H251951   2.421   4.736   0.923  0.2349 -1.6954  1.1906
10154TIP3   OH251952   0.845   4.986   1.566  0.4033 -0.4538  0.2467
10154TIP3    H151953   0.790   4.938   1.628 -0.0867  0.1217  0.2650
10154TIP3    H251954   0.838   5.077   1.593 -1.1968  0.0350 -1.6582
10155TIP3   OH251955   4.713   1.980   4.200 -0.1894  0.5480 -0.3472
10155TIP3    H151956   4.697   2.024   4.116  0.0192  0.2535 -0.5431
10155TIP3    H251957   4.683   2.042   4.266 -0.6872  0.6370 -0.6556
10156TIP3   OH251958   1.486   4.679  13.725 -0.0456  0.5443 -0.8126
10156TIP3    H151959   1.479   4.761  13.676 -3.0178  0.2860 -0.8905
10156TIP3    H251960   1.492   4.706  13.816  1.7677  0.9089 -1.0228
10157TIP3   OH251961   0.255   3.668  13.200  0.0382  0.0023 -0.1512
10157TIP3    H151962   0.210   3.729  13.258  0.1530  0.8262 -0.9199
10157TIP3    H251963   0.189   3.646  13.134  0.9977  1.8842 -1.7849
10158TIP3   OH251964   5.945   0.495  16.689  0.2997 -0.0211 -0.1570
10158TIP3    H151965   5.928   0.410  16.647  0.0218 -0.1236  0.1552
10158TIP3    H251966   5.959   0.555  16.616 -1.5707  0.0943 -0.4638
10159TIP3   OH251967   2.867   3.620   0.679 -0.2534 -0.4742  0.0256
10159TIP3    H151968   2.881   3.711   0.707 -0.8523 -0.2169 -0.5151
10159TIP3    H251969   2.808   3.584   0.745  0.5087 -0.6668  0.6088
10160TIP3   OH251970   2.238   2.274  11.621 -0.0855  0.1009  0.1128
10160TIP3    H151971   2.185   2.205  11.660  1.3307 -0.5835  0.8406
10160TIP3    H251972   2.174   2.341  11.595 -1.5896 -1.9759 -1.7167
10161TIP3   OH251973   5.714   3.939   3.496 -0.3374 -0.4408 -0.2120
10161TIP3    H151974   5.620   3.960   3.493  0.0048  1.0111 -2.1626
10161TIP3    H251975   5.738   3.952   3.588 -1.7729  0.4780  0.0606
10162TIP3   OH251976   4.474   0.288   3.465 -0.6234  0.7413  0.3393
10162TIP3    H151977   4.416   0.229   3.514  1.3166 -2.2444 -0.7555
10162TIP3    H251978   4.544   0.309   3.527 -0.7701  1.0614  0.3979
10163TIP3   OH251979   0.588   3.397   5.433 -0.3918  0.3180 -0.3698
10163TIP3    H151980   0.612   3.306   5.413  0.2666  0.2178  0.7994
10163TIP3    H251981   0.525   3.421   5.366 -0.5993 -1.0291 -0.6696
10164TIP3   OH251982   5.577   1.037  16.580  0.4955 -0.2470 -0.9659
10164TIP3    H151983   5.530   0.987  16.647  0.3463 -0.1006 -0.9611
10164TIP3    H251984   5.606   1.116  16.625 -1.9432  1.1497 -1.7585
10165TIP3   OH251985   2.132   1.583  14.577 -0.1294 -0.3413  0.0298
10165TIP3    H151986   2.221   1.593  14.543 -0.0609  0.9923  0.5738
10165TIP3    H251987   2.144   1.568  14.670 -0.4130 -2.0000 -0.1769
10166TIP3   OH251988   5.215   2.242   5.446  0.2087  1.0959  1.0624
10166TIP3    H151989   5.173   2.156   5.442  2.6261 -0.1472  0.7988
10166TIP3    H251990   5.291   2.228   5.504  1.6704  2.5717 -0.4253
10167TIP3   OH251991   6.254   6.434   4.986  0.0173 -0.6089 -0.4830
10167TIP3    H151992   6.326   6.393   5.034 -1.0538 -0.8092  1.0070
10167TIP3    H251993   6.216   6.363   4.935  0.1395 -0.7710 -0.3507
10168TIP3   OH251994   3.696   3.348  10.529 -0.6325 -0.0985 -0.0261
10168TIP3    H151995   3.734   3.347  10.441 -0.0858 -0.7125  0.2150
10168TIP3    H251996   3.707   3.259  10.562 -0.4795  0.2228  0.8123
10169TIP3   OH251997   0.978   5.116  12.044  0.0057  0.5065 -0.1266
10169TIP3    H151998   1.022   5.042  12.086 -0.9924  0.5719  1.0805
10169TIP3    H251999   0.884   5.097  12.053 -0.2404  0.6919 -2.0551
10170TIP3   OH252000   0.357   3.281  12.544 -0.5324 -0.0011  1.0241
10170TIP3    H152001   0.430   3.249  12.490 -0.3828  0.2494  1.0782
10170TIP3    H252002   0.372   3.375  12.551 -0.7544  0.0203  1.1984
10171TIP3   OH252003   4.951   4.018  11.230 -0.2882  0.0402  0.3854
10171TIP3    H152004   4.979   4.071  11.155 -1.7438 -0.7219 -0.7221
10171TIP3    H252005   4.968   4.074  11.306  0.7882  1.0002 -0.5393
10172TIP3   OH252006   2.055   2.361   1.107  0.3953  0.5411  0.4623
10172TIP3    H152007   2.011   2.400   1.183 -0.2102 -0.8798  0.8607
10172TIP3    H252008   1.986   2.315   1.060  1.1293 -0.1914  0.0968
10173TIP3   OH252009   3.835   3.712   3.486 -0.6942  1.0147 -0.1222
10173TIP3    H152010   3.767   3.720   3.553  0.5623 -0.8411  1.4147
10173TIP3    H252011   3.900   3.654   3.524  0.6366  0.8695 -2.5034
10174TIP3   OH252012   3.039   1.517  11.702 -0.2409 -0.3429 -0.4918
10174TIP3    H152013   3.053   1.468  11.784 -1.6583 -1.4251 -0.8785
10174TIP3    H252014   3.127   1.532  11.669  0.3149 -0.7032  0.7760
10175TIP3   OH252015   6.744   2.586   3.597  0.4501 -0.6214 -0.1253
10175TIP3    H152016   6.686   2.512   3.613 -0.5929  0.3377  0.6245
10175TIP3    H252017   6.793   2.596   3.679 -0.0692  0.0841  0.1037
10176TIP3   OH252018   6.778   0.321  13.771  0.2663  0.0904  0.2692
10176TIP3    H152019   6.744   0.241  13.731  2.2589 -0.2389 -0.8274
10176TIP3    H252020   6.706   0.352  13.827 -0.2437 -2.9141  1.3976
10177TIP3   OH252021   3.810   0.572  13.906 -0.9450  0.4447 -0.6025
10177TIP3    H152022   3.765   0.499  13.948 -2.1788  1.4140 -0.1977
10177TIP3    H252023   3.887   0.532  13.865  0.5125 -0.5224  2.8087
10178TIP3   OH252024   6.437   1.905   2.399  0.1828 -0.1005  0.1451
10178TIP3    H152025   6.456   1.993   2.432  1.4488 -0.4757  0.4466
10178TIP3    H252026   6.373   1.918   2.329 -0.9617  0.8976  1.3558
10179TIP3   OH252027   5.109   6.442   5.792  0.2293  0.5291 -0.4838
10179TIP3    H152028   5.086   6.487   5.711 -0.3646 -0.2404 -0.7493
10179TIP3    H252029   5.041   6.467   5.855 -0.1721 -0.0817 -0.6670
10180TIP3   OH252030   6.262   2.902  15.964  0.0604  0.4479 -0.7403
10180TIP3    H152031   6.350   2.924  15.931  0.7836  0.4249  1.0938
10180TIP3    H252032   6.278   2.833  16.029 -1.6500 -1.7194 -2.5520
10181TIP3   OH252033   2.172   5.064   0.569 -0.0690  0.4772 -0.3874
10181TIP3    H152034   2.241   5.110   0.616 -0.0654 -0.5204  0.6305
10181TIP3    H252035   2.217   5.021   0.496  0.7819 -1.7273  1.3412
10182TIP3   OH252036   3.540   4.473  11.964  0.0504 -0.5987 -0.1655
10182TIP3    H152037   3.555   4.469  12.058 -0.5059  0.1408 -0.0372
10182TIP3    H252038   3.511   4.385  11.940  0.0112 -0.7384  0.3857
10183TIP3   OH252039   1.804   3.030  12.403  1.0472  0.0891 -0.2070
10183TIP3    H152040   1.892   3.069  12.407  1.4747 -0.8239 -0.5265
10183TIP3    H252041   1.814   2.944  12.444  0.5132 -0.4047 -1.0950
10184TIP3   OH252042   1.791   1.866  11.497  0.1619  0.0289  0.1605
10184TIP3    H152043   1.823   1.872  11.407  1.6741  1.1849  0.7595
10184TIP3    H252044   1.797   1.774  11.519  1.7468  0.0301 -0.2348
10185TIP3   OH252045   2.901   6.617  14.479  0.6148 -0.0136  0.2881
10185TIP3    H152046   2.924   6.562  14.404  1.7209  0.7536  0.0585
10185TIP3    H252047   2.864   6.696  14.440  0.2124 -0.0527  0.5895
10186TIP3   OH252048   5.490   5.292  14.406  0.1430 -0.4614  0.4644
10186TIP3    H152049   5.490   5.325  14.496 -0.4340 -1.2589  0.7590
10186TIP3    H252050   5.470   5.369  14.353 -0.5788 -0.1911  1.1079
10187TIP3   OH252051   2.627   2.870  11.958  0.4933  0.0706 -0.2630
10187TIP3    H152052   2.579   2.814  11.898 -1.2060  0.5255  0.6494
10187TIP3    H252053   2.696   2.910  11.904 -1.2748  0.8274 -2.0039
10188TIP3   OH252054   0.071   6.278   3.739  0.4537  0.1618 -0.2924
10188TIP3    H152055   0.130   6.225   3.792  0.2173 -0.2964 -0.4838
10188TIP3    H252056  -0.009   6.284   3.791  0.9172  1.3853  0.2855
10189TIP3   OH252057   0.283   1.939   3.374 -0.1747  0.4548  0.2025
10189TIP3    H152058   0.345   1.995   3.329  0.0657  0.3304  0.3779
10189TIP3    H252059   0.252   1.878   3.307 -0.0741  0.4872  0.1276
10190TIP3   OH252060   3.270   1.964   2.915 -0.1688 -0.3359  0.0841
10190TIP3    H152061   3.292   1.946   2.824  0.0639 -0.0746  0.0877
10190TIP3    H252062   3.193   1.909   2.932 -0.9828  0.5468 -0.6414
10191TIP3   OH252063   6.192   3.913  14.728 -0.0608 -0.1947  0.2153
10191TIP3    H152064   6.115   3.857  14.740 -0.0277 -0.7172 -1.8460
10191TIP3    H252065   6.194   3.931  14.634  0.6664  2.2429  0.6486
10192TIP3   OH252066   0.953   0.864   3.175 -0.7076  0.0517  0.0720
10192TIP3    H152067   0.944   0.952   3.211 -1.3905  0.9506 -2.2269
10192TIP3    H252068   0.912   0.868   3.089  0.6238 -2.1073 -0.7261
10193TIP3   OH252069   1.906   0.813   2.817 -0.0836  0.0585 -0.4792
10193TIP3    H152070   1.913   0.862   2.899  1.8678  0.3573 -0.7893
10193TIP3    H252071   1.813   0.812   2.797 -0.2780  2.6645  0.1355
10194TIP3   OH252072   2.398   2.128  16.887 -0.3274  0.0728  0.3365
10194TIP3    H152073   2.480   2.098  16.926  0.0958 -0.0566 -0.6188
10194TIP3    H252074   2.413   2.220  16.866  0.8155 -0.7572 -2.8924
10195TIP3   OH252075   2.927   3.656  16.150 -0.0013  0.0246 -0.5304
10195TIP3    H152076   2.954   3.623  16.236 -0.3454 -0.0394 -0.4449
10195TIP3    H252077   3.007   3.653  16.097  0.9111  2.7261  0.5866
10196TIP3   OH252078   0.799   6.645   2.435 -0.0492 -0.0561 -0.5922
10196TIP3    H152079   0.827   6.658   2.526 -0.8919 -3.8671  0.2826
10196TIP3    H252080   0.874   6.604   2.392 -1.1132 -2.0996 -0.5249
10197TIP3   OH252081   6.071   2.784   2.489 -0.0455  0.3643 -0.7754
10197TIP3    H152082   6.127   2.849   2.532 -0.3985 -0.5264  1.0792
10197TIP3    H252083   5.997   2.773   2.548  0.2968 -2.1408 -0.7592
10198TIP3   OH252084   2.067   5.594  16.089  0.0713 -0.2786 -0.1042
10198TIP3    H152085   2.147   5.552  16.122 -0.1451  0.9759  2.0906
10198TIP3    H252086   2.097   5.677  16.053 -0.4978  1.3649  3.0381
10199TIP3   OH252087   3.960   6.405   4.436  0.2108 -0.1301 -0.7927
10199TIP3    H152088   3.951   6.489   4.392 -0.3193  0.0726 -0.3154
10199TIP3    H252089   3.946   6.425   4.529  0.0119 -0.7530 -0.6829
10200TIP3   OH252090   4.360   5.614  12.517  0.2791 -0.4325 -0.1946
10200TIP3    H152091   4.314   5.572  12.446  0.8044 -1.4752  0.0748
10200TIP3    H252092   4.442   5.566  12.525 -0.0045 -0.6755  1.4724
10201TIP3   OH252093   6.280   6.458  14.945 -0.1444  0.3746 -0.1260
10201TIP3    H152094   6.321   6.490  15.025 -1.3188 -1.4848  1.2888
10201TIP3    H252095   6.188   6.483  14.953 -0.1436  0.8019 -1.2589
10202TIP3   OH252096   2.671   0.100  12.962  0.4673  0.5814 -0.4296
10202TIP3    H152097   2.604   0.168  12.964  0.9119  1.0401 -1.3117
10202TIP3    H252098   2.696   0.093  12.870  0.2011 -0.9933 -0.3969
10203TIP3   OH252099   1.414   3.940   2.613  0.4920  0.5109 -0.1799
10203TIP3    H152100   1.392   4.015   2.668 -2.8715  1.7304 -3.0106
10203TIP3    H252101   1.331   3.893   2.602  1.9498 -2.0175 -0.8780
10204TIP3   OH252102   1.600   2.000  15.484  0.1368 -1.1928  0.2587
10204TIP3    H152103   1.550   2.061  15.538  1.0571  0.4243 -0.7170
10204TIP3    H252104   1.551   1.918  15.491 -2.3254  0.1920 -0.2062
10205TIP3   OH252105   6.330   0.570   4.281 -0.5462  0.2223 -0.5442
10205TIP3    H152106   6.262   0.513   4.316  0.4617 -0.6001  0.1223
10205TIP3    H252107   6.318   0.653   4.326 -1.4747  0.2626 -0.8686
10206TIP3   OH252108   6.362   5.164  15.267  0.0552 -0.3149 -0.1938
10206TIP3    H152109   6.356   5.228  15.337  1.3915  1.2314 -1.4376
10206TIP3    H252110   6.364   5.079  15.312  1.7837  0.6833  1.6912
10207TIP3   OH252111   2.006   0.269  14.645 -0.1826 -0.5400 -0.6781
10207TIP3    H152112   1.981   0.296  14.556  0.0647 -2.3541 -1.3252
10207TIP3    H252113   2.091   0.227  14.634  0.0210 -0.4427  0.4884
10208TIP3   OH252114   2.521   2.373   2.881 -0.1984  0.1149  0.0742
10208TIP3    H152115   2.534   2.330   2.797  1.4696 -1.1424  0.9317
10208TIP3    H252116   2.602   2.421   2.897 -0.9175  1.2255  0.4759
10209TIP3   OH252117   3.485   6.447  13.720 -0.3205  0.6804 -0.3541
10209TIP3    H152118   3.523   6.529  13.687  1.1313  0.7173  1.3339
10209TIP3    H252119   3.542   6.379  13.684 -0.7194  0.4966 -0.6393
10210TIP3   OH252120   0.702   5.157  13.443  0.1394 -0.1645  0.9773
10210TIP3    H152121   0.644   5.208  13.388  0.5688 -1.2214 -0.4716
10210TIP3    H252122   0.660   5.156  13.529 -0.4437  1.6312  0.7214
10211TIP3   OH252123   3.883   5.242   1.964 -0.3317  0.2321 -0.2630
10211TIP3    H152124   3.925   5.169   2.009  0.4896  0.6482 -0.3267
10211TIP3    H252125   3.791   5.219   1.960 -0.2591 -0.2643  0.7515
10212TIP3   OH252126   1.015   4.287  12.560  0.2977 -0.8419 -0.1825
10212TIP3    H152127   1.053   4.373  12.577  0.0083 -0.5248 -1.1370
10212TIP3    H252128   1.084   4.225  12.585  0.0500 -0.3913  1.7334
10213TIP3   OH252129   2.162   2.797   1.872 -0.3830  0.8602 -0.1073
10213TIP3    H152130   2.175   2.817   1.965  1.5632 -1.5241  0.1817
10213TIP3    H252131   2.077   2.751   1.870 -0.4444  0.9384  0.4934
10214TIP3   OH252132   1.535   6.168   3.930 -0.3078  0.4843 -0.2418
10214TIP3    H152133   1.497   6.241   3.979  0.7560  1.4367 -0.7785
10214TIP3    H252134   1.539   6.096   3.992 -0.6579  1.1258  0.5362
10215TIP3   OH252135   6.459   2.072  14.557 -0.6706 -0.0470 -0.5708
10215TIP3    H152136   6.518   2.087  14.483  0.4828  1.6009  0.6544
10215TIP3    H252137   6.444   2.159  14.594 -2.7592 -0.6249 -0.0042
10216TIP3   OH252138   5.913   1.580  15.281  0.3653  0.0652 -0.0363
10216TIP3    H152139   5.874   1.629  15.208 -0.4108 -0.8770 -0.2642
10216TIP3    H252140   6.005   1.569  15.255  0.7781  2.1707  0.4340
10217TIP3   OH252141   6.137   6.388   1.381 -0.6682 -0.1700 -0.0027
10217TIP3    H152142   6.193   6.376   1.304 -0.9774  0.7094 -0.3783
10217TIP3    H252143   6.048   6.385   1.346 -0.8804 -1.9111  0.6374
10218TIP3   OH252144   6.592   6.277   3.536 -0.0407 -0.2746 -0.6304
10218TIP3    H152145   6.602   6.263   3.442  2.1116 -1.7945 -0.1979
10218TIP3    H252146   6.552   6.196   3.569 -0.3793  0.0750 -0.1660
10219TIP3   OH252147   0.506   0.044   4.812  0.0196 -0.2380 -0.0602
10219TIP3    H152148   0.540  -0.042   4.838 -0.7260 -1.3864 -2.7684
10219TIP3    H252149   0.565   0.072   4.742 -0.1529  1.1710  0.3539
10220TIP3   OH252150   5.241   4.353  15.370 -0.1289  0.5674  1.0708
10220TIP3    H152151   5.305   4.367  15.300 -2.1837 -0.0687 -1.0302
10220TIP3    H252152   5.175   4.421  15.356 -2.1600 -1.4718  0.4034
10221TIP3   OH252153   0.114   0.777  16.067  0.6365 -0.4030 -0.5049
10221TIP3    H152154   0.114   0.817  15.980 -0.9611  1.5379  0.3560
10221TIP3    H252155   0.186   0.819  16.114 -1.1415  1.6376  0.4521
10222TIP3   OH252156   5.143   2.950  15.246  0.0751  0.2706  0.1725
10222TIP3    H152157   5.167   2.972  15.156  0.3372 -2.2491 -0.3972
10222TIP3    H252158   5.068   2.891  15.237  1.2682 -1.4770  1.5244
10223TIP3   OH252159   4.345   4.875  12.502  0.5606 -0.4622 -0.0630
10223TIP3    H152160   4.315   4.802  12.556  0.0747  0.0298  0.3391
10223TIP3    H252161   4.312   4.953  12.547 -0.7563 -0.0943 -1.6242
10224TIP3   OH252162   5.714   0.189   6.249 -0.3007 -0.8302  0.2012
10224TIP3    H152163   5.810   0.186   6.259 -0.2172  0.0488 -0.3779
10224TIP3    H252164   5.698   0.254   6.181 -1.2814 -1.5458 -0.2682
10225TIP3   OH252165   6.600   6.594   3.800 -0.1453  0.3866 -0.5088
10225TIP3    H152166   6.681   6.631   3.762 -0.3226  1.2267 -0.0910
10225TIP3    H252167   6.538   6.592   3.727 -0.3933  1.7195 -0.3522
10226TIP3   OH252168   0.315   6.403   4.020  0.2072  0.1920 -0.2063
10226TIP3    H152169   0.361   6.459   3.957 -0.1920  0.8743  0.0926
10226TIP3    H252170   0.223   6.428   4.011  0.1285  0.1699  0.5215
10227TIP3   OH252171   6.644   5.422  10.426 -0.1653 -0.2978 -0.8393
10227TIP3    H152172   6.696   5.389  10.353  0.9733  0.2980 -0.3168
10227TIP3    H252173   6.582   5.352  10.445 -0.0084 -0.7432 -1.9209
10228TIP3   OH252174   2.342   2.393  11.872  0.3031  0.1586  0.6792
10228TIP3    H152175   2.278   2.460  11.892  0.3233  0.2403  0.4754
10228TIP3    H252176   2.296   2.332  11.814  1.0814  1.4207 -1.3049
10229TIP3   OH252177   1.688   0.424  13.929 -0.9001 -0.3431  0.2012
10229TIP3    H152178   1.617   0.375  13.888 -2.2017 -0.6742  2.7269
10229TIP3    H252179   1.655   0.445  14.017  2.6069 -1.6975  1.9376
10230TIP3   OH252180   4.098   5.176  14.485 -0.2131  0.2336  0.4500
10230TIP3    H152181   4.079   5.104  14.425 -0.7445  1.1587 -0.5284
10230TIP3    H252182   4.193   5.171  14.499 -0.2866 -0.8157  0.6222
10231TIP3   OH252183   0.390   3.066   6.084 -0.2510 -0.0191  0.4621
10231TIP3    H152184   0.337   3.123   6.028 -1.0607 -0.2284  1.0206
10231TIP3    H252185   0.331   3.039   6.154  0.5391 -0.4050  0.9806
10232TIP3   OH252186   3.660   6.001  15.402  0.1413  0.0701 -0.4100
10232TIP3    H152187   3.663   5.950  15.483 -3.1627  2.0057  1.0286
10232TIP3    H252188   3.567   6.008  15.381  0.8563  0.4089 -3.9223
10233TIP3   OH252189   2.878   2.840  15.629  0.1845 -0.3237  0.1945
10233TIP3    H152190   2.865   2.903  15.699 -1.0061  0.0424 -0.3359
10233TIP3    H252191   2.953   2.787  15.657 -1.0625 -1.0097  2.3381
10234TIP3   OH252192   6.066   0.884  15.468  0.0162  0.5208 -0.6082
10234TIP3    H152193   6.086   0.862  15.558 -0.2730 -1.0983 -0.9179
10234TIP3    H252194   5.980   0.926  15.472  0.5573  1.5956 -0.0090
10235TIP3   OH252195   0.180   5.477  14.483 -0.1331  0.0318 -0.3208
10235TIP3    H152196   0.261   5.450  14.526  0.5759  2.2219 -0.2659
10235TIP3    H252197   0.150   5.553  14.533 -1.8515 -0.3331 -0.7666
10236TIP3   OH252198   5.021   6.061   3.110  0.6651  0.2432  0.4120
10236TIP3    H152199   5.078   6.001   3.061  0.0491  0.5585 -0.6969
10236TIP3    H252200   4.933   6.042   3.078  0.1174 -0.3192  2.2048
10237TIP3   OH252201   1.582   4.615  16.158 -0.1445 -0.1932  1.0062
10237TIP3    H152202   1.529   4.538  16.135  1.4248 -0.8157 -0.6380
10237TIP3    H252203   1.643   4.583  16.225  0.8097 -0.5179 -0.0051
10238TIP3   OH252204   3.227   2.810   1.045  0.5388  0.0517 -0.3167
10238TIP3    H152205   3.230   2.849   0.957  0.0355  1.4486  0.2816
10238TIP3    H252206   3.161   2.861   1.091 -0.1268 -1.5201  0.4821
10239TIP3   OH252207   5.121   4.700  15.633 -0.1080 -0.5907 -0.8149
10239TIP3    H152208   5.158   4.614  15.614  2.2814  0.3376 -0.5649
10239TIP3    H252209   5.140   4.714  15.726 -0.0870  0.3715 -0.9584
10240TIP3   OH252210   0.665   6.465   1.517 -0.1459 -0.3678 -0.0318
10240TIP3    H152211   0.658   6.461   1.421  0.4104 -0.0940 -0.0855
10240TIP3    H252212   0.759   6.468   1.534 -0.2496 -0.1651  0.5122
10241TIP3   OH252213   5.992   5.787   0.279 -0.0634  0.6214 -0.1746
10241TIP3    H152214   6.001   5.752   0.367  1.8527  0.0238 -0.5854
10241TIP3    H252215   5.921   5.736   0.240 -1.5907  1.5474  1.3105
10242TIP3   OH252216   3.777   6.113   1.651 -0.4954 -0.0092 -0.5896
10242TIP3    H152217   3.865   6.087   1.623 -1.0755 -2.9922  0.2262
10242TIP3    H252218   3.774   6.091   1.744 -1.9889  0.4231 -0.5233
10243TIP3   OH252219   4.843   0.082  13.991  0.1604 -0.2114  0.3586
10243TIP3    H152220   4.774   0.061  13.928 -0.4851 -0.2872  1.0808
10243TIP3    H252221   4.870  -0.003  14.027 -1.0471 -0.0083  1.8119
10244TIP3   OH252222   3.626   5.894  11.946 -0.0635  0.3935  0.1197
10244TIP3    H152223   3.537   5.928  11.933  0.2230  1.2410  0.3766
10244TIP3    H252224   3.675   5.967  11.983  0.5475 -0.3072  0.7252
10245TIP3   OH252225   1.888   0.151   6.073  0.2607 -0.1328 -0.1490
10245TIP3    H152226   1.920   0.093   6.142 -2.9754  0.1213  1.6814
10245TIP3    H252227   1.926   0.236   6.092  0.6806 -0.4348  0.3673
10246TIP3   OH252228   2.003   3.630   2.406 -0.0054 -0.3156 -0.4483
10246TIP3    H152229   2.090   3.651   2.372  0.2403 -0.4652  0.0743
10246TIP3    H252230   1.953   3.604   2.330  0.0439  0.9714 -0.9434
10247TIP3   OH252231   3.220   4.290  14.465 -0.1066 -0.0601  0.1956
10247TIP3    H152232   3.227   4.264  14.373 -0.4684 -0.1429  0.1923
10247TIP3    H252233   3.251   4.213  14.513 -0.9244 -0.4113  0.1759
10248TIP3   OH252234   0.933   0.475   4.588 -0.3907  0.5731  0.0983
10248TIP3    H152235   0.952   0.386   4.617 -1.2326  0.5634  0.6606
10248TIP3    H252236   0.905   0.465   4.497 -1.4789  0.1214  0.4637
10249TIP3   OH252237   0.735   6.252   3.477  0.2367  0.2581 -0.2185
10249TIP3    H152238   0.686   6.330   3.452  0.0927  0.1223 -0.3582
10249TIP3    H252239   0.786   6.229   3.400  0.2013  0.1535 -0.2108
10250TIP3   OH252240   3.039   0.626   4.015  0.2487  0.2935 -0.0730
10250TIP3    H152241   3.080   0.605   4.099  0.3236  0.6437 -0.0217
10250TIP3    H252242   3.076   0.561   3.954 -1.5176 -1.4110  0.6230
10251TIP3   OH252243   1.471   3.651   0.181  0.5327  0.4447  0.4079
10251TIP3    H152244   1.420   3.622   0.106  1.5770  1.4989 -0.7327
10251TIP3    H252245   1.408   3.698   0.237  0.5024  3.0647 -1.7225
10252TIP3   OH252246   3.102   6.640   1.808 -0.1355 -0.7077 -0.6404
10252TIP3    H152247   3.168   6.673   1.748 -0.0645 -1.5757 -1.0542
10252TIP3    H252248   3.061   6.567   1.761 -1.4694 -0.1113 -0.4381
10253TIP3   OH252249   0.264   5.250   0.575 -0.3596  0.4083 -0.1421
10253TIP3    H152250   0.265   5.171   0.521 -3.2085  0.8689 -0.9531
10253TIP3    H252251   0.304   5.317   0.520 -0.0938  0.0783 -0.3519
10254TIP3   OH252252   3.550   5.055   1.679  0.1517  0.1388 -0.2430
10254TIP3    H152253   3.492   5.022   1.748  1.4762  0.2636  0.9437
10254TIP3    H252254   3.594   4.977   1.646  1.0997  0.3390  0.5324
10255TIP3   OH252255   3.898   5.068  16.360  0.0223  0.0710  0.5305
10255TIP3    H152256   3.849   5.035  16.435  0.6727  0.3045  1.0688
10255TIP3    H252257   3.988   5.074  16.391  0.4044 -0.4309 -0.4775
10256TIP3   OH252258   3.033   0.369  10.596  0.5890 -0.1107  0.0542
10256TIP3    H152259   2.944   0.395  10.616  0.7891  0.1659  0.6001
10256TIP3    H252260   3.037   0.366  10.500  0.3595  1.1517 -0.0058
10257TIP3   OH252261   1.696   5.844  11.031  0.4572  0.1417  0.5958
10257TIP3    H152262   1.701   5.890  10.947 -2.6856 -2.1313 -0.9113
10257TIP3    H252263   1.638   5.898  11.085  0.5307  0.3413  0.4757
10258TIP3   OH252264   1.014   0.899   4.432 -0.1747  0.0297  0.0936
10258TIP3    H152265   1.078   0.875   4.500  0.8109 -1.0849 -1.1987
10258TIP3    H252266   0.931   0.906   4.479  0.6522  0.1218  1.5686
10259TIP3   OH252267   5.919   5.040  16.785  0.1470 -0.4620  0.0673
10259TIP3    H152268   5.871   5.080  16.857  0.5759  0.7523 -0.3265
10259TIP3    H252269   5.861   4.970  16.754  0.3556 -1.6013  2.1729
10260TIP3   OH252270   5.318   4.093  15.469 -0.2501  0.4497 -0.4102
10260TIP3    H152271   5.262   4.023  15.434  1.1054 -0.7344 -0.2634
10260TIP3    H252272   5.258   4.167  15.482 -2.1218 -1.2997  1.2871
10261TIP3   OH252273   6.688   3.256  13.106 -0.4205  0.5808  0.4812
10261TIP3    H152274   6.723   3.287  13.023  0.9369 -0.6499  0.5734
10261TIP3    H252275   6.632   3.182  13.083 -1.1027  1.0788  0.5430
10262TIP3   OH252276   4.280   4.689  13.772  0.0644 -0.3050  0.1961
10262TIP3    H152277   4.207   4.643  13.732  0.3947  0.1614 -0.9781
10262TIP3    H252278   4.256   4.697  13.864 -1.4433 -0.0044 -0.2077
10263TIP3   OH252279   3.348   1.871   0.271  0.6167  0.2470  0.0532
10263TIP3    H152280   3.336   1.921   0.352  1.2313 -3.1305  2.3242
10263TIP3    H252281   3.418   1.918   0.224 -0.0586  2.5011  1.2348
10264TIP3   OH252282   6.418   0.034  11.288 -0.3947 -0.2304  0.1682
10264TIP3    H152283   6.328   0.062  11.302 -0.3549  1.1971 -2.0942
10264TIP3    H252284   6.445   0.080  11.208  2.8723  0.6387  1.6738
10265TIP3   OH252285   2.420   2.415   1.949 -0.3559 -0.5186 -0.3239
10265TIP3    H152286   2.334   2.374   1.937  0.8742 -2.8500 -1.6081
10265TIP3    H252287   2.482   2.343   1.938  1.7480  0.9959  1.2370
10266TIP3   OH252288   2.030   3.779  16.364  0.3090 -0.0884  0.0965
10266TIP3    H152289   1.963   3.840  16.394  0.3482 -0.5295  1.0848
10266TIP3    H252290   2.076   3.752  16.443 -0.9742 -2.9486 -0.0505
10267TIP3   OH252291   2.550   0.718   2.583  0.3626  0.1653  0.1345
10267TIP3    H152292   2.606   0.661   2.530 -0.3131 -0.1424 -0.2521
10267TIP3    H252293   2.462   0.706   2.547 -0.5370 -1.9123  2.8665
10268TIP3   OH252294   1.322   4.537  11.468 -0.9673  0.3891  0.4184
10268TIP3    H152295   1.316   4.524  11.373 -0.1453  0.0744  0.4135
10268TIP3    H252296   1.271   4.465  11.505  0.0458 -0.4069  0.2659
10269TIP3   OH252297   5.079   6.782  10.881 -0.3944 -0.6207  0.1505
10269TIP3    H152298   5.043   6.870  10.868 -0.2869 -0.4689  0.8568
10269TIP3    H252299   5.141   6.771  10.809  0.3388  0.2904  0.6210
10270TIP3   OH252300   4.227   4.801  17.244 -0.3463  0.1313 -0.1293
10270TIP3    H152301   4.235   4.716  17.200 -2.1915  0.0013 -0.2447
10270TIP3    H252302   4.314   4.817  17.279  0.1276 -1.6525 -0.4018
10271TIP3   OH252303   0.517   5.661  14.747 -0.7069  0.1569 -0.1582
10271TIP3    H152304   0.486   5.619  14.828  1.2885 -0.0045  0.5526
10271TIP3    H252305   0.526   5.589  14.685  0.4410 -0.1470  0.3443
10272TIP3   OH252306   4.213   0.933  15.807 -0.3038 -0.4590  0.4711
10272TIP3    H152307   4.259   0.935  15.724 -0.0637 -1.5905  0.5657
10272TIP3    H252308   4.161   1.013  15.808 -0.3972 -0.5008 -0.8145
10273TIP3   OH252309   1.010   0.193   2.944 -0.3945 -0.4627  0.0174
10273TIP3    H152310   0.937   0.154   2.896  0.2139  0.1912 -1.4586
10273TIP3    H252311   0.977   0.278   2.972 -0.3913 -0.4071 -0.1483
10274TIP3   OH252312   4.160   6.159   0.706  0.6707 -0.5634  0.9178
10274TIP3    H152313   4.197   6.075   0.734  0.2685 -1.3262 -0.7672
10274TIP3    H252314   4.124   6.141   0.619  0.0313  1.2091  0.8048
10275TIP3   OH252315   6.613   5.971   1.032  0.4204  1.1857  0.2642
10275TIP3    H152316   6.611   6.044   1.094 -2.0443 -0.1969  1.8906
10275TIP3    H252317   6.621   5.893   1.087 -1.3569 -0.0359 -1.1405
10276TIP3   OH252318   2.521   6.016   5.403 -0.0124 -0.6498 -0.3801
10276TIP3    H152319   2.574   5.994   5.480  1.5784  0.9943 -0.9778
10276TIP3    H252320   2.435   5.978   5.422  0.7821 -1.5679  1.5320
10277TIP3   OH252321   2.835   5.609  16.740 -0.0794  0.7294 -0.2062
10277TIP3    H152322   2.835   5.604  16.644  0.2044 -0.3549 -0.1547
10277TIP3    H252323   2.926   5.590  16.765 -0.3603  0.0360  0.3156
10278TIP3   OH252324   1.344   0.317  14.552 -0.5682  0.3250  0.4581
10278TIP3    H152325   1.391   0.244  14.513  1.7399  1.2790  1.4024
10278TIP3    H252326   1.335   0.295  14.644 -0.2356  1.0360  0.6660
10279TIP3   OH252327   4.326   1.450  15.746  0.4171  0.2788 -0.5505
10279TIP3    H152328   4.288   1.441  15.834  0.5604 -1.2814 -0.6326
10279TIP3    H252329   4.319   1.543  15.726 -3.1779  0.0774 -0.4905
10280TIP3   OH252330   6.194   2.651  12.120  0.3450  0.7846  0.0011
10280TIP3    H152331   6.185   2.593  12.195  2.0197 -0.2709 -0.5948
10280TIP3    H252332   6.231   2.731  12.156 -1.2290  1.2340  0.6940
10281TIP3   OH252333   4.688   0.301   3.671  0.0216 -0.3602  0.3980
10281TIP3    H152334   4.693   0.216   3.714 -0.1810 -1.2770 -1.3573
10281TIP3    H252335   4.777   0.317   3.638 -0.2508 -0.5292 -0.4413
10282TIP3   OH252336   0.890   2.189   2.682 -0.1003 -0.2866 -0.1993
10282TIP3    H152337   0.829   2.205   2.610 -0.2784 -0.4138 -0.0769
10282TIP3    H252338   0.886   2.094   2.695  2.5753 -0.7709 -2.3810
10283TIP3   OH252339   6.396   0.571  11.916 -0.1285  0.1637 -0.0212
10283TIP3    H152340   6.465   0.614  11.865  0.4094  0.3268  0.8425
10283TIP3    H252341   6.425   0.481  11.926 -0.9780 -0.2715 -1.3237
10284TIP3   OH252342   4.553   3.735  15.152 -0.1931 -0.2287 -0.1323
10284TIP3    H152343   4.508   3.749  15.069  0.0692 -2.8199 -0.7370
10284TIP3    H252344   4.482   3.723  15.216 -0.4025  2.2733  0.1628
10285TIP3   OH252345   1.227   1.320  14.554 -0.3893 -0.3202  0.6046
10285TIP3    H152346   1.225   1.291  14.463 -1.1151 -1.8594  1.0882
10285TIP3    H252347   1.245   1.414  14.550 -0.7650 -0.3203 -1.1261
10286TIP3   OH252348   2.575   5.765  14.720 -0.4572  0.2898 -0.4578
10286TIP3    H152349   2.595   5.693  14.659 -2.3482 -1.2372  0.6823
10286TIP3    H252350   2.623   5.840  14.684  1.9188 -1.6236 -1.4416
10287TIP3   OH252351   1.438   4.457   0.204 -0.1166  0.1946 -0.0894
10287TIP3    H152352   1.372   4.527   0.212 -0.9931 -0.6601  0.2376
10287TIP3    H252353   1.498   4.488   0.136 -0.9498  0.9140 -0.5071
10288TIP3   OH252354   2.263   6.291   5.106  0.1720 -0.1805 -0.0355
10288TIP3    H152355   2.342   6.252   5.067 -0.3916 -2.2009  0.7900
10288TIP3    H252356   2.247   6.370   5.053  1.9281 -0.5006 -1.0942
10289TIP3   OH252357   0.956   0.337  13.891 -0.3845  0.5887 -0.1369
10289TIP3    H152358   0.861   0.341  13.887 -0.4716 -0.0336  1.0656
10289TIP3    H252359   0.983   0.326  13.799 -1.6290 -1.9417 -0.2614
10290TIP3   OH252360   1.140   2.549   6.231  0.1102 -0.4351 -0.1595
10290TIP3    H152361   1.081   2.569   6.303 -1.2898 -2.1483 -0.8042
10290TIP3    H252362   1.184   2.632   6.213 -4.1080  1.6664 -1.5084
10291TIP3   OH252363   3.240   0.658  14.660 -0.5775  0.5579 -0.2997
10291TIP3    H152364   3.318   0.653  14.605  0.8068 -1.6240  1.7812
10291TIP3    H252365   3.263   0.718  14.731 -0.7869 -0.0732  0.3115
10292TIP3   OH252366   0.953   1.700   6.258 -0.5551 -0.2036 -0.1033
10292TIP3    H152367   0.946   1.788   6.294  0.8428  0.5176 -1.5520
10292TIP3    H252368   0.981   1.646   6.333  0.5163  0.9479  0.3468
10293TIP3   OH252369   0.023   0.745  13.796 -0.1385 -0.0349  0.3639
10293TIP3    H152370   0.053   0.654  13.805  2.1989  0.5323 -1.1170
10293TIP3    H252371  -0.069   0.738  13.771 -0.0636 -1.9692  0.5267
10294TIP3   OH252372   0.486   2.687  14.382 -0.4774  0.1815 -0.0291
10294TIP3    H152373   0.429   2.710  14.455 -0.8186  0.5103 -0.3943
10294TIP3    H252374   0.468   2.753  14.315 -1.0700 -0.8040 -0.8755
10295TIP3   OH252375   6.347   5.513  11.762  0.3004  0.1935 -0.4450
10295TIP3    H152376   6.419   5.531  11.702  0.6736  0.9506  0.2211
10295TIP3    H252377   6.302   5.597  11.771  0.4931  0.1838  0.6512
10296TIP3   OH252378   1.847   1.775   0.322  0.1955  0.3321 -0.2305
10296TIP3    H152379   1.804   1.848   0.277 -1.1990 -0.4005 -0.1366
10296TIP3    H252380   1.798   1.765   0.403 -0.1757 -1.2498 -0.6292
10297TIP3   OH252381   4.584   4.062  12.970  0.1043  0.3798  0.1469
10297TIP3    H152382   4.499   4.058  12.926  1.4754 -0.3674 -2.5364
10297TIP3    H252383   4.633   4.129  12.923  0.8688  1.1191  1.9442
10298TIP3   OH252384   6.577   1.676  14.268  0.1624  0.2480  0.3732
10298TIP3    H152385   6.535   1.606  14.219  0.9725  0.4671 -0.6526
10298TIP3    H252386   6.562   1.653  14.360  0.6134 -1.3903  0.0493
10299TIP3   OH252387   0.416   3.006  17.072 -0.5104  0.4487  0.3413
10299TIP3    H152388   0.387   3.010  16.981 -0.3990 -1.4768  0.1986
10299TIP3    H252389   0.337   2.981  17.122  0.2743 -2.3369  0.2616
10300TIP3   OH252390   6.194   0.354   5.101 -0.2414  0.6063 -0.2831
10300TIP3    H152391   6.262   0.411   5.138  0.0282 -0.1741  0.4530
10300TIP3    H252392   6.223   0.337   5.012  0.1730  0.8506 -0.1985
10301TIP3   OH252393   3.759   1.399   6.069 -0.2897  0.2463  0.5119
10301TIP3    H152394   3.843   1.429   6.105  0.2014 -0.2221 -0.2242
10301TIP3    H252395   3.743   1.316   6.114 -1.2126  1.1533  1.9006
10302TIP3   OH252396   3.392   3.254  15.043 -0.0422  0.0401  0.2790
10302TIP3    H152397   3.316   3.298  15.081 -1.7330  0.7563 -3.6144
10302TIP3    H252398   3.467   3.309  15.069 -1.5482  2.5058 -0.4058
10303TIP3   OH252399   5.217   2.236  11.391 -0.1326 -0.5082 -0.2721
10303TIP3    H152400   5.298   2.247  11.342 -1.5822 -1.9261 -3.1144
10303TIP3    H252401   5.209   2.141  11.403 -0.6194 -0.2762  1.3052
10304TIP3   OH252402   6.227   6.733   1.005  0.4227  0.5776 -0.2899
10304TIP3    H152403   6.280   6.672   1.056 -1.2624 -0.7334 -0.0670
10304TIP3    H252404   6.288   6.803   0.982  1.3612  0.9761  3.0791
10305TIP3   OH252405   6.777   3.069  11.004  0.1411 -0.0524  0.2290
10305TIP3    H152406   6.786   3.160  10.977 -2.0643 -0.1166 -0.8127
10305TIP3    H252407   6.845   3.057  11.070  3.7737  0.9214 -3.2020
10306TIP3   OH252408   3.526   1.223   6.027  0.5567 -0.2110 -0.0086
10306TIP3    H152409   3.563   1.258   5.946 -0.2867 -1.9221 -1.1961
10306TIP3    H252410   3.601   1.214   6.086  1.3600  0.1246 -0.9553
10307TIP3   OH252411   2.349   6.357  12.591 -0.3043 -0.3636 -0.3791
10307TIP3    H152412   2.330   6.412  12.516  0.5444 -0.0603 -0.3719
10307TIP3    H252413   2.350   6.268  12.557 -0.7621 -0.2959 -0.5662
10308TIP3   OH252414   4.929   5.514  16.221  0.2143 -0.2320 -0.2353
10308TIP3    H152415   5.025   5.518  16.221  0.1866  0.4942 -0.8775
10308TIP3    H252416   4.902   5.590  16.272 -0.0116 -0.7723  0.4584
10309TIP3   OH252417   3.281   0.554  11.883  0.1181  0.0180  0.0199
10309TIP3    H152418   3.209   0.491  11.878 -0.2427  0.4681 -0.4067
10309TIP3    H252419   3.249   0.631  11.836  1.1436 -0.0387 -0.7762
10310TIP3   OH252420   5.429   0.157  11.178  0.5981 -0.1368  0.2475
10310TIP3    H152421   5.412   0.239  11.131 -2.0442 -1.2023 -0.7208
10310TIP3    H252422   5.450   0.185  11.267  2.2898  1.7189 -0.6860
10311TIP3   OH252423   0.600   4.562   1.174 -0.3166 -0.0131 -0.3902
10311TIP3    H152424   0.636   4.483   1.135 -1.2594  0.5477 -2.4317
10311TIP3    H252425   0.663   4.631   1.153  0.2880 -0.1001  1.0217
10312TIP3   OH252426   1.842   3.228   1.349 -0.2596  0.1837  0.0800
10312TIP3    H152427   1.822   3.196   1.261 -0.4489  1.6419 -0.4213
10312TIP3    H252428   1.773   3.193   1.404  1.1430 -2.6820  0.0844
10313TIP3   OH252429   5.869   2.192   2.847 -0.1644 -0.0336 -0.3987
10313TIP3    H152430   5.920   2.237   2.914 -0.1976  0.0519 -0.4305
10313TIP3    H252431   5.933   2.138   2.800  0.2808  1.6146 -1.7607
10314TIP3   OH252432   0.022   2.997  11.638 -0.0977 -0.1566  0.7281
10314TIP3    H152433   0.072   2.950  11.704 -2.2844 -0.0844  2.4982
10314TIP3    H252434   0.028   3.089  11.663 -0.2035 -0.0350  0.3165
10315TIP3   OH252435   0.434   4.425   4.111 -0.1173 -0.0657  0.4228
10315TIP3    H152436   0.460   4.340   4.146 -0.5292  0.3471  1.7688
10315TIP3    H252437   0.479   4.431   4.027  1.8220 -0.5956  1.3873
10316TIP3   OH252438   4.881   4.376   5.361  0.0822 -0.3738 -0.1205
10316TIP3    H152439   4.952   4.433   5.332  0.2189  0.0632  1.0433
10316TIP3    H252440   4.808   4.399   5.304  0.3524  0.4316 -0.1579
10317TIP3   OH252441   2.588   2.867  15.729 -0.0413 -0.2446 -0.0757
10317TIP3    H152442   2.524   2.872  15.659  0.6678  2.4235 -0.5957
10317TIP3    H252443   2.668   2.836  15.686  0.0733  0.2522 -0.2265
10318TIP3   OH252444   5.924   4.306   1.851  0.5751 -0.1715 -0.2731
10318TIP3    H152445   5.904   4.396   1.825  0.0856 -0.1803  0.0668
10318TIP3    H252446   5.864   4.252   1.799  0.6028 -0.2767 -0.1961
10319TIP3   OH252447   4.451   0.908  14.215  0.3877  0.3206 -0.4587
10319TIP3    H152448   4.464   0.875  14.126  0.4788 -0.6034 -0.1025
10319TIP3    H252449   4.539   0.935  14.243  0.3847  0.4638 -0.5790
10320TIP3   OH252450   1.031   3.741  13.655  0.7926  0.8464  0.2369
10320TIP3    H152451   0.955   3.740  13.597  0.6301  1.5956  0.4388
10320TIP3    H252452   1.060   3.832  13.655  1.3538  0.6704  0.6040
10321TIP3   OH252453   0.103   3.279   1.769 -0.0470 -0.3521 -0.1921
10321TIP3    H152454   0.148   3.208   1.813  0.1948 -0.8167 -1.1832
10321TIP3    H252455   0.015   3.279   1.807  0.6513  0.3146  1.4737
10322TIP3   OH252456   2.846   1.452  13.323  0.4371 -0.1829  0.2231
10322TIP3    H152457   2.897   1.411  13.392  0.2754 -0.5203  0.1466
10322TIP3    H252458   2.765   1.479  13.366 -0.6378 -2.4125 -0.2736
10323TIP3   OH252459   3.787   5.301   2.237 -0.1869  0.0805 -0.0111
10323TIP3    H152460   3.846   5.255   2.177 -2.1088  0.1608 -2.0063
10323TIP3    H252461   3.800   5.394   2.217  1.6088  0.3251  2.0571
10324TIP3   OH252462   6.409   3.142  15.706 -0.3777  0.6119  0.7483
10324TIP3    H152463   6.503   3.124  15.713 -0.8128 -0.8598  3.1265
10324TIP3    H252464   6.392   3.204  15.776 -1.3598  0.1738  0.8964
10325TIP3   OH252465   2.076   2.912  14.274 -0.0336  0.2017 -0.1403
10325TIP3    H152466   2.064   2.974  14.201  0.7061  1.4711  0.7915
10325TIP3    H252467   2.025   2.835  14.249  0.0549  0.6897 -1.9201
10326TIP3   OH252468   4.172   1.916   3.926  0.1631  0.5156  0.2843
10326TIP3    H152469   4.240   1.978   3.950  0.4802  0.6892 -1.0447
10326TIP3    H252470   4.212   1.830   3.939  0.4243  0.6110  0.1028
10327TIP3   OH252471   2.875   5.834  14.633 -0.4026  0.5302 -0.3887
10327TIP3    H152472   2.970   5.830  14.623 -0.0836  0.1653  2.3500
10327TIP3    H252473   2.859   5.800  14.720 -3.1895 -0.6792 -1.3262
10328TIP3   OH252474   1.358   2.466   1.165  0.3779  0.2464 -0.2125
10328TIP3    H152475   1.327   2.417   1.241 -0.4780  0.7709 -0.2156
10328TIP3    H252476   1.303   2.435   1.093  0.3231  0.6853 -0.3576
10329TIP3   OH252477   6.521   4.325   0.140  0.2165 -0.0624  0.7235
10329TIP3    H152478   6.434   4.364   0.146 -0.4670 -1.5263  0.4993
10329TIP3    H252479   6.539   4.319   0.046  1.0473  1.2851  0.7874
10330TIP3   OH252480   4.620   2.705   3.653  0.6383 -0.6337  0.6623
10330TIP3    H152481   4.572   2.658   3.721 -0.8682  0.4296  0.3530
10330TIP3    H252482   4.691   2.645   3.628 -0.8091 -2.4359  0.7761
10331TIP3   OH252483   6.461   2.591   1.760 -0.2985  0.1240 -0.1379
10331TIP3    H152484   6.479   2.602   1.853  0.0892 -1.9793  0.0673
10331TIP3    H252485   6.478   2.677   1.722  0.4423  0.7656  1.5804
10332TIP3   OH252486   6.475   3.591  16.627  0.1845 -0.0399  0.3817
10332TIP3    H152487   6.418   3.536  16.680  0.1019 -0.7860 -0.4586
10332TIP3    H252488   6.533   3.634  16.689  0.4291 -1.2836  1.0311
10333TIP3   OH252489   0.308   2.411  12.079  0.4263  0.1935 -0.0873
10333TIP3    H152490   0.366   2.394  12.153 -0.0239 -2.1274 -0.2295
10333TIP3    H252491   0.366   2.412  12.003  0.9619  3.0774  0.2889
10334TIP3   OH252492   3.531   0.823  16.684 -0.2468 -0.2075  0.2640
10334TIP3    H152493   3.619   0.851  16.710 -0.4526  2.1528 -1.3914
10334TIP3    H252494   3.472   0.878  16.736 -0.6985  0.5601 -1.0452
10335TIP3   OH252495   3.691   2.181  16.751 -0.2462  0.6980 -0.4832
10335TIP3    H152496   3.759   2.180  16.683 -0.5021  1.0626 -0.7458
10335TIP3    H252497   3.616   2.223  16.709 -0.6752  0.1882 -0.2291
10336TIP3   OH252498   1.178   1.588   2.751  0.2833  0.3101  0.4243
10336TIP3    H152499   1.164   1.681   2.735  0.9426  0.0533 -1.7050
10336TIP3    H252500   1.129   1.543   2.682 -0.6992 -0.9560  1.9088
10337TIP3   OH252501   0.539   6.027   2.146  0.1744  0.0665  0.1838
10337TIP3    H152502   0.617   6.062   2.188 -0.3065  0.8043  0.4809
10337TIP3    H252503   0.571   5.961   2.085  1.0623  0.7543 -0.0972
10338TIP3   OH252504   0.502   2.278   5.767  0.5537 -0.1315  0.2457
10338TIP3    H152505   0.412   2.293   5.741  0.8812  2.1231  0.3220
10338TIP3    H252506   0.509   2.316   5.855  2.0209  1.3798 -0.4967
10339TIP3   OH252507   5.297   4.382   1.029 -0.0894  0.0385  0.2091
10339TIP3    H152508   5.247   4.460   1.002  0.8609  1.0875  1.4491
10339TIP3    H252509   5.382   4.416   1.055  0.3201 -1.4234  0.7987
10340TIP3   OH252510   5.165   2.281   2.171  0.0154  0.2463 -0.1841
10340TIP3    H152511   5.164   2.197   2.127 -1.4761 -0.1461  0.5635
10340TIP3    H252512   5.121   2.265   2.255 -0.5457  1.8290 -0.1524
10341TIP3   OH252513   0.848   3.023  14.018  0.7576 -0.0703  0.4062
10341TIP3    H152514   0.874   3.077  14.092 -0.7321 -0.6027  1.3333
10341TIP3    H252515   0.773   3.069  13.980  1.4085  0.1164 -0.7059
10342TIP3   OH252516   5.250   0.045  16.526 -0.2240  0.3798  0.7631
10342TIP3    H152517   5.283   0.133  16.507  0.6123 -0.1013 -0.0165
10342TIP3    H252518   5.321  -0.013  16.502 -1.1486 -0.5775  0.2963
10343TIP3   OH252519   5.751   3.193   2.725  0.5592  0.2475  0.3498
10343TIP3    H152520   5.764   3.288   2.732  1.3194  0.1180  0.7449
10343TIP3    H252521   5.677   3.174   2.782 -0.1950  0.7281 -0.4456
10344TIP3   OH252522   6.731   6.445  13.770 -0.3307 -0.4754 -0.2704
10344TIP3    H152523   6.760   6.533  13.795  0.0923 -0.9611  0.9761
10344TIP3    H252524   6.705   6.404  13.853  0.5642 -1.9261 -0.6843
10345TIP3   OH252525   5.975   4.972   1.895 -0.2118 -0.0070 -0.5762
10345TIP3    H152526   5.955   4.985   1.802 -0.5425  0.1516 -0.4824
10345TIP3    H252527   6.025   5.051   1.920 -1.7133  0.8221 -0.1559
10346TIP3   OH252528   0.239   2.360  16.707 -0.0321  0.1919 -0.2177
10346TIP3    H152529   0.256   2.420  16.635 -2.1338  0.4180 -0.5555
10346TIP3    H252530   0.151   2.326  16.689  0.7032 -2.1825  0.5295
10347TIP3   OH252531   0.088   3.270  15.960 -0.1200 -0.1003  0.3676
10347TIP3    H152532   0.108   3.178  15.946  1.6627  0.3097  0.1417
10347TIP3    H252533  -0.008   3.273  15.967 -0.0861 -2.2568  2.5669
10348TIP3   OH252534   0.085   5.657  13.977 -0.6816 -0.4430  0.1479
10348TIP3    H152535   0.006   5.628  13.933  0.1207 -1.0862 -0.9126
10348TIP3    H252536   0.154   5.647  13.911  0.7574 -2.5736  1.9138
10349TIP3   OH252537   2.621   1.560  13.438 -0.4330  0.3268 -0.2243
10349TIP3    H152538   2.577   1.525  13.515  1.5522  1.2594  1.3646
10349TIP3    H252539   2.554   1.612  13.394 -2.1355 -1.7858 -0.2038
10350TIP3   OH252540   4.316   5.512   4.817  0.1678  0.4626 -0.4893
10350TIP3    H152541   4.275   5.487   4.900  2.1160  1.5425  0.8340
10350TIP3    H252542   4.367   5.435   4.791  0.9356  0.7250  0.2191
10351TIP3   OH252543   3.568   3.304  11.813  1.0932  0.5722  0.4524
10351TIP3    H152544   3.489   3.325  11.863 -1.3253 -1.6115 -2.2535
10351TIP3    H252545   3.593   3.217  11.844  0.1139 -0.3957 -1.3929
10352TIP3   OH252546   4.797   4.269  14.448  0.6903  0.0857 -0.0095
10352TIP3    H152547   4.721   4.235  14.495  1.2493 -0.2875  0.6230
10352TIP3    H252548   4.801   4.217  14.368  1.1142 -0.8523  0.6182
10353TIP3   OH252549   3.449   0.817  12.411 -0.4224 -0.4516 -0.4159
10353TIP3    H152550   3.400   0.861  12.480  1.9647  0.9384  0.4404
10353TIP3    H252551   3.415   0.854  12.330 -1.2883 -0.0421  0.1305
10354TIP3   OH252552   0.083   3.577  16.257  0.2242 -0.5542  0.7340
10354TIP3    H152553   0.074   3.585  16.162  1.2267 -2.4484  0.4412
10354TIP3    H252554   0.147   3.644  16.280 -0.5572  0.3934  0.1801
10355TIP3   OH252555   2.977   3.951  16.339  0.0998  0.2670 -0.4410
10355TIP3    H152556   3.022   4.031  16.310  1.8644  0.1625  1.8995
10355TIP3    H252557   2.918   3.981  16.408  1.5620 -0.5848  1.2036
10356TIP3   OH252558   2.183   5.378  15.863  0.1710 -0.5843  0.4106
10356TIP3    H152559   2.246   5.325  15.814  2.2607  0.7259  1.6085
10356TIP3    H252560   2.165   5.326  15.941 -0.7110 -1.2207 -0.1991
10357TIP3   OH252561   6.573   5.187   1.395 -0.5562 -0.4278 -0.3415
10357TIP3    H152562   6.478   5.182   1.399 -0.5426 -0.6030 -0.2050
10357TIP3    H252563   6.603   5.102   1.429 -0.3564 -0.4729 -0.6303
10358TIP3   OH252564   0.699   5.883  12.511  0.3847  0.4826  0.2644
10358TIP3    H152565   0.745   5.822  12.568 -2.0207 -2.7976 -1.1376
10358TIP3    H252566   0.663   5.949  12.571  1.8286 -0.2724  1.9974
10359TIP3   OH252567   2.789   1.826   1.203  0.4943 -0.4046 -0.4946
10359TIP3    H152568   2.810   1.736   1.178  0.2107 -0.0098 -2.2622
10359TIP3    H252569   2.874   1.868   1.217  0.5814 -1.4522  2.2955
10360TIP3   OH252570   6.777   3.063  11.276 -0.4901 -0.0149 -0.4427
10360TIP3    H152571   6.727   3.116  11.214  0.1610  0.3062 -0.7027
10360TIP3    H252572   6.812   3.126  11.339 -1.4350 -0.3776  0.4605
10361TIP3   OH252573   0.084   4.702   6.435 -0.3647 -0.7960 -0.1987
10361TIP3    H152574   0.172   4.684   6.402 -0.0086 -2.1801  1.4234
10361TIP3    H252575   0.029   4.634   6.396  0.0435 -2.3888  1.8898
10362TIP3   OH252576   4.929   0.706  13.940 -0.0006  1.0479  0.0060
10362TIP3    H152577   4.840   0.726  13.911 -0.3465 -1.1825 -0.6092
10362TIP3    H252578   4.919   0.676  14.030  0.0088  0.1936 -0.2637
10363TIP3   OH252579   0.954   6.788   1.844 -0.2798  0.0032 -0.4901
10363TIP3    H152580   0.990   6.874   1.865  1.7394 -1.1069  0.6300
10363TIP3    H252581   0.996   6.764   1.761  2.8562 -1.9586  1.5712
10364TIP3   OH252582   0.315   5.175  15.960  0.2068 -0.2009 -0.0376
10364TIP3    H152583   0.349   5.264  15.975 -0.1158  0.2960 -2.1215
10364TIP3    H252584   0.226   5.189  15.929 -0.0446 -1.2954  0.1778
10365TIP3   OH252585   1.582   4.321  13.792  0.0279  0.2507  0.4533
10365TIP3    H152586   1.579   4.360  13.705 -0.7650  0.5259  0.6035
10365TIP3    H252587   1.668   4.347  13.826 -0.6536  2.2722  0.7222
10366TIP3   OH252588   2.760   1.861   0.447 -0.2975  0.0893  0.5420
10366TIP3    H152589   2.781   1.866   0.353  0.0696 -0.1032  0.6096
10366TIP3    H252590   2.792   1.775   0.474  0.5228  0.5418  1.0616
10367TIP3   OH252591   3.048   2.961   3.990  0.0471  0.4757  0.6237
10367TIP3    H152592   2.959   2.990   3.968 -0.1030 -1.5263 -1.6631
10367TIP3    H252593   3.040   2.866   3.997  1.7542  0.4026  1.8460
10368TIP3   OH252594   6.313   5.521  14.541  0.0491  0.1790 -0.1991
10368TIP3    H152595   6.402   5.516  14.577 -0.2739 -1.1021  0.4450
10368TIP3    H252596   6.264   5.454  14.588 -0.5288 -1.1677 -2.6184
10369TIP3   OH252597   0.529   2.124   5.446  0.3418 -0.0669  0.6110
10369TIP3    H152598   0.479   2.203   5.425 -0.1327 -0.9879 -1.7977
10369TIP3    H252599   0.492   2.094   5.529 -0.2159  1.6039  0.9896
10370TIP3   OH252600   5.851   2.938  16.960  0.5172  0.8262 -0.6670
10370TIP3    H152601   5.915   2.880  16.917 -0.1989  1.3367 -2.4880
10370TIP3    H252602   5.895   3.023  16.963  0.2485  0.9876 -1.1845
10371TIP3   OH252603   3.294   1.068   1.750 -0.4604 -0.5553  0.1495
10371TIP3    H152604   3.250   0.985   1.767 -0.9868 -0.1265  0.9160
10371TIP3    H252605   3.335   1.057   1.665  1.2898 -2.3954  1.1787
10372TIP3   OH252606   3.958   4.673  11.138 -0.3944  0.0760 -0.2270
10372TIP3    H152607   3.871   4.709  11.123 -0.6679  0.3388  1.9375
10372TIP3    H252608   3.950   4.621  11.218  1.7079  1.1359  0.7127
10373TIP3   OH252609   1.161   6.561  13.705  0.1120  0.4127  0.5913
10373TIP3    H152610   1.147   6.649  13.670  1.0327  0.8371  1.2540
10373TIP3    H252611   1.111   6.559  13.786 -1.7134 -0.4410 -0.5460
10374TIP3   OH252612   6.807   1.808   5.039 -0.0847  0.4602  0.1607
10374TIP3    H152613   6.722   1.819   5.082  0.0981  0.5539  0.4923
10374TIP3    H252614   6.831   1.895   5.010  1.0561  0.8510  2.2208
10375TIP3   OH252615   0.141   6.010   5.590 -0.6586 -0.1980  0.2634
10375TIP3    H152616   0.182   5.958   5.660 -2.5349 -2.1289 -0.0389
10375TIP3    H252617   0.152   5.957   5.511 -0.4636  0.9888 -0.5158
10376TIP3   OH252618   4.510   2.432   2.857 -0.2280 -0.8558  0.4291
10376TIP3    H152619   4.486   2.510   2.807  2.9886 -0.4090 -0.4990
10376TIP3    H252620   4.527   2.365   2.790  5.1107  0.0295  0.7188
10377TIP3   OH252621   3.088   6.023   2.345  0.2034  0.6966  0.0336
10377TIP3    H152622   3.017   5.972   2.308  1.9719 -0.7918 -1.4351
10377TIP3    H252623   3.099   6.097   2.285  1.0212 -0.0318 -0.7387
10378TIP3   OH252624   0.898   1.595   4.784 -0.3548 -0.5352 -0.0249
10378TIP3    H152625   0.825   1.540   4.754 -1.4098 -1.3836  3.9167
10378TIP3    H252626   0.906   1.662   4.716 -3.6820 -1.4337 -1.4101
10379TIP3   OH252627   1.557   1.739  16.346 -0.2417 -0.2993 -0.2186
10379TIP3    H152628   1.600   1.824  16.351 -0.0950 -0.3800 -0.1191
10379TIP3    H252629   1.518   1.727  16.433 -0.4099 -0.2549 -0.2865
10380TIP3   OH252630   3.515   1.318   0.381  0.4536  0.3316 -0.0169
10380TIP3    H152631   3.517   1.396   0.436  0.4150  0.5689 -0.3520
10380TIP3    H252632   3.605   1.287   0.379  0.1383 -0.7736  1.7444
10381TIP3   OH252633   4.177   0.828   4.221 -0.6962 -0.5673  0.3120
10381TIP3    H152634   4.158   0.744   4.179 -0.5194 -1.3685  1.7811
10381TIP3    H252635   4.270   0.842   4.205 -0.5051 -1.1405  0.8726
10382TIP3   OH252636   0.101   2.287   1.604 -0.7264 -0.0231  0.2138
10382TIP3    H152637   0.023   2.330   1.570 -1.1361 -1.0562 -0.1618
10382TIP3    H252638   0.067   2.221   1.665 -0.2622 -1.7775 -1.3726
10383TIP3   OH252639   5.550   3.653  15.971  0.0356 -0.5318 -0.3133
10383TIP3    H152640   5.642   3.627  15.983 -0.7144 -3.9831 -1.5508
10383TIP3    H252641   5.554   3.724  15.907  1.9022  0.1014  0.4513
10384TIP3   OH252642   1.191   5.307   1.617  0.7563 -0.1355  0.6853
10384TIP3    H152643   1.226   5.367   1.683  4.4815 -0.5532 -0.7847
10384TIP3    H252644   1.233   5.223   1.636 -0.4431 -1.0042 -0.4283
10385TIP3   OH252645   3.284   6.141  11.190  0.3552  0.2175  0.1397
10385TIP3    H152646   3.274   6.124  11.284 -1.2524 -2.7062 -0.5007
10385TIP3    H252647   3.353   6.080  11.162 -0.3170 -0.1040 -0.8581
10386TIP3   OH252648   0.867   4.553  13.155  0.4027 -0.4654 -0.0314
10386TIP3    H152649   0.867   4.642  13.188 -3.0970 -0.8841  1.2708
10386TIP3    H252650   0.934   4.508  13.208  0.4222  0.7671  1.0177
10387TIP3   OH252651   3.554   6.007   0.907 -0.4303  0.0105  0.0254
10387TIP3    H152652   3.559   6.101   0.921 -0.2560 -0.0560  0.4010
10387TIP3    H252653   3.600   5.969   0.981 -1.4724 -0.4058  0.4742
10388TIP3   OH252654   4.091   4.337  13.101  0.3056 -0.2235  0.4266
10388TIP3    H152655   4.058   4.279  13.170 -0.8298  0.8224  0.7617
10388TIP3    H252656   4.066   4.425  13.129 -1.3816  0.0881 -1.9929
10389TIP3   OH252657   4.876   1.617  10.750 -0.0610 -0.0587  0.2904
10389TIP3    H152658   4.939   1.546  10.735 -0.4732 -0.3864  0.1008
10389TIP3    H252659   4.908   1.660  10.830  0.8070  0.2293 -0.2052
10390TIP3   OH252660   4.699   4.648   0.222 -0.0632 -0.4092 -0.2229
10390TIP3    H152661   4.685   4.700   0.142  0.6293  0.7795  0.4007
10390TIP3    H252662   4.794   4.651   0.235 -0.0374 -1.7451 -0.1059
10391TIP3   OH252663   1.856   1.879  11.772  0.4652  0.0127  0.0305
10391TIP3    H152664   1.860   1.867  11.677  0.4318 -0.1583  0.0505
10391TIP3    H252665   1.791   1.948  11.785  1.0281  0.5895 -0.1157
10392TIP3   OH252666   0.248   2.702  15.903 -0.7727  0.1643  0.2786
10392TIP3    H152667   0.172   2.731  15.853  0.3418  1.8952 -0.4665
10392TIP3    H252668   0.293   2.783  15.928  2.3565 -0.8620 -1.7549
10393TIP3   OH252669   2.807   4.347  13.737 -0.2948 -0.1420  0.2139
10393TIP3    H152670   2.802   4.435  13.699 -1.4541 -0.4117 -0.2605
10393TIP3    H252671   2.750   4.351  13.814  0.4054 -0.2092  0.7466
10394TIP3   OH252672   3.755   1.968  15.334  0.0328 -0.2152  0.8099
10394TIP3    H152673   3.780   1.897  15.275  0.1837  0.4916 -0.0034
10394TIP3    H252674   3.762   1.931  15.421  2.8620 -0.3990  0.5716
10395TIP3   OH252675   1.926   1.414  10.934 -0.0419 -0.2596 -0.0401
10395TIP3    H152676   1.891   1.329  10.958  1.2816 -0.0668  2.7585
10395TIP3    H252677   2.017   1.396  10.908  0.2570  0.2965  0.6064
10396TIP3   OH252678   3.159   1.598   4.160  0.2024  0.6556 -0.2018
10396TIP3    H152679   3.159   1.504   4.178 -0.1064  0.7638  0.3656
10396TIP3    H252680   3.095   1.609   4.089 -0.6064  0.5907  0.5158
10397TIP3   OH252681   2.546   6.077   1.029  0.0368  0.8102 -0.2100
10397TIP3    H152682   2.526   6.103   1.118 -1.3071 -0.3511 -0.1570
10397TIP3    H252683   2.636   6.046   1.032  0.1303  1.1719  0.6491
10398TIP3   OH252684   6.285   3.486   3.922 -0.1645  0.0891  0.1634
10398TIP3    H152685   6.354   3.517   3.979 -0.8065  1.1299  0.3786
10398TIP3    H252686   6.205   3.494   3.974 -0.5586 -0.3314 -0.3667
10399TIP3   OH252687   4.090   2.474  15.990 -0.3320 -0.0383 -0.4326
10399TIP3    H152688   4.079   2.566  15.966  0.2816  0.8563  2.5207
10399TIP3    H252689   4.183   2.466  16.011 -0.7369 -0.8512  1.1263
10400TIP3   OH252690   3.910   1.198   2.324  0.0392  0.5282  0.3361
10400TIP3    H152691   3.950   1.272   2.370  0.4064 -0.0097  0.8915
10400TIP3    H252692   3.953   1.197   2.239  1.2248 -0.0261  0.9171
10401TIP3   OH252693   2.515   0.760   1.806  0.0151 -0.2071 -0.5173
10401TIP3    H152694   2.561   0.688   1.850  0.4990  0.9278  0.8785
10401TIP3    H252695   2.436   0.773   1.858  1.0873  1.8268  0.6937
10402TIP3   OH252696   6.688   3.106  15.738 -0.1527 -0.5231 -0.3976
10402TIP3    H152697   6.740   3.065  15.669 -0.0610 -2.4552  0.7844
10402TIP3    H252698   6.722   3.068  15.819 -1.3180  0.5408  0.6120
10403TIP3   OH252699   0.537   5.761  11.397 -0.3951  0.3250  0.0475
10403TIP3    H152700   0.445   5.786  11.398 -0.3524  0.5253  2.2999
10403TIP3    H252701   0.537   5.666  11.385 -0.9082  0.2753  0.4379
10404TIP3   OH252702   5.170   4.563  12.571  0.0007  0.2945  0.4898
10404TIP3    H152703   5.119   4.619  12.511 -0.0664 -1.0456 -0.7393
10404TIP3    H252704   5.258   4.600  12.569  0.2412 -0.3340 -1.2361
10405TIP3   OH252705   2.499   2.525  16.360  0.0687 -0.9538  0.1365
10405TIP3    H152706   2.464   2.611  16.339  1.2509 -1.2501 -3.4023
10405TIP3    H252707   2.589   2.541  16.389  0.0429 -0.9451  0.2114
10406TIP3   OH252708   2.275   5.141   3.170  0.0774  0.4108 -0.1290
10406TIP3    H152709   2.197   5.099   3.208  0.5375  0.4464  0.8787
10406TIP3    H252710   2.329   5.067   3.140  0.9204  0.2547  1.7110
10407TIP3   OH252711   2.747   6.241  15.074 -0.3276 -0.7804 -0.7608
10407TIP3    H152712   2.720   6.331  15.055  2.2091  0.0833 -0.4927
10407TIP3    H252713   2.842   6.240  15.056 -0.2171 -3.2536 -0.2335
10408TIP3   OH252714   5.422   3.958  16.922 -0.0351 -0.1696 -0.0428
10408TIP3    H152715   5.444   4.035  16.974  0.5815 -0.4252  0.0786
10408TIP3    H252716   5.481   3.962  16.847  0.3070 -0.7621  0.1931
10409TIP3   OH252717   3.573   0.271  14.723 -0.3504 -0.2650 -0.3159
10409TIP3    H152718   3.664   0.287  14.747 -0.5236 -0.3071  0.3728
10409TIP3    H252719   3.573   0.184  14.684 -0.1469 -0.3876 -0.0444
10410TIP3   OH252720   2.045   6.118  12.896  0.1179 -0.2633 -0.5751
10410TIP3    H152721   2.128   6.074  12.912  0.8676  1.0836 -0.6877
10410TIP3    H252722   2.067   6.212  12.895 -1.1853  0.0505 -1.8382
10411TIP3   OH252723   1.035   1.467   2.561 -0.0813 -0.0052  0.0053
10411TIP3    H152724   1.030   1.500   2.472  1.3651 -0.2159 -0.1639
10411TIP3    H252725   1.056   1.374   2.552 -0.4140 -0.1401  0.5531
10412TIP3   OH252726   3.512   5.576   5.159 -0.2418  0.0473 -0.1054
10412TIP3    H152727   3.588   5.578   5.100 -0.6427 -0.1659 -0.6316
10412TIP3    H252728   3.436   5.578   5.101 -0.6427  0.5983  0.4362
10413TIP3   OH252729   2.538   0.832  12.511  0.2172 -0.1995 -0.5301
10413TIP3    H152730   2.493   0.888  12.574  0.8346 -1.8520  1.4013
10413TIP3    H252731   2.631   0.843  12.530  0.4574 -0.1044 -1.6904
10414TIP3   OH252732   3.306   5.373  11.454 -0.2027  0.3867 -0.4123
10414TIP3    H152733   3.264   5.309  11.398 -1.6338  1.0645 -0.1361
10414TIP3    H252734   3.351   5.433  11.394  2.3740 -1.6735 -0.6139
10415TIP3   OH252735   5.334   1.156  15.785  0.2434 -0.2682 -0.0077
10415TIP3    H152736   5.293   1.177  15.701 -0.6372 -2.1119 -0.0626
10415TIP3    H252737   5.261   1.141  15.844  0.8023  3.1568  1.7294
10416TIP3   OH252738   0.513   6.297   4.222 -0.0648  0.5732 -0.2456
10416TIP3    H152739   0.539   6.387   4.242  0.1720  0.7633 -1.4099
10416TIP3    H252740   0.446   6.305   4.154 -0.6928 -0.0967  0.2736
10417TIP3   OH252741   0.873   2.173  11.806 -0.0518 -0.3463  0.1438
10417TIP3    H152742   0.788   2.167  11.762  0.1103 -0.0312 -0.2132
10417TIP3    H252743   0.927   2.225  11.747  0.1216  0.2164  0.7922
10418TIP3   OH252744   2.071   4.521   3.334  0.4393  0.6111  0.7407
10418TIP3    H152745   2.052   4.608   3.369  2.0945  0.6778  1.5365
10418TIP3    H252746   2.044   4.460   3.402  1.0425  0.6065  0.9825
10419TIP3   OH252747   1.391   5.216   4.142 -0.0375 -0.3107  0.5473
10419TIP3    H152748   1.300   5.186   4.138  0.3877 -1.7318  1.3114
10419TIP3    H252749   1.436   5.150   4.195  1.5758  0.0314 -0.3690
10420TIP3   OH252750   1.516   2.793  17.085 -0.4729 -0.0925  0.6231
10420TIP3    H152751   1.504   2.815  17.177 -1.2822 -2.0101  1.0162
10420TIP3    H252752   1.558   2.707  17.086 -1.0057 -0.3942 -0.7740
10421TIP3   OH252753   1.609   4.877  11.122 -0.0876 -0.2509  0.0895
10421TIP3    H152754   1.620   4.962  11.079 -0.3496  0.2571  1.0132
10421TIP3    H252755   1.516   4.856  11.109 -0.3888  0.3612  1.2419
10422TIP3   OH252756   3.612   2.268  15.431 -0.2854  0.3855 -0.8479
10422TIP3    H152757   3.592   2.326  15.504  0.1956 -2.1389  1.3708
10422TIP3    H252758   3.558   2.300  15.359 -1.5756  2.2667  0.9119
10423TIP3   OH252759   2.543   2.420  16.015 -0.2910 -0.1393  0.8005
10423TIP3    H152760   2.632   2.396  16.039 -0.4878  0.8152  2.6786
10423TIP3    H252761   2.552   2.504  15.969 -0.1165 -0.6458 -0.0822
10424TIP3   OH252762   0.583   4.441  10.720  0.0731  0.4073 -0.7556
10424TIP3    H152763   0.662   4.388  10.709 -0.4373 -0.2137 -1.4292
10424TIP3    H252764   0.513   4.377  10.735  0.0293  1.0035  2.0194
10425TIP3   OH252765   5.904   0.963   0.048  0.0847  0.0437 -0.0378
10425TIP3    H152766   5.947   1.002  -0.028  1.6776 -0.7835  0.4290
10425TIP3    H252767   5.834   1.025   0.069  1.4236  1.7386 -0.4136
10426TIP3   OH252768   4.393   5.145   2.804 -0.4304  0.4115  0.0006
10426TIP3    H152769   4.476   5.166   2.848 -0.3402  0.1557 -0.0484
10426TIP3    H252770   4.332   5.211   2.836 -0.2455  0.5112  0.1517
10427TIP3   OH252771   4.990   1.760  16.307  0.4109  0.0925  1.0541
10427TIP3    H152772   4.936   1.834  16.338  0.7860  0.1469  1.5941
10427TIP3    H252773   5.025   1.722  16.388  1.8835  0.5896  0.6617
10428TIP3   OH252774   1.779   1.250  12.973  0.8289  0.1603 -0.1606
10428TIP3    H152775   1.727   1.314  12.925 -2.1860  0.1844  2.9407
10428TIP3    H252776   1.756   1.166  12.933 -3.0197 -0.0265  2.1770
10429TIP3   OH252777   0.811   4.972   1.166 -0.4162 -0.1905  0.0472
10429TIP3    H152778   0.884   4.964   1.227  0.3188 -1.1156 -0.9262
10429TIP3    H252779   0.845   5.023   1.093 -0.9048 -0.1548 -0.1624
10430TIP3   OH252780   6.364   0.833   0.513 -0.5617 -0.0312 -0.1113
10430TIP3    H152781   6.389   0.834   0.605  0.6253 -1.7432 -0.3823
10430TIP3    H252782   6.325   0.746   0.500  0.8459 -0.4779 -1.5929
10431TIP3   OH252783   3.321   5.838  13.375  0.2896  0.7350 -0.2299
10431TIP3    H152784   3.304   5.820  13.283 -2.9294  0.1951  0.3890
10431TIP3    H252785   3.268   5.915  13.395 -1.0687 -0.6187  1.7059
10432TIP3   OH252786   0.827   6.744  14.436  0.7426 -0.4259 -0.2704
10432TIP3    H152787   0.803   6.785  14.519 -0.8259  0.7768 -1.2819
10432TIP3    H252788   0.826   6.650  14.454  2.5017 -0.0994  1.6029
10433TIP3   OH252789   6.703   1.913  16.565 -0.1967 -0.2400  0.7658
10433TIP3    H152790   6.644   1.987  16.550 -0.8938 -1.1443 -1.0600
10433TIP3    H252791   6.646   1.844  16.599 -0.2371 -1.1411 -1.0788
10434TIP3   OH252792   0.400   4.208  11.880  0.3368 -0.2649 -0.4935
10434TIP3    H152793   0.358   4.283  11.922  1.8793 -0.2934  1.1707
10434TIP3    H252794   0.491   4.213  11.909  0.7515 -2.0276 -1.4456
10435TIP3   OH252795   1.305   5.470  16.333  1.2960 -0.6493  0.2444
10435TIP3    H152796   1.316   5.467  16.428  1.8620  1.0950  0.2374
10435TIP3    H252797   1.393   5.462  16.298  1.0407 -1.8069 -0.1603
10436TIP3   OH252798   5.616   2.400  11.530  0.1412 -0.1158 -0.4327
10436TIP3    H152799   5.691   2.343  11.548 -0.2468 -0.4096  0.2913
10436TIP3    H252800   5.617   2.464  11.602 -1.2719 -1.1367  0.5286
10437TIP3   OH252801   4.630   0.142  15.063  0.4940 -0.2298  0.1675
10437TIP3    H152802   4.652   0.213  15.003 -0.3008  0.1594  0.3240
10437TIP3    H252803   4.538   0.157  15.084  0.4557 -1.0353  0.5739
10438TIP3   OH252804   3.448   1.110  15.049 -0.0629 -0.1615 -0.2670
10438TIP3    H152805   3.430   1.060  14.969  1.0499  0.0121 -0.6352
10438TIP3    H252806   3.390   1.186  15.043 -1.0518 -0.8892 -0.1782
10439TIP3   OH252807   5.741   6.700   1.369  0.0677 -0.0554 -0.1234
10439TIP3    H152808   5.803   6.739   1.308 -1.6589  2.8409 -0.1709
10439TIP3    H252809   5.683   6.647   1.315  0.1080  0.4445 -0.6635
10440TIP3   OH252810   4.146   4.106  16.045 -0.2350  0.4332  0.2863
10440TIP3    H152811   4.136   4.099  15.950  2.2220 -2.9417  0.1951
10440TIP3    H252812   4.213   4.172  16.057  2.2491 -1.8535 -0.5566
10441TIP3   OH252813   6.054   1.269   1.121  0.1537  0.5549 -0.1050
10441TIP3    H152814   6.034   1.237   1.033  0.1684  0.8880 -0.2321
10441TIP3    H252815   5.969   1.296   1.156  0.1780  0.6248 -0.0993
10442TIP3   OH252816   3.390   4.328   2.150 -0.0352  0.7530 -0.4079
10442TIP3    H152817   3.471   4.345   2.101  0.5177  1.0273  0.5894
10442TIP3    H252818   3.322   4.324   2.083  0.5608  2.1129 -1.1181
10443TIP3   OH252819   0.723   2.652  15.020 -0.6385  0.5607 -0.5308
10443TIP3    H152820   0.741   2.723  15.081 -1.7987  0.1345  0.3396
10443TIP3    H252821   0.687   2.695  14.942 -0.8878  0.9678 -0.1910
10444TIP3   OH252822   6.408   6.585  12.951 -0.2722 -0.2321 -0.1366
10444TIP3    H152823   6.407   6.680  12.964  1.0695  0.2098 -2.8342
10444TIP3    H252824   6.318   6.557  12.969 -1.1156  1.8086 -0.9737
10445TIP3   OH252825   5.620   1.765  16.094 -0.0821  0.3679  0.3349
10445TIP3    H152826   5.619   1.800  16.183  0.0501  0.4918  0.2864
10445TIP3    H252827   5.608   1.670  16.106 -4.7272  0.8473  0.2389
10446TIP3   OH252828   1.201   1.993   1.112  0.2091  0.0137 -0.0183
10446TIP3    H152829   1.272   1.941   1.149 -0.7234 -1.8402 -0.7647
10446TIP3    H252830   1.149   2.021   1.188  1.6462  1.2942  0.5202
10447TIP3   OH252831   6.482   0.483   6.605  0.2732  0.8039  0.0755
10447TIP3    H152832   6.446   0.509   6.520  1.4119  2.7058  0.1420
10447TIP3    H252833   6.539   0.408   6.585  1.8909  2.3019 -1.1437
10448TIP3   OH252834   0.397   5.696   4.718  0.0863  1.0286  0.1967
10448TIP3    H152835   0.398   5.747   4.800  1.7120 -1.0362  1.5290
10448TIP3    H252836   0.315   5.647   4.722 -0.0594  1.2805  0.3666
10449TIP3   OH252837   5.198   5.866  14.567 -0.0960 -1.2501 -0.5348
10449TIP3    H152838   5.198   5.960  14.550  0.2889 -1.3579 -1.1278
10449TIP3    H252839   5.258   5.829  14.502  0.3019 -1.8270  0.1441
10450TIP3   OH252840   2.542   0.934  16.876  0.3443 -0.3224 -0.6042
10450TIP3    H152841   2.452   0.957  16.898  0.5375 -1.2227  1.1710
10450TIP3    H252842   2.533   0.861  16.815 -0.1175 -1.1593  0.4530
10451TIP3   OH252843   5.727   0.668   3.329  0.0034  0.1583 -0.1920
10451TIP3    H152844   5.754   0.674   3.237  0.6353 -0.5610 -0.0610
10451TIP3    H252845   5.794   0.718   3.376 -1.5763  2.4884 -0.3342
10452TIP3   OH252846   3.294   1.667  14.455 -0.6870  0.1080 -0.4778
10452TIP3    H152847   3.274   1.623  14.373 -0.5020  0.1615 -0.5514
10452TIP3    H252848   3.208   1.692  14.490 -0.7004  1.2117 -1.2812
10453TIP3   OH252849   5.575   5.463   3.619 -0.7966  0.2742  1.0718
10453TIP3    H152850   5.536   5.550   3.606 -1.0114 -0.0695 -0.8083
10453TIP3    H252851   5.500   5.405   3.630 -0.7709 -0.0499 -0.3166
10454TIP3   OH252852   6.571   2.835  11.795  0.1859 -0.7487 -0.5901
10454TIP3    H152853   6.610   2.906  11.846 -0.7350 -0.7224  0.0866
10454TIP3    H252854   6.621   2.757  11.820 -0.5137 -0.8038  0.6555
10455TIP3   OH252855   4.957   6.089  11.811 -0.6479 -0.1139  0.0616
10455TIP3    H152856   4.967   5.996  11.835  0.2417  0.4257  1.8664
10455TIP3    H252857   4.872   6.114  11.846  0.1113  0.3436  1.6246
10456TIP3   OH252858   5.155   3.477   2.975 -0.2256  0.1460 -0.1760
10456TIP3    H152859   5.211   3.529   2.917 -0.0588 -0.1714 -0.3011
10456TIP3    H252860   5.214   3.445   3.043 -0.5123  0.9024  0.4286
10457TIP3   OH252861   4.202   4.688  12.640  0.4035 -0.3055  0.7255
10457TIP3    H152862   4.217   4.596  12.661  1.6702 -0.2825 -0.0078
10457TIP3    H252863   4.200   4.733  12.724  1.0736 -0.8256  1.0207
10458TIP3   OH252864   3.750   2.767  12.612  0.6110  0.5898 -0.3397
10458TIP3    H152865   3.746   2.862  12.612  1.4120  0.6267 -1.1967
10458TIP3    H252866   3.668   2.739  12.570  0.7905  0.9220 -0.9158
10459TIP3   OH252867   4.349   2.409   2.604  0.2833 -0.3657 -0.1072
10459TIP3    H152868   4.336   2.493   2.560 -0.9777 -0.8668 -0.7335
10459TIP3    H252869   4.406   2.359   2.545 -0.7942 -0.7604 -0.8300
10460TIP3   OH252870   3.293   0.147   4.886  0.5011  0.7098 -0.1999
10460TIP3    H152871   3.235   0.102   4.825  0.5994 -0.0849  0.2771
10460TIP3    H252872   3.381   0.116   4.863  0.4561 -0.2787  0.8927
10461TIP3   OH252873   2.316   2.818  16.379  0.3235 -0.4361  0.3566
10461TIP3    H152874   2.349   2.819  16.289 -0.3633  0.1034  0.1126
10461TIP3    H252875   2.247   2.752  16.378  0.9588 -1.1153  0.7202
10462TIP3   OH252876   6.047   3.734   2.818  0.1492 -0.1169  0.3848
10462TIP3    H152877   6.075   3.708   2.906 -0.7887  0.8628  1.0051
10462TIP3    H252878   5.979   3.671   2.794 -0.3827  0.2739  0.8442
10463TIP3   OH252879   2.475   0.707   5.745 -0.2909 -0.2486  0.4852
10463TIP3    H152880   2.488   0.733   5.836 -1.7857  2.0224  0.1010
10463TIP3    H252881   2.560   0.724   5.704 -0.3962  1.3547  0.8920
10464TIP3   OH252882   6.453   1.004  11.153 -0.5676 -0.8163 -0.4281
10464TIP3    H152883   6.390   0.984  11.085 -1.0216 -1.5270  0.1924
10464TIP3    H252884   6.537   0.976  11.117 -0.8347 -1.3821 -0.6035
10465TIP3   OH252885   3.317   6.768   4.126  0.4137 -0.3833 -0.5818
10465TIP3    H152886   3.399   6.719   4.121  0.8827  0.2689  0.6064
10465TIP3    H252887   3.256   6.708   4.170  1.7008  0.9730  3.2396
10466TIP3   OH252888   1.138   6.290  11.212  0.2721 -0.2601 -0.5850
10466TIP3    H152889   1.136   6.364  11.152  1.3394 -1.1775 -1.7744
10466TIP3    H252890   1.157   6.214  11.157  0.8520 -1.1851  0.8457
10467TIP3   OH252891   3.647   4.289   4.938 -0.6188 -0.7410  0.2879
10467TIP3    H152892   3.614   4.367   4.983 -0.2818 -0.6867  0.4415
10467TIP3    H252893   3.573   4.229   4.937 -0.8970 -0.3956  0.1173
10468TIP3   OH252894   2.186   2.532   1.351  0.5996 -0.2182 -0.4346
10468TIP3    H152895   2.124   2.461   1.365 -0.0375  0.0476 -1.7740
10468TIP3    H252896   2.254   2.494   1.296  1.4054 -0.3846  0.6615
10469TIP3   OH252897   5.428   0.720  14.059 -0.1418  0.4658 -0.5202
10469TIP3    H152898   5.477   0.782  14.006  0.6488  0.0171 -0.3126
10469TIP3    H252899   5.411   0.646  14.000 -0.8617  0.7568 -0.6901
10470TIP3   OH252900   1.331   1.774   2.390  0.3681  0.2020 -0.1614
10470TIP3    H152901   1.342   1.679   2.396 -2.8750 -0.1906  0.6619
10470TIP3    H252902   1.346   1.794   2.297  0.0507 -1.2640 -0.5394
10471TIP3   OH252903   3.036   5.872  11.598 -0.2283  0.4310 -0.2673
10471TIP3    H152904   2.943   5.896  11.602 -0.0158  1.4100 -0.9076
10471TIP3    H252905   3.052   5.855  11.505  0.2884  0.4766 -0.1880
10472TIP3   OH252906   4.338   1.238  15.554  0.2077 -0.1159 -0.4616
10472TIP3    H152907   4.360   1.312  15.610  0.0961  0.9248 -1.7818
10472TIP3    H252908   4.404   1.239  15.485 -0.4608 -0.5630 -1.1168
10473TIP3   OH252909   2.540   0.293   2.961  0.0288 -0.0315  0.1467
10473TIP3    H152910   2.558   0.346   3.038 -1.4275 -0.2226  0.6318
10473TIP3    H252911   2.614   0.232   2.955  1.1509  1.3085  0.2138
10474TIP3   OH252912   5.868   6.308   5.094 -0.0316  0.5130  0.8099
10474TIP3    H152913   5.811   6.231   5.089  1.6492 -0.6638 -0.4805
10474TIP3    H252914   5.927   6.289   5.167  2.6902 -1.0796 -1.6861
10475TIP3   OH252915   0.575   0.126  14.339  0.0904 -0.0831 -0.1088
10475TIP3    H152916   0.648   0.092  14.391 -0.4002 -0.6896  0.1883
10475TIP3    H252917   0.617   0.165  14.262  0.8266  0.9959  0.8282
10476TIP3   OH252918   0.350   0.601  12.943  0.7871 -0.1692 -0.3446
10476TIP3    H152919   0.265   0.560  12.926  0.7868  0.0433 -0.8469
10476TIP3    H252920   0.337   0.694  12.924  1.0542 -0.0900 -0.1470
10477TIP3   OH252921   2.331   5.678   1.734 -0.0081  0.5628  0.7932
10477TIP3    H152922   2.351   5.600   1.787  0.5411  0.3355  0.2518
10477TIP3    H252923   2.415   5.705   1.699 -0.4128  0.5547 -0.1922
10478TIP3   OH252924   2.886   3.638  14.324  0.0291 -0.3082 -0.4102
10478TIP3    H152925   2.840   3.699  14.266 -0.2464  0.7477  0.8782
10478TIP3    H252926   2.935   3.695  14.384  0.9910 -1.3871 -0.1653
10479TIP3   OH252927   0.286   2.802  12.971  0.4451 -0.1922  0.3546
10479TIP3    H152928   0.339   2.741  13.022  2.6823 -0.1471 -1.8282
10479TIP3    H252929   0.291   2.769  12.881 -0.3321  1.8152 -0.4593
10480TIP3   OH252930   3.350   2.113  11.485 -0.3121  0.6935 -0.2602
10480TIP3    H152931   3.307   2.107  11.571 -0.2401 -0.3898 -0.2972
10480TIP3    H252932   3.288   2.072  11.425  0.7100 -0.7778 -0.3317
10481TIP3   OH252933   3.341   5.656  14.764 -0.1324  0.7164 -0.3055
10481TIP3    H152934   3.388   5.656  14.681  0.8258  0.1921  0.2305
10481TIP3    H252935   3.398   5.704  14.824  1.0319 -2.1970  1.0482
10482TIP3   OH252936   2.356   2.499  12.982 -0.5327  0.1524  0.0232
10482TIP3    H152937   2.378   2.547  12.902 -2.8231  0.5613 -0.4024
10482TIP3    H252938   2.380   2.558  13.053 -0.8497  0.8386 -0.4376
10483TIP3   OH252939   0.524   4.309   3.554  0.2031  0.4216  0.2486
10483TIP3    H152940   0.545   4.400   3.531  0.0922  0.2290 -0.6225
10483TIP3    H252941   0.541   4.259   3.474 -0.0389 -0.2782  0.6295
10484TIP3   OH252942   0.619   0.432  15.792 -0.8227  0.4623  0.8104
10484TIP3    H152943   0.674   0.509  15.778 -3.7551  2.1415 -2.2820
10484TIP3    H252944   0.533   0.468  15.815 -2.6905 -1.7044 -2.3223
10485TIP3   OH252945   0.436   2.111   3.234 -0.0687 -0.1889  0.5819
10485TIP3    H152946   0.469   2.046   3.172 -1.1577 -0.0620 -0.1412
10485TIP3    H252947   0.460   2.196   3.196  0.9286 -0.1509  1.2850
10486TIP3   OH252948   1.618   1.974  13.333 -0.0788 -0.0374 -0.2971
10486TIP3    H152949   1.549   2.017  13.384  0.7279 -0.6560  1.3762
10486TIP3    H252950   1.575   1.900  13.292 -0.6232  0.1183 -0.0176
10487TIP3   OH252951   5.578   6.145   6.300  0.3229 -0.2878  0.0213
10487TIP3    H152952   5.495   6.185   6.275  1.1429 -0.0458 -2.4741
10487TIP3    H252953   5.556   6.054   6.320 -0.4367 -0.4124 -1.3560
10488TIP3   OH252954   4.888   5.803   2.954 -0.5186 -0.6036  0.2368
10488TIP3    H152955   4.853   5.892   2.948 -1.5045 -1.0416 -0.6227
10488TIP3    H252956   4.834   5.752   2.894  1.5817 -1.3215 -1.0873
10489TIP3   OH252957   0.499   0.982   5.026  0.1520  0.5406  0.2683
10489TIP3    H152958   0.565   1.020   5.084 -1.5994  1.9827  1.3774
10489TIP3    H252959   0.541   0.903   4.991  2.6896  1.7454  0.4253
10490TIP3   OH252960   0.847   4.174  11.465 -0.0742  0.0053 -0.0002
10490TIP3    H152961   0.755   4.158  11.442 -0.4144 -1.9698  2.4520
10490TIP3    H252962   0.847   4.261  11.503 -0.4578  1.0583 -2.3524
10491TIP3   OH252963   1.918   6.125  13.636 -0.4216  0.7070  0.2161
10491TIP3    H152964   1.824   6.110  13.645 -0.4828  1.1263  0.3062
10491TIP3    H252965   1.959   6.051  13.681 -0.6717 -1.3635 -2.7867
10492TIP3   OH252966   3.079   0.384   2.502 -0.3524 -0.3728  0.6293
10492TIP3    H152967   3.103   0.470   2.535  0.6936 -0.1477 -0.6662
10492TIP3    H252968   3.140   0.368   2.430 -1.0086 -1.8801  0.3834
10493TIP3   OH252969   6.667   0.929  10.998  0.0185  0.3616 -0.2333
10493TIP3    H152970   6.711   0.845  11.008 -1.8186 -0.8476 -1.8482
10493TIP3    H252971   6.709   0.970  10.923 -1.2261 -0.5521 -1.4389
10494TIP3   OH252972   3.958   5.423  11.325  0.0368 -0.1357 -0.5988
10494TIP3    H152973   3.867   5.406  11.348  0.1961  0.5962  0.6853
10494TIP3    H252974   3.954   5.490  11.257 -0.3534  2.2743  1.6965
10495TIP3   OH252975   0.039   3.376  17.139  0.4591 -0.3813  0.9865
10495TIP3    H152976   0.118   3.421  17.170 -0.0572  0.4279  1.1445
10495TIP3    H252977   0.057   3.358  17.046  0.6136  0.2964  0.8788
10496TIP3   OH252978   0.731   3.740   1.767 -0.4974  0.1834 -0.1485
10496TIP3    H152979   0.748   3.833   1.774 -2.0072  0.5357 -0.9616
10496TIP3    H252980   0.779   3.713   1.688  1.3959 -0.1204  1.0511
10497TIP3   OH252981   5.677   6.188  14.843 -0.4576 -0.4183  0.3833
10497TIP3    H152982   5.595   6.161  14.802 -0.3881 -1.2598  0.7932
10497TIP3    H252983   5.692   6.276  14.809 -0.6717 -0.8885 -0.9956
10498TIP3   OH252984   4.594   3.413  14.816 -0.5011  0.0478 -0.6442
10498TIP3    H152985   4.684   3.441  14.804  0.1974 -1.4991  0.8145
10498TIP3    H252986   4.541   3.481  14.774  1.3351  0.9258 -1.5613
10499TIP3   OH252987   2.048   1.046   5.477  0.1478  0.5432  0.8439
10499TIP3    H152988   2.024   1.131   5.515  2.4328  1.7597 -0.3276
10499TIP3    H252989   2.096   1.068   5.398  2.5039 -1.8218  1.5518
10500TIP3   OH252990   4.521   1.215  15.344 -0.1480 -0.2675 -0.1408
10500TIP3    H152991   4.574   1.147  15.302  1.8191 -0.4499  2.5084
10500TIP3    H252992   4.568   1.297  15.325 -1.1731  0.0987 -1.2179
10501TIP3   OH252993   3.648   1.948  15.982  0.4278 -0.2022 -0.2396
10501TIP3    H152994   3.695   1.994  15.912 -0.1163 -1.6550 -1.5852
10501TIP3    H252995   3.711   1.886  16.017  0.6849  0.4933  0.5382
10502TIP3   OH252996   1.702   1.892  12.083 -0.4716  0.0226  0.1126
10502TIP3    H152997   1.772   1.918  12.142 -1.3570 -1.2665  1.7908
10502TIP3    H252998   1.716   1.943  12.003  0.0320  2.7008  1.8743
10503TIP3   OH252999   1.672   5.714   0.542  0.3560  0.1988  0.1948
10503TIP3    H153000   1.638   5.734   0.629  0.8070  0.9552  0.2012
10503TIP3    H253001   1.766   5.727   0.549  0.4667 -0.3473 -0.2451
10504TIP3   OH253002   1.563   0.901   4.517 -0.9775  0.0788 -0.9048
10504TIP3    H153003   1.595   0.812   4.502 -0.5805  0.0920 -0.1337
10504TIP3    H253004   1.572   0.944   4.432  1.3020  0.1618 -0.6476
10505TIP3   OH253005   5.228   6.469  15.468 -1.0161 -0.5867 -0.1216
10505TIP3    H153006   5.203   6.541  15.411 -2.2384 -0.8000  0.1402
10505TIP3    H253007   5.315   6.443  15.436 -1.6236 -0.6216 -1.7924
10506TIP3   OH253008   6.128   5.694   4.257  0.7802  0.5087  0.4743
10506TIP3    H153009   6.185   5.770   4.267  1.3237  0.1850 -0.1812
10506TIP3    H253010   6.087   5.705   4.171  2.4807 -1.0327 -0.5459
10507TIP3   OH253011   3.549   4.349  13.197  0.3042  0.2253  0.0789
10507TIP3    H153012   3.546   4.392  13.282 -2.0555 -3.8443  2.2192
10507TIP3    H253013   3.631   4.299  13.198  0.1101 -0.0959  0.1251
10508TIP3   OH253014   6.597   0.165  14.996 -0.5872  0.0225 -0.1072
10508TIP3    H153015   6.654   0.222  14.944 -1.1167 -0.1302 -0.8551
10508TIP3    H253016   6.518   0.216  15.010 -0.5303 -0.0168  0.3833
10509TIP3   OH253017   3.710   4.796   6.041 -0.1794  0.4784 -0.3287
10509TIP3    H153018   3.693   4.791   6.135 -0.5743  1.0865 -0.3727
10509TIP3    H253019   3.800   4.830   6.035  0.0975 -0.1995 -0.1652
10510TIP3   OH253020   1.074   3.947   1.383  0.5262  0.1200 -0.6928
10510TIP3    H153021   1.122   3.890   1.323  0.1130  2.4992 -3.3941
10510TIP3    H253022   1.040   4.017   1.328 -3.2359  0.3386  1.6876
10511TIP3   OH253023   4.075   6.718  13.485 -0.2037 -0.1028 -0.6880
10511TIP3    H153024   4.116   6.702  13.400 -0.5233 -0.8124 -0.7182
10511TIP3    H253025   4.143   6.699  13.549 -0.0859  0.0227 -0.7772
10512TIP3   OH253026   6.700   1.585   0.255 -0.2855 -0.1740 -0.3654
10512TIP3    H153027   6.643   1.565   0.181 -0.3328 -0.6759 -0.1956
10512TIP3    H253028   6.787   1.558   0.227 -0.2957 -0.3224 -0.2532
10513TIP3   OH253029   4.045   1.806   1.146  0.2446  0.3779  0.2799
10513TIP3    H153030   4.007   1.772   1.227 -0.1449  1.2337  0.4635
10513TIP3    H253031   3.970   1.844   1.099  0.8980  2.3292  0.7761
10514TIP3   OH253032   3.843   6.436  13.331 -0.3416  0.4533  0.0082
10514TIP3    H153033   3.798   6.468  13.409  1.0400 -0.7065  1.3094
10514TIP3    H253034   3.822   6.343  13.327 -0.3398  0.4904 -0.9666
10515TIP3   OH253035   4.850   6.794  16.739 -0.3180  0.2106 -0.0581
10515TIP3    H153036   4.769   6.745  16.752 -0.8885  0.6942 -1.6300
10515TIP3    H253037   4.887   6.759  16.658 -0.5896  2.1278 -1.0595
10516TIP3   OH253038   6.329   5.472  11.077 -0.0832  0.0548  0.0366
10516TIP3    H153039   6.328   5.551  11.024  2.0125 -0.2220 -0.4410
10516TIP3    H253040   6.331   5.400  11.014  0.5634 -0.3178  0.4742
10517TIP3   OH253041   1.771   4.563  15.948 -0.0066 -0.3013  0.3214
10517TIP3    H153042   1.762   4.647  15.901  0.4844 -0.1640  0.4674
10517TIP3    H253043   1.715   4.573  16.025  0.5220  0.1232  0.6524
10518TIP3   OH253044   2.838   3.852   1.038 -0.1980  0.0879 -0.2075
10518TIP3    H153045   2.818   3.930   1.089  1.3076  0.7406 -0.5583
10518TIP3    H253046   2.846   3.884   0.948  1.3602 -0.2764 -0.2237
10519TIP3   OH253047   5.236   0.785  11.447  0.0688  1.1048  0.5903
10519TIP3    H153048   5.285   0.727  11.389 -0.1178 -0.0979  1.6291
10519TIP3    H253049   5.296   0.859  11.463  0.7718  0.6174  0.2436
10520TIP3   OH253050   5.039   5.582  13.752 -0.3019 -0.0272  0.4442
10520TIP3    H153051   5.124   5.572  13.794 -0.7449  2.3414  1.9603
10520TIP3    H253052   5.053   5.650  13.686 -1.3546  1.4094  1.6873
10521TIP3   OH253053   4.837   0.316   2.114 -0.2612  0.2155 -0.1620
10521TIP3    H153054   4.758   0.262   2.121 -0.5098  0.4523 -1.0874
10521TIP3    H253055   4.883   0.301   2.196 -1.8024  0.9326  0.8530
10522TIP3   OH253056   0.497   5.979  15.294 -0.1130 -0.0113 -0.4792
10522TIP3    H153057   0.583   5.943  15.313 -1.4298 -1.7218  2.5748
10522TIP3    H253058   0.471   5.937  15.212 -0.0660 -3.3026  1.1220
10523TIP3   OH253059   4.720   4.917   2.890  0.5585 -0.2415 -0.0663
10523TIP3    H153060   4.814   4.935   2.898  0.3086  1.5185 -0.8169
10523TIP3    H253061   4.682   4.949   2.971  0.2286  1.8374 -1.0254
10524TIP3   OH253062   1.140   3.797  16.046  0.0803  0.2637 -0.4481
10524TIP3    H153063   1.189   3.733  16.098  0.6536 -0.2055 -1.5406
10524TIP3    H253064   1.176   3.788  15.958 -1.7308  0.1606 -1.2032
10525TIP3   OH253065   1.227   5.166  12.203  0.2460  0.7863  0.3965
10525TIP3    H153066   1.152   5.107  12.207 -0.8581  2.0891 -0.3733
10525TIP3    H253067   1.257   5.162  12.112  1.9157 -0.6602  0.9769
10526TIP3   OH253068   4.539   6.746  10.811 -0.5993 -0.2455 -0.2343
10526TIP3    H153069   4.506   6.804  10.743 -0.5699 -0.8818 -0.7912
10526TIP3    H253070   4.473   6.751  10.881  0.8058  2.6687  0.9364
10527TIP3   OH253071   1.440   0.763  15.007  0.1193  0.6977 -0.1359
10527TIP3    H153072   1.366   0.728  15.057  1.6846 -0.7945  1.1783
10527TIP3    H253073   1.517   0.740  15.059  1.6150  1.1490 -2.1101
10528TIP3   OH253074   1.389   5.303   4.912 -0.1177  0.2285 -0.2677
10528TIP3    H153075   1.374   5.396   4.898 -1.0204  0.0006 -0.8756
10528TIP3    H253076   1.301   5.267   4.925  0.1309 -0.7277 -1.2127
10529TIP3   OH253077   1.812   1.378   2.723 -0.5033  0.3950  0.0124
10529TIP3    H153078   1.729   1.363   2.767 -1.4252  2.6317 -0.8719
10529TIP3    H253079   1.872   1.314   2.761 -2.0690  0.1946  2.2392
10530TIP3   OH253080   3.202   3.842  10.439  0.1353 -0.3974  0.6222
10530TIP3    H153081   3.214   3.933  10.464 -0.1004 -0.6533  1.6695
10530TIP3    H253082   3.288   3.801  10.453 -0.1519 -0.6746  1.5773
10531TIP3   OH253083   3.419   5.433  17.259  0.1074  0.1920 -0.3481
10531TIP3    H153084   3.348   5.377  17.291  0.6545  0.0337  0.6124
10531TIP3    H253085   3.389   5.522  17.276  1.5018  0.1045  3.2141
10532TIP3   OH253086   5.624   0.219  15.354 -0.6740 -0.0742  0.3180
10532TIP3    H153087   5.703   0.175  15.324  0.8430 -0.0938  4.0744
10532TIP3    H253088   5.559   0.200  15.287  2.4522 -0.0817 -2.8493
10533TIP3   OH253089   3.423   6.525   0.798  0.2647 -0.3941  0.4741
10533TIP3    H153090   3.506   6.520   0.752  0.5343 -1.2745  1.0422
10533TIP3    H253091   3.361   6.559   0.733  0.4149 -2.5117 -0.8489
10534TIP3   OH253092   0.126   0.322   1.821  0.1588 -0.4527  0.1915
10534TIP3    H153093   0.063   0.255   1.845 -0.1672 -0.0836  0.3746
10534TIP3    H253094   0.120   0.388   1.890 -0.0451  0.1129 -0.3537
10535TIP3   OH253095   1.328   3.193   5.934 -0.0931 -0.0567  0.0408
10535TIP3    H153096   1.298   3.243   6.011  0.3112  1.3704 -0.7057
10535TIP3    H253097   1.413   3.232   5.913 -0.0544 -0.6684 -0.9294
10536TIP3   OH253098   1.949   1.955   2.115 -0.0475  0.0634  0.1179
10536TIP3    H153099   1.865   1.911   2.128 -0.2253  0.4346  0.2202
10536TIP3    H253100   1.929   2.048   2.116  0.2888  0.1479 -0.3927
10537TIP3   OH253101   3.970   4.435  11.615 -0.0439 -0.4447  0.0460
10537TIP3    H153102   4.015   4.357  11.648 -0.5493 -0.0214  1.7847
10537TIP3    H253103   3.910   4.459  11.685 -0.9854  0.6338 -1.1018
10538TIP3   OH253104   0.670   4.267  11.860  0.1843  0.5261  0.2302
10538TIP3    H153105   0.666   4.329  11.788 -3.3095 -0.4759 -0.5589
10538TIP3    H253106   0.754   4.222  11.849  0.3592  1.4013 -2.3675
10539TIP3   OH253107   4.368   0.536   1.001 -0.2644 -0.0814  0.0045
10539TIP3    H153108   4.340   0.468   0.938  0.0785 -1.9724  1.8362
10539TIP3    H253109   4.389   0.487   1.081  1.7680  2.0204  0.8010
10540TIP3   OH253110   5.532   2.573   2.829 -0.7644  0.1123  0.2172
10540TIP3    H153111   5.626   2.568   2.841 -0.7144 -0.6854 -0.4581
10540TIP3    H253112   5.511   2.499   2.771 -2.1022 -1.0434  2.1266
10541TIP3   OH253113   5.494   3.265   0.182  0.3295  0.5677  0.4577
10541TIP3    H153114   5.510   3.171   0.177 -1.2959  0.2967  0.0913
10541TIP3    H253115   5.413   3.273   0.233 -0.5008  1.6715 -1.0001
10542TIP3   OH253116   0.975   0.074  15.926  0.3727 -1.1235  0.0970
10542TIP3    H153117   0.974  -0.018  15.951  4.6672 -1.4363 -0.5165
10542TIP3    H253118   0.900   0.112  15.972 -0.3430 -4.5153  1.9126
10543TIP3   OH253119   6.281   0.738  16.985 -0.1957  0.2062 -0.4629
10543TIP3    H153120   6.270   0.689  16.903 -0.4761  1.8494 -1.4120
10543TIP3    H253121   6.194   0.771  17.005  0.1105  0.8184 -0.1467
10544TIP3   OH253122   4.832   1.022   0.312 -0.0053  0.0451  0.4581
10544TIP3    H153123   4.769   1.029   0.240 -0.4263 -1.8428  0.6351
10544TIP3    H253124   4.911   1.066   0.279 -0.2882 -0.5446 -1.0366
10545TIP3   OH253125   2.674   4.753  16.450 -0.0625  0.1214  0.1320
10545TIP3    H153126   2.741   4.687  16.470  0.1230  0.3019  0.0982
10545TIP3    H253127   2.591   4.709  16.472  0.1584  0.4507  1.6636
10546TIP3   OH253128   1.407   2.073   2.671  0.6543 -0.0072 -0.3531
10546TIP3    H153129   1.435   1.982   2.659  0.8775 -0.1645  1.2211
10546TIP3    H253130   1.348   2.071   2.746 -0.5495  0.9310 -1.2486
10547TIP3   OH253131   0.011   1.824   1.933  0.1033  0.2735 -0.2027
10547TIP3    H153132  -0.033   1.822   2.017 -1.5056  1.6589 -0.9951
10547TIP3    H253133   0.103   1.839   1.954 -0.1703 -0.1640  1.3209
10548TIP3   OH253134   5.918   3.090  15.481 -0.2180  0.6629  0.1312
10548TIP3    H153135   5.891   3.101  15.390  0.2246 -1.0076 -0.2255
10548TIP3    H253136   6.014   3.100  15.479 -0.1335 -0.0758  0.2921
10549TIP3   OH253137   5.067   1.430  10.741  0.0164 -0.2187 -0.1313
10549TIP3    H153138   5.015   1.355  10.714  1.2768 -1.1886  0.1015
10549TIP3    H253139   5.154   1.414  10.704 -0.0146  1.7301 -1.1379
10550TIP3   OH253140   6.488   1.252   1.202 -0.2077 -0.1248  0.4844
10550TIP3    H153141   6.430   1.325   1.222  0.5181  0.5096  0.2712
10550TIP3    H253142   6.481   1.194   1.279 -1.3770 -0.2253  0.3116
10551TIP3   OH253143   0.261   4.991  10.740 -0.0768  0.4630  0.6293
10551TIP3    H153144   0.228   4.982  10.829 -0.5922 -0.6133  0.3465
10551TIP3    H253145   0.356   4.991  10.749 -0.0938 -1.2515  1.0663
10552TIP3   OH253146   3.157   1.286   4.672  0.2340  0.0762  0.1142
10552TIP3    H153147   3.141   1.232   4.749  2.1481 -0.1363  0.4024
10552TIP3    H253148   3.224   1.349   4.701  1.5467 -0.5061 -1.5737
10553TIP3   OH253149   6.559   3.971  11.546  0.1021 -0.3810  0.0198
10553TIP3    H153150   6.570   4.061  11.579 -0.0137 -0.8673  1.4529
10553TIP3    H253151   6.615   3.966  11.470  3.5550 -0.3967  2.4498
10554TIP3   OH253152   1.870   1.592  11.519 -0.2714 -0.1057  0.3527
10554TIP3    H153153   1.952   1.633  11.546 -0.3489 -0.2393  0.7838
10554TIP3    H253154   1.896   1.533  11.448 -0.0814  0.2809  0.0982
10555TIP3   OH253155   0.076   3.501   2.814 -0.1218  0.2883 -0.3638
10555TIP3    H153156   0.089   3.486   2.720 -1.6725  1.3578 -0.7741
10555TIP3    H253157   0.004   3.441   2.838  2.2194 -2.1581  0.8287
10556TIP3   OH253158   6.094   6.674   2.389  0.0837 -0.7456  0.4987
10556TIP3    H153159   6.013   6.624   2.388  0.3357 -1.1543 -0.2002
10556TIP3    H253160   6.087   6.732   2.314 -1.0599  1.6893  2.4305
10557TIP3   OH253161   5.947   0.419  16.313 -0.1755  0.4687 -0.5822
10557TIP3    H153162   5.877   0.383  16.367 -0.4454  0.8686 -0.6645
10557TIP3    H253163   5.929   0.386  16.224 -1.4659  2.3083 -1.0127
10558TIP3   OH253164   5.179   3.607   0.446 -0.6316  0.8916  0.5521
10558TIP3    H153165   5.148   3.622   0.356  1.3964  3.4251  0.2378
10558TIP3    H253166   5.193   3.695   0.482  6.8224  0.0734  0.4250
10559TIP3   OH253167   5.321   5.798  15.075 -0.4258 -0.6495  0.2883
10559TIP3    H153168   5.351   5.814  15.164 -2.0203 -0.7352  0.8533
10559TIP3    H253169   5.247   5.739  15.085  0.3641 -1.9279 -1.2149
10560TIP3   OH253170   5.726   2.851   2.088  0.3935  0.4535 -0.0464
10560TIP3    H153171   5.780   2.929   2.082  0.4545  0.6381  2.3795
10560TIP3    H253172   5.748   2.813   2.173 -0.8329 -1.3034 -0.4853
10561TIP3   OH253173   4.845   0.211  11.973  0.5630  0.1682  0.1496
10561TIP3    H153174   4.883   0.169  12.050 -1.4945  0.9311  1.6298
10561TIP3    H253175   4.914   0.269  11.941  1.9431 -1.2052  0.5593
10562TIP3   OH253176   5.240   5.229   0.017 -0.5012  0.6026 -0.0383
10562TIP3    H153177   5.297   5.246   0.092 -0.8846  2.2365 -0.0893
10562TIP3    H253178   5.151   5.237   0.053 -0.6835  1.4062 -0.6641
10563TIP3   OH253179   3.900   0.138   0.152 -0.2693 -0.2381 -0.6111
10563TIP3    H153180   3.890   0.212   0.094  0.1683  0.3916  0.1038
10563TIP3    H253181   3.992   0.113   0.144  0.0887  0.6097  0.6956
10564TIP3   OH253182   2.302   5.786   4.086  0.3633 -0.2059 -0.1504
10564TIP3    H153183   2.396   5.783   4.105  0.2450  0.1553  0.4657
10564TIP3    H253184   2.287   5.707   4.033  0.8976 -0.5879  0.2545
10565TIP3   OH253185   6.081   0.402   1.625  0.4271 -0.1026  0.0644
10565TIP3    H153186   6.105   0.469   1.688 -1.0970  1.7357 -1.2605
10565TIP3    H253187   6.137   0.418   1.549 -1.2737  0.9024 -0.9998
10566TIP3   OH253188   0.143   2.974  13.304 -0.2383 -0.2962 -0.0818
10566TIP3    H153189   0.124   2.882  13.319  0.7131 -0.3104  1.1163
10566TIP3    H253190   0.130   2.986  13.210 -0.3166 -1.6622 -0.2570
10567TIP3   OH253191   4.985   5.739   1.319  0.0195  0.4484  0.5079
10567TIP3    H153192   5.033   5.680   1.378  1.2880  1.6502  0.7178
10567TIP3    H253193   4.910   5.688   1.290  0.3994 -0.8255  1.6910
10568TIP3   OH253194   6.451   0.487   1.164 -0.5239  0.4745  0.2059
10568TIP3    H153195   6.488   0.510   1.079 -1.0526 -0.5407 -0.3105
10568TIP3    H253196   6.516   0.517   1.228 -0.5781  2.1232 -0.4971
10569TIP3   OH253197   2.762   5.244   4.887  0.6803 -0.5236 -0.1985
10569TIP3    H153198   2.821   5.253   4.812 -0.4130  0.3610 -0.9572
10569TIP3    H253199   2.696   5.181   4.859 -0.3411  0.6034 -0.3806
10570TIP3   OH253200   4.338   6.074   3.488  0.8659 -0.5353  0.2702
10570TIP3    H153201   4.265   6.038   3.538 -0.3714  1.2740 -0.1931
10570TIP3    H253202   4.396   6.111   3.554  0.5195 -0.4575  0.5322
10571TIP3   OH253203   2.602   3.181  11.453 -0.1160 -0.7358 -0.1738
10571TIP3    H153204   2.538   3.209  11.387 -1.3810 -1.2009  0.8353
10571TIP3    H253205   2.569   3.218  11.535  0.5870 -1.5100  0.4578
10572TIP3   OH253206   4.172   3.335   0.271 -0.5035 -0.0500  0.6496
10572TIP3    H153207   4.169   3.428   0.295  1.9875  0.3732 -0.5164
10572TIP3    H253208   4.123   3.330   0.189 -0.3014  0.2957  0.5072
10573TIP3   OH253209   5.961   1.786  15.681 -0.3461  0.3664  0.1917
10573TIP3    H153210   5.999   1.798  15.594 -0.8832 -0.9498 -0.2303
10573TIP3    H253211   5.894   1.719  15.669 -0.3864  0.1389  1.6293
10574TIP3   OH253212   5.341   1.947  11.092 -0.2836 -0.0080 -0.8024
10574TIP3    H153213   5.412   1.888  11.113  1.4419  1.8549 -1.2353
10574TIP3    H253214   5.384   2.028  11.065 -2.5657  1.6357  0.3035
10575TIP3   OH253215   0.808   3.900  11.375  0.0249  0.1652  0.2856
10575TIP3    H153216   0.813   3.845  11.454 -0.1335 -0.7244 -0.3241
10575TIP3    H253217   0.834   3.987  11.406  0.2814 -0.2416  1.2580
10576TIP3   OH253218   6.454   3.634   4.087  0.4428 -0.4951 -0.4311
10576TIP3    H153219   6.539   3.661   4.122 -0.0410  0.3167  0.1211
10576TIP3    H253220   6.390   3.667   4.150 -0.2814 -1.2249 -0.7702
10577TIP3   OH253221   4.392   2.756   0.737 -0.5605 -0.0839 -0.0379
10577TIP3    H153222   4.397   2.836   0.789 -1.0849 -0.2723  0.3057
10577TIP3    H253223   4.331   2.777   0.667 -2.4432 -0.8835  1.3247
10578TIP3   OH253224   4.492   1.609   3.571  0.3943 -0.2859  0.5507
10578TIP3    H153225   4.534   1.635   3.489 -2.6964  2.1284 -0.3310
10578TIP3    H253226   4.472   1.516   3.559  2.3357 -0.6256 -0.3376
10579TIP3   OH253227   2.272   5.477  16.264  0.4133  0.7136 -0.1013
10579TIP3    H153228   2.365   5.487  16.246  0.0006  2.3876 -1.4249
10579TIP3    H253229   2.253   5.540  16.333  0.3852 -0.1445  0.6952
10580TIP3   OH253230   1.184   0.555  14.255 -0.3341 -0.0752  0.2330
10580TIP3    H153231   1.102   0.507  14.265  0.9027 -2.5075 -0.9396
10580TIP3    H253232   1.188   0.611  14.333 -2.8841 -0.1902  0.5134
10581TIP3   OH253233   1.146   4.749  11.542  0.1060  0.5930  0.2156
10581TIP3    H153234   1.184   4.801  11.613 -0.0961  0.2876  0.5531
10581TIP3    H253235   1.220   4.703  11.503  0.3187  1.3251 -0.2435
10582TIP3   OH253236   3.129   4.353   3.836  0.3759 -0.1508  0.2261
10582TIP3    H153237   3.176   4.333   3.916  0.1631  2.0127  0.9417
10582TIP3    H253238   3.080   4.433   3.857 -0.5842 -0.2133 -1.6871
10583TIP3   OH253239   1.186   4.785   3.762  0.0519  0.7276 -0.0910
10583TIP3    H153240   1.116   4.722   3.775  1.5926 -1.0984 -0.4510
10583TIP3    H253241   1.159   4.861   3.813 -1.5139 -0.4516  0.8995
10584TIP3   OH253242   2.402   0.508   4.171 -0.4351  0.1064 -0.2950
10584TIP3    H153243   2.336   0.452   4.212 -0.7838  0.0660 -0.9071
10584TIP3    H253244   2.452   0.448   4.115 -1.1973  0.5071 -1.4281
10585TIP3   OH253245   4.962   3.646  12.283  0.1788  0.1803  0.1717
10585TIP3    H153246   4.983   3.556  12.257 -0.4051 -0.4420  1.7692
10585TIP3    H253247   4.920   3.637  12.368 -1.7799  1.8189 -0.5818
10586TIP3   OH253248   0.029   1.035   2.399  0.2078 -0.0900  0.1771
10586TIP3    H153249   0.016   1.070   2.311 -1.9986  2.1460  1.3486
10586TIP3    H253250  -0.043   0.973   2.411 -0.3376  0.6894  0.9401
10587TIP3   OH253251   1.886   6.443   3.430  0.0557 -0.0511  0.5455
10587TIP3    H153252   1.903   6.510   3.364 -0.6247  0.6459  1.0652
10587TIP3    H253253   1.790   6.439   3.436  0.1055  0.2072  1.7872
10588TIP3   OH253254   0.767   3.541  14.931  0.3226 -0.4248  0.1673
10588TIP3    H153255   0.704   3.611  14.913  0.4677 -0.1144  0.8278
10588TIP3    H253256   0.751   3.476  14.863  0.4836  0.4562 -0.7339
10589TIP3   OH253257   3.750   3.937   0.272  0.2067  0.3940  0.0706
10589TIP3    H153258   3.716   3.861   0.226  0.3585  0.0112  0.5839
10589TIP3    H253259   3.752   3.911   0.364 -3.2436  2.2669  0.7779
10590TIP3   OH253260   5.883   6.690   4.285  0.3695  0.2843 -0.5865
10590TIP3    H153261   5.813   6.630   4.259 -0.3804 -0.1680  2.2850
10590TIP3    H253262   5.843   6.777   4.281 -0.1258  0.1010  0.2220
10591TIP3   OH253263   1.668   3.376   0.493 -0.0076 -0.0620 -0.4447
10591TIP3    H153264   1.663   3.379   0.397  1.3829 -2.9829 -0.6619
10591TIP3    H253265   1.602   3.313   0.518  1.4107 -1.2863  0.2942
10592TIP3   OH253266   4.016   2.523   6.151 -0.7854  0.3597  0.5368
10592TIP3    H153267   3.933   2.476   6.162 -1.3403  1.3339  0.5677
10592TIP3    H253268   3.992   2.605   6.108 -0.0746  1.4156  2.0905
10593TIP3   OH253269   4.189   4.370  16.687  0.0500 -0.6968 -0.0794
10593TIP3    H153270   4.208   4.284  16.650  1.1267  0.0673 -1.4014
10593TIP3    H253271   4.193   4.429  16.612 -1.8458  0.3497  0.6131
10594TIP3   OH253272   2.603   5.275   0.547 -0.2678  0.1434 -0.0352
10594TIP3    H153273   2.509   5.284   0.532 -0.4379  0.0642  0.9633
10594TIP3    H253274   2.642   5.342   0.491 -0.7955 -0.9829 -1.7941
10595TIP3   OH253275   6.724   3.783   4.588  0.2713  0.6988  0.1177
10595TIP3    H153276   6.796   3.819   4.641  0.4090  0.3731  0.1544
10595TIP3    H253277   6.687   3.713   4.642  0.5847  0.1821 -0.3260
10596TIP3   OH253278   1.678   1.608  14.194 -0.0011  0.1543  0.3966
10596TIP3    H153279   1.690   1.514  14.180 -1.6102 -0.0817  0.4278
10596TIP3    H253280   1.740   1.631  14.262 -1.0849 -1.3436  1.9365
10597TIP3   OH253281   5.768   1.628  11.713 -0.3070  0.3495 -0.4267
10597TIP3    H153282   5.716   1.565  11.763 -0.6549  0.4141 -0.7064
10597TIP3    H253283   5.854   1.627  11.755 -0.0428 -0.9694 -0.9764
10598TIP3   OH253284   3.786   4.311  16.524  0.0641 -0.1492 -0.9077
10598TIP3    H153285   3.800   4.299  16.431 -0.3133 -2.1098 -0.7338
10598TIP3    H253286   3.802   4.224  16.562  1.3595  0.8846  0.9843
10599TIP3   OH253287   5.110   6.210   1.368  0.1737  0.1174  0.2184
10599TIP3    H153288   5.105   6.119   1.339  0.7977  0.1704 -0.0602
10599TIP3    H253289   5.064   6.259   1.300  0.1581  0.0560  0.1837
10600TIP3   OH253290   2.672   4.299   2.246  0.2454 -0.2996 -0.0210
10600TIP3    H153291   2.688   4.215   2.289  1.8211 -0.6689 -1.2675
10600TIP3    H253292   2.737   4.303   2.176  0.2959  2.0377  0.1137
10601TIP3   OH253293   6.491   3.103  13.601  0.0184  0.4046  0.6516
10601TIP3    H153294   6.410   3.053  13.596  1.0268 -1.0755 -1.2120
10601TIP3    H253295   6.482   3.171  13.535 -0.2844  1.1475  1.4398
10602TIP3   OH253296   6.778   3.716  13.667 -0.3012 -0.0610  0.6664
10602TIP3    H153297   6.800   3.763  13.587 -1.6549  1.0417  0.9085
10602TIP3    H253298   6.853   3.729  13.725  1.6231 -2.6833 -1.1804
10603TIP3   OH253299   0.627   1.690  13.916  0.1803  0.4525 -0.0347
10603TIP3    H153300   0.646   1.763  13.858  0.7675  0.7953  0.5773
10603TIP3    H253301   0.582   1.626  13.861  1.3769  0.4588 -1.0484
10604TIP3   OH253302   5.206   1.849  12.071 -0.6715 -0.5594  0.0049
10604TIP3    H153303   5.147   1.793  12.121 -0.7930  0.2322  0.7526
10604TIP3    H253304   5.283   1.795  12.055 -0.4259 -0.6654  1.4706
10605TIP3   OH253305   4.101   6.346  15.274 -0.6376  0.1244  0.0486
10605TIP3    H153306   4.112   6.430  15.229  1.7887 -0.8481 -1.2480
10605TIP3    H253307   4.186   6.329  15.315 -1.2853 -1.4261  0.7893
10606TIP3   OH253308   4.827   5.809  14.117 -0.0208 -0.1198 -0.1054
10606TIP3    H153309   4.741   5.769  14.106  0.3916 -1.1019  0.1266
10606TIP3    H253310   4.888   5.735  14.117  1.1915  0.7900 -3.7120
10607TIP3   OH253311   5.349   0.517  15.906  0.3965 -0.2399 -0.7085
10607TIP3    H153312   5.401   0.534  15.984 -1.4808  1.0735  0.2945
10607TIP3    H253313   5.388   0.572  15.838  0.5349  0.4727 -0.0512
10608TIP3   OH253314   6.662   0.129   0.522  0.1719  0.8439 -0.0662
10608TIP3    H153315   6.709   0.187   0.581 -1.5765  1.6508  0.5646
10608TIP3    H253316   6.675   0.166   0.435  0.7620  1.0012  0.0873
10609TIP3   OH253317   5.776   2.806  11.982 -0.0669  0.4128 -0.0597
10609TIP3    H153318   5.828   2.763  12.051 -1.9373 -1.3059  0.3303
10609TIP3    H253319   5.799   2.759  11.902 -1.0218 -0.3368  0.1108
10610TIP3   OH253320   4.627   0.337  12.120 -0.1143 -0.5946  0.4585
10610TIP3    H153321   4.572   0.362  12.046  1.3245 -0.6151 -0.6538
10610TIP3    H253322   4.701   0.292  12.079  0.2004 -1.5004  1.9964
10611TIP3   OH253323   5.154   4.024   4.890 -0.7444 -0.8542  0.3866
10611TIP3    H153324   5.096   4.100   4.889 -0.7871 -0.8714  1.3444
10611TIP3    H253325   5.242   4.061   4.876 -0.7464 -0.6022  1.0024
10612TIP3   OH253326   5.587   5.878  14.289 -0.4451 -0.3297 -0.0921
10612TIP3    H153327   5.628   5.946  14.343 -1.6668 -0.7490  1.3974
10612TIP3    H253328   5.655   5.811  14.281  0.4729  0.6484 -0.8621
10613TIP3   OH253329   4.391   2.307   3.104 -0.5228 -0.4114 -0.2120
10613TIP3    H153330   4.448   2.375   3.068 -0.3053 -1.6364 -2.3389
10613TIP3    H253331   4.317   2.354   3.142  1.5013  1.1723  1.8724
10614TIP3   OH253332   1.433   3.170   1.338  0.2036  0.1022 -0.1424
10614TIP3    H153333   1.472   3.252   1.309  1.9846 -0.2705  1.1132
10614TIP3    H253334   1.437   3.174   1.433 -1.4250 -0.6413 -0.0255
10615TIP3   OH253335   0.085   6.664  13.881  0.5973 -0.0200  0.0411
10615TIP3    H153336   0.151   6.691  13.817  2.2719 -0.8358  1.3846
10615TIP3    H253337   0.119   6.583  13.917 -1.5439 -0.8652  0.2269
10616TIP3   OH253338   0.835   4.885  14.021 -0.2304  0.0300  0.4731
10616TIP3    H153339   0.833   4.840  13.937 -0.5515 -1.7226  1.3907
10616TIP3    H253340   0.743   4.905  14.040 -0.0163  1.9452 -0.3551
10617TIP3   OH253341   5.482   1.416  13.365 -0.0536 -0.2419 -0.1074
10617TIP3    H153342   5.521   1.494  13.326 -1.4111  0.2800 -0.4426
10617TIP3    H253343   5.390   1.438  13.376 -0.4019 -1.7104  0.0257
10618TIP3   OH253344   4.955   1.863   5.235 -0.2506  0.9232 -0.1431
10618TIP3    H153345   4.869   1.903   5.251  0.2868  2.0643 -0.0522
10618TIP3    H253346   4.943   1.771   5.255 -1.3652  1.1475  0.2359
10619TIP3   OH253347   4.943   4.447  17.212  0.0439 -0.0005  0.4140
10619TIP3    H153348   5.022   4.393  17.204  0.0635 -0.3950  3.0037
10619TIP3    H253349   4.960   4.505  17.286 -1.5155  0.9488  0.0563
10620TIP3   OH253350   2.195   3.007  16.574 -0.4629  0.2589 -0.3240
10620TIP3    H153351   2.268   2.967  16.527 -1.0731 -1.8007  0.4063
10620TIP3    H253352   2.236   3.056  16.645  0.2528 -0.2864 -0.3519
10621TIP3   OH253353   4.728   4.360  11.958  0.4311 -0.4235  0.2668
10621TIP3    H153354   4.665   4.430  11.975  1.4564  0.4127  0.6783
10621TIP3    H253355   4.800   4.378  12.019  0.9427 -1.5177 -0.0202
10622TIP3   OH253356   3.180   0.533  15.553 -0.2600 -0.1186  0.3106
10622TIP3    H153357   3.249   0.474  15.525 -0.1922 -0.0717  0.3762
10622TIP3    H253358   3.213   0.620  15.532 -0.3299 -0.1004  0.2759
10623TIP3   OH253359   5.964   1.825  13.460  0.8329 -0.1447  0.2645
10623TIP3    H153360   6.054   1.854  13.442  0.4472  1.7070  1.1326
10623TIP3    H253361   5.909   1.895  13.425 -0.2457 -0.9427  0.3429
10624TIP3   OH253362   6.275   1.626   4.860 -0.6935 -0.2025 -0.1304
10624TIP3    H153363   6.209   1.631   4.791 -1.0076 -0.1496  0.1680
10624TIP3    H253364   6.231   1.661   4.937  0.4392  2.0500 -0.4746
10625TIP3   OH253365   3.561   3.524  11.630  0.6727 -0.1627  0.1514
10625TIP3    H153366   3.562   3.462  11.703 -0.3012  1.1603  1.3291
10625TIP3    H253367   3.497   3.590  11.656  0.2044  0.2610 -1.9817
10626TIP3   OH253368   0.809   4.771  16.752  0.3304  0.0534 -0.3593
10626TIP3    H153369   0.714   4.753  16.750  0.3338  0.0985 -1.4526
10626TIP3    H253370   0.831   4.773  16.845 -0.5193 -1.1716 -0.1210
10627TIP3   OH253371   2.275   2.619   5.399  0.4895  0.1124 -0.6952
10627TIP3    H153372   2.323   2.672   5.336 -1.3251 -0.2798 -2.4683
10627TIP3    H253373   2.222   2.560   5.345 -0.3237 -0.9400  1.2135
10628TIP3   OH253374   1.717   0.952  16.359  0.0796  0.1305  0.2278
10628TIP3    H153375   1.793   0.918  16.313  0.4454 -0.5975  1.3462
10628TIP3    H253376   1.645   0.893  16.335 -0.0027  0.4654 -0.3563
10629TIP3   OH253377   2.413   5.026   3.422  0.3355 -0.0199  0.1144
10629TIP3    H153378   2.456   5.111   3.423 -0.6650  0.6084 -3.0405
10629TIP3    H253379   2.343   5.033   3.486 -1.1793  2.3530 -1.7400
10630TIP3   OH253380   4.447   1.408   6.136  0.3723  0.3102 -0.7606
10630TIP3    H153381   4.504   1.391   6.212  0.1745 -1.3583 -0.9487
10630TIP3    H253382   4.479   1.348   6.069 -1.1334 -0.1376 -1.1073
10631TIP3   OH253383   0.862   5.447  12.821  0.3173 -0.1855 -0.5347
10631TIP3    H153384   0.918   5.520  12.797 -1.0110  1.3104  0.7955
10631TIP3    H253385   0.790   5.487  12.870  2.2291 -2.8377  4.8538
10632TIP3   OH253386   4.634   5.116  12.030  0.2559 -0.3776 -0.3681
10632TIP3    H153387   4.574   5.042  12.022  0.2498 -0.4735  0.4733
10632TIP3    H253388   4.708   5.093  11.974  0.7202 -1.4973  0.6709
10633TIP3   OH253389   2.286   0.418   2.821 -0.1948 -0.7297  0.1544
10633TIP3    H153390   2.261   0.491   2.764 -2.8452 -1.4602  0.2805
10633TIP3    H253391   2.364   0.447   2.866  0.0030  1.1944 -1.3744
10634TIP3   OH253392   5.396   5.723  12.178 -0.1568  0.1009  0.4022
10634TIP3    H153393   5.330   5.771  12.228 -0.2687  0.1655  0.1918
10634TIP3    H253394   5.423   5.652  12.237 -1.1272 -0.5239  0.1225
10635TIP3   OH253395   3.967   5.673   4.919 -0.4333 -0.0918  0.4686
10635TIP3    H153396   3.953   5.761   4.955 -1.8522  0.9949 -2.5445
10635TIP3    H253397   3.973   5.687   4.824  3.3577 -2.7851  0.1948
10636TIP3   OH253398   5.921   5.750   6.559  0.5769  0.0914 -0.5381
10636TIP3    H153399   5.912   5.727   6.466 -1.4520  1.3275 -0.6672
10636TIP3    H253400   5.858   5.820   6.573  0.5499 -0.3770  1.9121
10637TIP3   OH253401   3.533   5.535   2.872  0.2024  0.5792  0.0199
10637TIP3    H153402   3.515   5.541   2.966  0.1520 -2.1211  0.2170
10637TIP3    H253403   3.613   5.481   2.867 -1.6224 -2.0901 -1.5895
10638TIP3   OH253404   4.706   1.057  15.213  0.2920 -0.1153  0.0045
10638TIP3    H153405   4.714   0.996  15.140  0.1587  0.6024 -0.6230
10638TIP3    H253406   4.728   1.006  15.291 -2.1831 -1.5960 -0.2236
10639TIP3   OH253407   1.716   0.829  15.753  0.4219  0.2935 -0.0003
10639TIP3    H153408   1.697   0.916  15.787  1.4190 -0.0582  1.4804
10639TIP3    H253409   1.811   0.822  15.753  0.3396 -0.9982  0.4207
10640TIP3   OH253410   5.517   5.610  15.202 -1.0681  0.3425  0.4747
10640TIP3    H153411   5.538   5.527  15.159  1.8873  0.5276  1.4380
10640TIP3    H253412   5.559   5.676  15.148  2.2255  0.6172  3.2435
10641TIP3   OH253413   0.021   6.210   1.281 -0.0980  0.3596  0.3770
10641TIP3    H153414   0.016   6.179   1.371  0.2431 -1.2867 -0.1527
10641TIP3    H253415  -0.069   6.203   1.248 -0.2790  1.2399  0.6701
10642TIP3   OH253416   1.106   6.715   1.510 -0.1549 -0.5293  0.1575
10642TIP3    H153417   1.130   6.775   1.439 -0.0926 -1.3696 -0.5368
10642TIP3    H253418   1.169   6.735   1.580  1.6685 -1.6918 -1.0982
10643TIP3   OH253419   3.452   2.423   0.120 -0.1170 -0.1885  0.0190
10643TIP3    H153420   3.420   2.336   0.141  0.6018 -0.5306 -0.2709
10643TIP3    H253421   3.381   2.464   0.071  0.1807 -1.2216 -1.3050
10644TIP3   OH253422   5.025   1.019   5.784  0.1364 -0.2480 -0.3815
10644TIP3    H153423   5.082   0.963   5.732 -1.3419 -1.8139 -0.3448
10644TIP3    H253424   5.048   0.999   5.875  0.3371 -0.0128 -0.3790
10645TIP3   OH253425   4.520   6.669  11.406 -0.4224  0.3831 -0.8529
10645TIP3    H153426   4.575   6.647  11.332 -0.2893  1.2852 -1.0279
10645TIP3    H253427   4.561   6.626  11.481  0.0613  0.3822 -1.1189
10646TIP3   OH253428   6.235   6.124  16.979  0.0416  0.1889 -0.4598
10646TIP3    H153429   6.258   6.157  16.892 -0.2301  1.5002 -0.0519
10646TIP3    H253430   6.317   6.127  17.028 -0.1159  0.8773 -0.2329
10647TIP3   OH253431   4.171   4.496   1.355 -0.1565  0.5252 -0.1406
10647TIP3    H153432   4.225   4.437   1.302  0.5172  1.4391 -0.4908
10647TIP3    H253433   4.181   4.463   1.445  0.1404  0.0472 -0.3475
10648TIP3   OH253434   4.747   2.236   5.328 -0.5689  0.2268  0.5515
10648TIP3    H153435   4.745   2.140   5.334  1.2436  0.0931 -0.4209
10648TIP3    H253436   4.676   2.265   5.385 -1.5764 -1.7182  0.3403
10649TIP3   OH253437   2.512   1.684   4.081 -0.1575  0.0364  0.7660
10649TIP3    H153438   2.544   1.769   4.112  0.1431  0.0148  0.5196
10649TIP3    H253439   2.420   1.681   4.107  0.0024  0.1703  1.3343
10650TIP3   OH253440   0.580   5.603  16.953 -0.2886 -0.0363  0.6058
10650TIP3    H153441   0.586   5.581  16.860 -0.5218 -0.4632  0.6874
10650TIP3    H253442   0.577   5.518  16.997  0.1023  0.1643  1.0194
10651TIP3   OH253443   6.051   4.568   1.183  0.0563  0.1657  0.4735
10651TIP3    H153444   6.089   4.532   1.263  0.2650  0.0036  0.3020
10651TIP3    H253445   5.982   4.507   1.159  0.7197 -0.3883 -0.0793
10652TIP3   OH253446   0.219   2.255   5.074 -0.3684 -0.0078 -0.5839
10652TIP3    H153447   0.312   2.258   5.052 -1.0484  0.0544 -3.7532
10652TIP3    H253448   0.186   2.342   5.053 -1.2759 -0.2516 -0.2145
10653TIP3   OH253449   6.788   2.050   4.912 -0.7846  0.3934 -0.0921
10653TIP3    H153450   6.743   2.001   4.843 -1.9943  1.7086 -0.2601
10653TIP3    H253451   6.870   2.079   4.871 -0.8557 -0.0069 -0.5258
10654TIP3   OH253452   3.673   3.620  10.558 -0.0001  0.2055 -0.4179
10654TIP3    H153453   3.649   3.527  10.562 -2.6444  0.9092  1.6367
10654TIP3    H253454   3.596   3.663  10.522  0.8695  1.7139 -0.5047
10655TIP3   OH253455   6.520   2.270   1.889  0.1824 -0.1070 -0.1611
10655TIP3    H153456   6.466   2.229   1.821  1.5808 -0.6490 -0.9499
10655TIP3    H253457   6.521   2.205   1.960  1.3914 -0.9353 -0.9235
10656TIP3   OH253458   3.280   0.193   1.722 -0.0003  0.2036 -0.2914
10656TIP3    H153459   3.278   0.235   1.808 -3.1238  0.0127 -0.1955
10656TIP3    H253460   3.223   0.116   1.732 -1.1588  0.7028 -2.7256
10657TIP3   OH253461   3.401   2.442   6.271 -0.0214 -0.0057 -0.2103
10657TIP3    H153462   3.410   2.451   6.365  0.4931  0.6225 -0.3144
10657TIP3    H253463   3.441   2.357   6.250  0.5724  0.2198  0.0328
10658TIP3   OH253464   0.767   6.427  13.669  0.2295 -0.4633 -0.1868
10658TIP3    H153465   0.819   6.372  13.728  0.0528  0.7315  1.1252
10658TIP3    H253466   0.687   6.446  13.719  0.7225  1.7871 -0.2152
10659TIP3   OH253467   1.891   1.562  15.148  0.2104  0.3143  0.0598
10659TIP3    H153468   1.886   1.657  15.154 -0.4057  0.3664 -1.0706
10659TIP3    H253469   1.900   1.532  15.238 -0.6450  1.3868  0.5137
10660TIP3   OH253470   0.734   1.897   4.513  0.5582  0.4512  0.4743
10660TIP3    H153471   0.684   1.828   4.556 -0.1975  0.2558 -0.7189
10660TIP3    H253472   0.804   1.851   4.467  1.2432  0.6448  1.3070
10661TIP3   OH253473   5.441   2.046   0.310 -0.9760 -0.8318  0.1630
10661TIP3    H153474   5.391   2.126   0.326 -1.4654 -0.9825 -0.5659
10661TIP3    H253475   5.412   1.986   0.379 -2.5416 -1.2419 -0.8188
10662TIP3   OH253476   5.718   0.809   1.242  0.3288  0.1517 -0.2719
10662TIP3    H153477   5.660   0.863   1.296 -0.7700  0.7106 -1.9604
10662TIP3    H253478   5.659   0.762   1.183  1.4856 -0.4952 -0.9374
10663TIP3   OH253479   2.746   6.804   2.292 -0.0051  0.4008  0.5365
10663TIP3    H153480   2.746   6.807   2.197 -1.1238  0.3579  0.5290
10663TIP3    H253481   2.752   6.896   2.319  0.9361  0.3789  0.4416
10664TIP3   OH253482   0.827   2.727   4.766  0.2110  0.0461  0.0240
10664TIP3    H153483   0.754   2.699   4.822 -0.6796  0.2466 -1.0241
10664TIP3    H253484   0.786   2.782   4.700  0.9748 -1.6653 -1.9256
10665TIP3   OH253485   5.121   2.124  14.304 -0.6028  0.2552  0.1363
10665TIP3    H153486   5.084   2.037  14.289  0.2638  0.1397 -1.4303
10665TIP3    H253487   5.074   2.181  14.242 -0.1425  0.6271  0.1221
10666TIP3   OH253488   6.245   4.241  13.142  0.1571  0.0522 -0.0586
10666TIP3    H153489   6.326   4.278  13.107 -0.5489  0.8125 -0.9378
10666TIP3    H253490   6.186   4.238  13.066 -0.1691 -1.8393  0.2406
10667TIP3   OH253491   6.560   4.642  15.745  0.4307 -0.4545  0.0506
10667TIP3    H153492   6.525   4.556  15.721  1.5546 -0.5405 -1.3440
10667TIP3    H253493   6.599   4.675  15.664  0.9526  0.9021  0.8451
10668TIP3   OH253494   6.316   3.477   0.705 -0.0384  0.0305 -0.4133
10668TIP3    H153495   6.398   3.528   0.707 -0.4543  0.6905  0.3306
10668TIP3    H253496   6.286   3.479   0.796 -1.8377  1.3464 -1.0059
10669TIP3   OH253497   1.527   5.589   1.614 -0.3302  0.0804  0.0259
10669TIP3    H153498   1.570   5.506   1.632  1.0327  0.7345 -0.1332
10669TIP3    H253499   1.561   5.648   1.682  1.4851  1.4408 -2.0299
10670TIP3   OH253500   4.623   5.650  16.547  0.0404  0.0944  0.2407
10670TIP3    H153501   4.591   5.724  16.495 -1.6149 -0.2642  0.7173
10670TIP3    H253502   4.550   5.629  16.605  0.9656 -1.1109  0.9821
10671TIP3   OH253503   4.803   6.299   2.829 -0.3875 -0.3539 -0.2322
10671TIP3    H153504   4.868   6.346   2.881 -0.8867 -0.1941  0.2550
10671TIP3    H253505   4.791   6.352   2.751  0.2333 -0.4992 -0.4292
10672TIP3   OH253506   1.523   6.160   0.935  0.3665 -0.6118 -0.1499
10672TIP3    H153507   1.494   6.204   1.015 -0.9116  1.7633 -1.8606
10672TIP3    H253508   1.472   6.079   0.933 -1.9216  0.7757 -0.0950
10673TIP3   OH253509   2.346   6.095  12.522 -0.5370  0.1691  0.2714
10673TIP3    H153510   2.401   6.017  12.524 -1.3242 -0.3884  0.3613
10673TIP3    H253511   2.257   6.061  12.513 -0.8439  1.0738 -0.1180
10674TIP3   OH253512   5.091   3.253   1.200  0.0399 -0.6866 -0.3956
10674TIP3    H153513   5.126   3.174   1.240 -0.2907 -0.4704  0.3391
10674TIP3    H253514   4.998   3.234   1.185 -0.0421 -0.4376 -0.2140
10675TIP3   OH253515   5.558   1.378  17.189 -0.4222  0.1570  0.0945
10675TIP3    H153516   5.509   1.297  17.173 -0.4329  0.2247 -0.2209
10675TIP3    H253517   5.646   1.359  17.154 -0.8464  0.8026 -1.3456
10676TIP3   OH253518   3.543   6.121  16.365 -0.8850 -0.1976 -0.3895
10676TIP3    H153519   3.600   6.075  16.427 -1.0067 -0.4504 -0.4664
10676TIP3    H253520   3.568   6.213  16.373  0.8267 -0.5187 -1.7778
10677TIP3   OH253521   3.459   1.500   6.215  0.3306  0.0536 -0.7418
10677TIP3    H153522   3.497   1.448   6.286 -2.0758 -0.3971  0.2788
10677TIP3    H253523   3.448   1.438   6.143  2.0022  0.3169 -1.2383
10678TIP3   OH253524   6.744   5.096   2.925 -0.0038  0.6757  0.5913
10678TIP3    H153525   6.772   5.127   2.839 -0.6012 -0.5766 -0.0740
10678TIP3    H253526   6.651   5.077   2.914  0.3910 -1.5408  0.8984
10679TIP3   OH253527   6.329   6.423  15.894  0.0444 -0.0537 -0.1019
10679TIP3    H153528   6.267   6.495  15.893  1.1573  0.9133 -0.8470
10679TIP3    H253529   6.414   6.463  15.914  0.8145 -1.0202 -1.2728
10680TIP3   OH253530   2.327   6.197   4.742  0.3234 -0.3055  0.4861
10680TIP3    H153531   2.336   6.174   4.835 -1.6486 -1.6669  0.3697
10680TIP3    H253532   2.294   6.118   4.700  0.6503  0.4718 -1.2910
10681TIP3   OH253533   5.228   0.059   5.417  0.0045  0.1754 -0.1363
10681TIP3    H153534   5.154   0.047   5.357  1.1454 -1.3082 -1.2834
10681TIP3    H253535   5.199   0.127   5.477 -1.5814  0.9474 -1.7261
10682TIP3   OH253536   5.169   1.402  12.140  0.1903  0.0567  0.2625
10682TIP3    H153537   5.114   1.409  12.218  1.1001 -0.9980  1.0017
10682TIP3    H253538   5.169   1.491  12.103  1.1548  0.9918  2.3995
10683TIP3   OH253539   2.503   0.462  12.224 -0.5268  0.2847  0.1351
10683TIP3    H153540   2.409   0.465  12.206 -0.1758  1.0768 -1.5893
10683TIP3    H253541   2.545   0.459  12.138  1.0380 -0.0646  0.8842
10684TIP3   OH253542   6.571   2.149   2.854 -0.1066 -0.4031  0.5292
10684TIP3    H153543   6.544   2.142   2.762  0.0318  0.0877  0.4513
10684TIP3    H253544   6.517   2.084   2.899  0.7463 -1.5621 -0.0943
10685TIP3   OH253545   4.578   0.376   4.475 -0.1017 -0.1262  0.2578
10685TIP3    H153546   4.536   0.411   4.553 -0.6473  1.6207 -0.8036
10685TIP3    H253547   4.672   0.378   4.496 -0.2425  0.3458  0.8445
10686TIP3   OH253548   5.918   4.487   6.483 -0.4601  0.3837  0.7533
10686TIP3    H153549   6.000   4.469   6.530  0.9946  1.0357 -1.4919
10686TIP3    H253550   5.910   4.414   6.421 -0.6804  1.2320 -0.2196
10687TIP3   OH253551   0.654   1.647   3.092  0.4374  0.2335 -0.2543
10687TIP3    H153552   0.577   1.699   3.112  0.7800  0.4128  0.6141
10687TIP3    H253553   0.631   1.558   3.117 -0.3791 -0.1660 -2.3369
10688TIP3   OH253554   1.501   3.916   3.577  0.6347  0.0667 -0.3138
10688TIP3    H153555   1.539   4.002   3.590 -1.2518  0.8709  0.1094
10688TIP3    H253556   1.501   3.875   3.663  0.4206  0.1347 -0.2794
10689TIP3   OH253557   2.448   1.497   5.905 -0.2176  0.1409  0.1866
10689TIP3    H153558   2.454   1.506   6.000  0.0662  1.7511  0.0343
10689TIP3    H253559   2.537   1.509   5.874 -0.6545  2.0434 -0.4416
10690TIP3   OH253560   2.415   1.145  11.088  0.0870  0.0446 -0.7373
10690TIP3    H153561   2.442   1.154  11.179 -1.8644  3.7461 -0.3876
10690TIP3    H253562   2.455   1.220  11.043 -1.5553  0.0887 -2.2076
10691TIP3   OH253563   6.722   1.856   0.257 -0.0856 -0.2790 -0.0227
10691TIP3    H153564   6.721   1.761   0.271  0.1499 -0.3451 -0.4491
10691TIP3    H253565   6.808   1.874   0.218 -1.0397 -0.2259 -2.1792
10692TIP3   OH253566   6.011   6.455   4.122  0.2274  0.2108  0.1787
10692TIP3    H153567   5.916   6.458   4.116  0.2330  0.1478  0.0615
10692TIP3    H253568   6.033   6.524   4.184  0.0311 -0.4419  0.9861
10693TIP3   OH253569   0.403   4.850   3.514  0.8809 -0.4623  0.4890
10693TIP3    H153570   0.489   4.872   3.550  1.0967  0.9310 -0.8369
10693TIP3    H253571   0.399   4.898   3.432 -1.7466  0.6359  1.2133
10694TIP3   OH253572   6.740   4.344  16.483 -0.2545 -0.2432 -0.0679
10694TIP3    H153573   6.826   4.383  16.470 -0.6767  0.3296 -1.1732
10694TIP3    H253574   6.741   4.265  16.429 -0.6395  0.0969 -0.5793
10695TIP3   OH253575   3.681   4.360   1.030  0.2392 -0.3216 -0.2287
10695TIP3    H153576   3.706   4.275   1.065 -2.5061 -1.6690 -1.3615
10695TIP3    H253577   3.620   4.396   1.095 -1.1957 -0.7315 -1.3256
10696TIP3   OH253578   1.680   2.487  15.403 -0.2590 -0.4666 -0.3773
10696TIP3    H153579   1.602   2.465  15.454 -0.9213  1.3838 -0.5593
10696TIP3    H253580   1.650   2.482  15.312 -0.4631  1.2451 -0.4215
10697TIP3   OH253581   3.751   5.296  12.517  0.0135  0.4816  0.8450
10697TIP3    H153582   3.687   5.337  12.575 -1.3448 -0.0267 -0.2814
10697TIP3    H253583   3.811   5.250  12.576  1.0246  3.2645  2.0889
10698TIP3   OH253584   3.983   4.790   0.501  0.2852  1.3061  0.4636
10698TIP3    H153585   3.905   4.753   0.542  0.7151 -1.0718 -0.7758
10698TIP3    H253586   3.982   4.755   0.412  1.5380  3.1204 -0.2923
10699TIP3   OH253587   6.014   4.037   2.255  0.5195 -0.4844  0.5281
10699TIP3    H153588   6.018   4.107   2.320 -0.3141 -0.1862  0.2652
10699TIP3    H253589   6.058   4.072   2.178 -0.0457 -0.1808  0.3393
10700TIP3   OH253590   3.013   1.766   1.859 -0.1757 -0.2672 -0.2000
10700TIP3    H153591   2.942   1.831   1.859 -0.4054 -0.5092  1.1900
10700TIP3    H253592   2.979   1.694   1.911  1.8226  0.4421  2.1708
10701TIP3   OH253593   4.138   4.493  15.626  0.4859  0.0779 -0.0210
10701TIP3    H153594   4.054   4.525  15.659  0.6003  0.7047 -0.3349
10701TIP3    H253595   4.200   4.515  15.695  0.7441  1.4830 -0.6830
10702TIP3   OH253596   3.558   4.309  10.742  0.2996  0.3557  0.1782
10702TIP3    H153597   3.521   4.379  10.688  1.1170  0.6280 -0.0250
10702TIP3    H253598   3.617   4.261  10.684  0.5115  0.1111  0.5888
10703TIP3   OH253599   5.123   4.844  16.663 -0.0770  0.0587  0.1741
10703TIP3    H153600   5.030   4.849  16.639  0.0619 -1.8803 -0.9222
10703TIP3    H253601   5.136   4.751  16.685  0.9460  0.8479  3.1428
10704TIP3   OH253602   1.495   5.886   1.335 -0.1905  0.1428  0.0292
10704TIP3    H153603   1.563   5.952   1.343 -0.4779  0.5784 -1.0619
10704TIP3    H253604   1.414   5.931   1.362 -0.3072  0.1010 -0.2465
10705TIP3   OH253605   6.267   3.445   3.477 -0.2099  0.6697  0.4505
10705TIP3    H153606   6.344   3.476   3.524  1.0277  0.6658 -1.5403
10705TIP3    H253607   6.299   3.372   3.423 -1.9201 -0.3511  0.7687
10706TIP3   OH253608   6.218   2.976   4.717 -0.1432 -0.1271 -0.4273
10706TIP3    H153609   6.145   2.959   4.658 -0.4244  0.0602 -0.1366
10706TIP3    H253610   6.221   3.072   4.724 -0.7539 -0.1844  0.6658
10707TIP3   OH253611   5.782   2.194  15.785  0.4045  0.1988  0.7814
10707TIP3    H153612   5.734   2.121  15.823 -1.0926  2.3771  3.2804
10707TIP3    H253613   5.716   2.262  15.770  1.9949  1.6583  0.1118
10708TIP3   OH253614   3.629   6.775  13.795 -0.0153 -0.1087 -0.2509
10708TIP3    H153615   3.603   6.718  13.868 -0.2048 -0.1599 -0.3585
10708TIP3    H253616   3.724   6.782  13.804  0.0360 -0.6041 -0.3517
10709TIP3   OH253617   1.613   5.804  15.920  0.2743  0.2742  0.3978
10709TIP3    H153618   1.624   5.754  16.001 -0.3364  0.5449  0.6491
10709TIP3    H253619   1.568   5.745  15.860  0.9632 -0.0180  0.1674
10710TIP3   OH253620   3.624   0.725  15.882  0.0697  0.1486 -0.0568
10710TIP3    H153621   3.717   0.736  15.862  0.1293 -1.1188 -0.4971
10710TIP3    H253622   3.609   0.631  15.879 -1.5157  0.4217 -1.2726
10711TIP3   OH253623   2.441   6.814  14.083 -0.3973  0.3671  0.0831
10711TIP3    H153624   2.445   6.743  14.019  0.6158 -0.3073  0.8808
10711TIP3    H253625   2.494   6.884  14.044  0.7841 -0.2920  0.4643
10712TIP3   OH253626   1.845   3.878  15.388 -0.2709  0.2384  0.0123
10712TIP3    H153627   1.861   3.813  15.319  0.1359 -0.1092  0.4321
10712TIP3    H253628   1.929   3.922  15.399 -0.2399  0.0492  0.5365
10713TIP3   OH253629   2.442   4.367   4.870  0.0994 -0.0474  0.5723
10713TIP3    H153630   2.503   4.301   4.838 -0.8943 -0.7180  0.0390
10713TIP3    H253631   2.447   4.361   4.966  0.3179 -0.6079  0.5247
10714TIP3   OH253632   1.073   0.789  13.202 -0.2878 -0.3972 -0.5274
10714TIP3    H153633   1.070   0.858  13.136 -0.1016  0.3254  0.2222
10714TIP3    H253634   1.159   0.797  13.242 -0.9098  0.0501  0.7438
10715TIP3   OH253635   5.838   5.815   5.251  0.4856  0.3192  0.0685
10715TIP3    H153636   5.874   5.881   5.191 -1.9568  1.1669 -0.5237
10715TIP3    H253637   5.744   5.816   5.234  0.3773 -3.3016  0.0941
10716TIP3   OH253638   2.820   2.607   6.196  0.1009  0.0727 -0.1631
10716TIP3    H153639   2.827   2.665   6.272  1.8620  1.5955 -1.4633
10716TIP3    H253640   2.753   2.543   6.222 -0.2145  1.2823  2.1889
10717TIP3   OH253641   4.752   2.920   2.259  0.0049  0.0089  0.1455
10717TIP3    H153642   4.717   2.998   2.215 -1.1733 -1.5324 -1.6948
10717TIP3    H253643   4.840   2.909   2.223  0.1065  0.3841  0.2759
10718TIP3   OH253644   3.672   1.789  16.408  0.7829 -0.4109 -0.2360
10718TIP3    H153645   3.657   1.717  16.347  0.4638 -0.4666 -0.0907
10718TIP3    H253646   3.590   1.798  16.456  0.4735  0.7040 -0.9462
10719TIP3   OH253647   4.675   5.696  15.351 -0.1628 -0.2845 -0.5392
10719TIP3    H153648   4.642   5.655  15.271  1.4815 -0.7759 -0.9746
10719TIP3    H253649   4.603   5.687  15.414 -1.1029 -0.7516 -1.6606
10720TIP3   OH253650   2.336   2.954  14.349 -0.0800  0.1649 -0.4468
10720TIP3    H153651   2.241   2.940  14.345 -0.4691  2.8160 -1.4348
10720TIP3    H253652   2.371   2.893  14.284 -1.0541 -1.0558  0.1368
10721TIP3   OH253653   6.136   3.753   0.711  0.1453  0.3110  0.1714
10721TIP3    H153654   6.118   3.822   0.776 -0.8934 -0.2869  0.5367
10721TIP3    H253655   6.138   3.673   0.763 -1.3832 -0.2589 -0.6112
10722TIP3   OH253656   5.161   0.160   3.552  0.1121 -0.6358 -0.1858
10722TIP3    H153657   5.066   0.164   3.559  0.1625 -0.2055  0.3199
10722TIP3    H253658   5.190   0.144   3.642  0.5601  0.1542 -0.1842
10723TIP3   OH253659   1.152   3.616   5.843 -0.0548  0.7742  0.3644
10723TIP3    H153660   1.198   3.607   5.926  0.1946 -0.0569  0.1379
10723TIP3    H253661   1.081   3.553   5.848 -1.5981  2.5334  0.9915
10724TIP3   OH253662   5.515   3.890  14.296  0.2206 -0.0979 -0.1844
10724TIP3    H153663   5.587   3.911  14.236 -0.5476  0.0587 -1.0547
10724TIP3    H253664   5.485   3.974  14.329  1.5656 -0.2613  1.5278
10725TIP3   OH253665   2.965   3.119  17.259 -0.7918 -0.2410 -0.3076
10725TIP3    H153666   2.952   3.198  17.312 -0.2381 -0.8851  0.8209
10725TIP3    H253667   3.058   3.099  17.268 -0.5174  0.0808 -2.1961
10726TIP3   OH253668   3.615   2.595  14.848  0.3658  0.9648 -0.3480
10726TIP3    H153669   3.653   2.532  14.909 -1.1773  0.5125  0.1697
10726TIP3    H253670   3.650   2.570  14.763 -0.2851 -0.6590 -0.1616
10727TIP3   OH253671   4.463   1.433  14.635  0.3682 -0.2006  0.2435
10727TIP3    H153672   4.495   1.417  14.547  0.4394 -1.1133  0.4254
10727TIP3    H253673   4.539   1.467  14.683  0.6830 -0.9521  0.2874
10728TIP3   OH253674   0.332   3.978  11.768 -0.5519 -0.2481 -0.3865
10728TIP3    H153675   0.390   3.985  11.692  2.1540  0.9152  1.6877
10728TIP3    H253676   0.334   4.065  11.808 -2.0839 -0.7880  0.9108
10729TIP3   OH253677   2.866   0.925  16.195  0.2216 -0.0784 -0.1854
10729TIP3    H153678   2.820   0.986  16.137  0.9298  0.8109  0.1767
10729TIP3    H253679   2.875   0.845  16.144  1.6735  0.9995 -1.6717
10730TIP3   OH253680   6.665   5.332   0.096  0.2621  0.4719  0.1167
10730TIP3    H153681   6.571   5.341   0.114  0.2186 -1.2354  0.8930
10730TIP3    H253682   6.669   5.271   0.022  0.8116 -1.3635  1.6179
10731TIP3   OH253683   5.950   1.007  14.243  0.1118  0.2712 -0.2716
10731TIP3    H153684   5.888   0.958  14.188 -1.0001 -0.1914  1.3401
10731TIP3    H253685   6.036   0.982  14.211 -0.4801 -1.5809 -0.4765
10732TIP3   OH253686   5.811   4.392  15.733  0.0955  0.3033  0.4269
10732TIP3    H153687   5.901   4.365  15.749 -0.3855 -0.2657  2.3813
10732TIP3    H253688   5.759   4.334  15.787 -1.3849  1.2203  0.0200
10733TIP3   OH253689   6.172   3.123  16.372  0.5786  0.1118  0.2414
10733TIP3    H153690   6.171   3.187  16.300  1.1707 -0.2683 -0.1141
10733TIP3    H253691   6.174   3.038  16.328  0.0146 -0.1427  0.7133
10734TIP3   OH253692   5.047   2.757   0.493 -0.3495  0.0005 -0.4675
10734TIP3    H153693   5.054   2.690   0.560 -0.9192 -1.2302 -1.6256
10734TIP3    H253694   5.115   2.821   0.516  0.0533 -0.8451  0.7474
10735TIP3   OH253695   2.856   6.245   5.037  0.4457 -0.0877 -0.2130
10735TIP3    H153696   2.798   6.197   5.096  0.4950  1.1874  0.8916
10735TIP3    H253697   2.808   6.249   4.954 -0.8027  0.4566  0.5272
10736TIP3   OH253698   6.601   5.700  10.257  0.4719 -0.6209  0.1732
10736TIP3    H153699   6.665   5.631  10.241 -0.2875 -0.8670 -1.9825
10736TIP3    H253700   6.569   5.684  10.346  0.5591 -2.8195 -0.1733
10737TIP3   OH253701   1.498   5.326  15.166 -0.1357  0.1700  0.0816
10737TIP3    H153702   1.579   5.356  15.208 -0.4260  0.9357  0.0949
10737TIP3    H253703   1.432   5.389  15.193 -0.5919 -0.0507 -0.5072
10738TIP3   OH253704   4.948   1.403  13.077 -0.2979  0.2191 -0.5999
10738TIP3    H153705   4.956   1.361  12.991  2.0134 -1.0610  0.1748
10738TIP3    H253706   4.928   1.330  13.137 -2.2189  1.1465 -0.0958
10739TIP3   OH253707   2.115   1.593  16.499 -0.1521 -0.5458 -0.0588
10739TIP3    H153708   2.072   1.582  16.584  0.6060  1.4377  0.6323
10739TIP3    H253709   2.209   1.594  16.521  0.1320 -1.8002 -1.1593
10740TIP3   OH253710   3.275   0.115   3.180 -0.1525 -0.2103 -0.1047
10740TIP3    H153711   3.194   0.110   3.129 -0.1830 -0.0086 -0.0782
10740TIP3    H253712   3.282   0.030   3.224  0.0494 -0.5135 -0.7070
10741TIP3   OH253713   3.560   1.502   2.976 -0.7398 -0.7796  0.1259
10741TIP3    H153714   3.539   1.501   2.883 -2.9543  0.4143  0.5856
10741TIP3    H253715   3.476   1.517   3.020  0.5456  0.7214  2.1949
10742TIP3   OH253716   5.017   6.408   2.128 -0.1269  0.3028  0.1379
10742TIP3    H153717   4.959   6.441   2.196 -1.8177 -1.8811 -0.1883
10742TIP3    H253718   5.047   6.323   2.162  3.2201  1.5522  0.4834
10743TIP3   OH253719   5.349   1.926   0.528 -0.0586  0.4489 -0.5062
10743TIP3    H153720   5.411   1.937   0.600 -2.2468  0.7595  1.3917
10743TIP3    H253721   5.341   1.831   0.518 -1.0864  0.3737  0.8847
10744TIP3   OH253722   2.733   0.114   0.648  0.2211  0.0659  0.1123
10744TIP3    H153723   2.826   0.092   0.646  0.6093  1.2693  2.9958
10744TIP3    H253724   2.698   0.064   0.721 -1.6355 -1.0816 -1.5189
10745TIP3   OH253725   6.343   4.498  14.572 -0.1113 -0.3086 -0.0897
10745TIP3    H153726   6.341   4.558  14.646  1.2576 -2.2931  1.6213
10745TIP3    H253727   6.252   4.470  14.561 -0.6808  1.6925 -0.6178
10746TIP3   OH253728   5.569   6.551  10.798  0.3919  0.1843 -0.1511
10746TIP3    H153729   5.648   6.562  10.746 -0.6270  1.2211 -1.5318
10746TIP3    H253730   5.547   6.640  10.828 -1.0828  0.1474 -1.0678
10747TIP3   OH253731   4.129   1.441   4.475 -0.5624 -0.4870  0.1723
10747TIP3    H153732   4.085   1.435   4.390 -0.8277  0.9473  0.2048
10747TIP3    H253733   4.222   1.431   4.455 -0.5655  0.5228 -0.3761
10748TIP3   OH253734   2.909   3.961   4.069 -0.0463 -0.1241 -0.1427
10748TIP3    H153735   2.978   3.915   4.020 -0.5962 -0.6172 -0.4699
10748TIP3    H253736   2.884   3.899   4.138  0.0484  0.1739  0.1556
10749TIP3   OH253737   2.533   3.217  14.018  0.3041  0.1988  0.1015
10749TIP3    H153738   2.473   3.149  14.049  0.0672 -0.2146 -1.1943
10749TIP3    H253739   2.476   3.283  13.978  0.7553 -1.4197 -3.4853
10750TIP3   OH253740   3.361   5.233  16.849  0.8123  0.1621 -0.4070
10750TIP3    H153741   3.375   5.150  16.803 -0.4328  0.2969 -1.0316
10750TIP3    H253742   3.378   5.300  16.783  1.6555  0.4132  0.0502
10751TIP3   OH253743   4.821   1.599   4.362  0.1445  0.7104 -0.3929
10751TIP3    H153744   4.864   1.648   4.291  2.3002 -1.3565 -0.5679
10751TIP3    H253745   4.830   1.507   4.337 -1.4884  0.0723  1.2501
10752TIP3   OH253746   0.008   0.729   4.050  0.1707 -0.1925  0.3645
10752TIP3    H153747   0.077   0.796   4.055  0.9285 -0.9913  0.8282
10752TIP3    H253748   0.028   0.680   3.970  1.5796 -1.9355  1.7255
10753TIP3   OH253749   2.235   4.635   1.466 -0.1023 -0.0766 -0.0087
10753TIP3    H153750   2.151   4.681   1.479  0.3399  0.1591  2.2339
10753TIP3    H253751   2.211   4.543   1.459 -0.3995 -0.2649  2.9569
10754TIP3   OH253752   2.118   3.301   0.795 -0.3269 -0.8689  0.5896
10754TIP3    H153753   2.089   3.339   0.713 -1.3382 -0.3212  1.1956
10754TIP3    H253754   2.083   3.212   0.794 -0.1247 -0.9474  0.3225
10755TIP3   OH253755   4.918   4.267   2.299  0.2007 -0.1625  0.0594
10755TIP3    H153756   4.958   4.323   2.232  1.0609 -0.0843  0.6333
10755TIP3    H253757   4.936   4.311   2.382 -0.1543 -0.6737  0.4150
10756TIP3   OH253758   4.086   4.085  13.681  0.2106 -0.5250 -0.1696
10756TIP3    H153759   4.065   4.176  13.658  1.6875  0.3933  2.0356
10756TIP3    H253760   4.178   4.088  13.708  0.6185 -2.9079 -1.2052
10757TIP3   OH253761   5.409   3.855  16.116 -0.1589 -0.0437  0.3754
10757TIP3    H153762   5.448   3.775  16.081  0.2018 -0.0492  0.7868
10757TIP3    H253763   5.319   3.855  16.082 -0.9275 -1.8309  2.3031
10758TIP3   OH253764   0.584   0.274   3.191  0.1036  0.0273 -0.3287
10758TIP3    H153765   0.621   0.279   3.103  0.8356  0.3070 -0.0124
10758TIP3    H253766   0.651   0.229   3.242  1.2515  3.0023  0.9102
10759TIP3   OH253767   0.152   3.119  12.447  0.4471 -0.0329  0.4673
10759TIP3    H153768   0.221   3.173  12.487 -0.9797  2.0655  0.1715
10759TIP3    H253769   0.072   3.168  12.463 -0.6730 -1.2199 -1.3946
10760TIP3   OH253770   1.071   6.480  14.171 -0.0458 -0.4506 -0.0971
10760TIP3    H153771   1.138   6.426  14.129 -0.3008 -0.0796 -0.9809
10760TIP3    H253772   1.115   6.519  14.247  1.0233  0.6092 -1.2451
10761TIP3   OH253773   4.865   0.194  16.906 -0.4790 -0.2652 -0.5684
10761TIP3    H153774   4.880   0.110  16.862  1.1968 -1.3957  2.0623
10761TIP3    H253775   4.776   0.187  16.941 -0.2436 -1.0341 -0.1312
10762TIP3   OH253776   2.146   1.317   3.940  0.2417  0.3478 -0.5563
10762TIP3    H153777   2.147   1.412   3.938  0.0327  0.4264  1.7063
10762TIP3    H253778   2.212   1.293   4.004 -1.7136 -0.9099  1.0531
10763TIP3   OH253779   5.478   2.681   5.666  0.5327  0.0274  0.2227
10763TIP3    H153780   5.482   2.616   5.595  1.3943 -0.0337  0.3236
10763TIP3    H253781   5.569   2.707   5.680  0.3621  0.0655  1.2849
10764TIP3   OH253782   1.455   6.536   4.279 -0.4633 -0.3573 -0.2501
10764TIP3    H153783   1.375   6.588   4.271  0.0519  0.5125  0.1685
10764TIP3    H253784   1.452   6.502   4.369 -0.3058 -0.2307 -0.1982
10765TIP3   OH253785   1.259   3.520  16.605  0.1561  0.1538  0.5792
10765TIP3    H153786   1.297   3.543  16.520  0.4736  0.7788  0.8796
10765TIP3    H253787   1.218   3.435  16.591 -0.5892  0.6648 -0.4428
10766TIP3   OH253788   5.625   6.178  13.478 -0.7308 -0.3238 -0.1334
10766TIP3    H153789   5.682   6.244  13.438 -1.0332 -0.2853 -0.5111
10766TIP3    H253790   5.679   6.099  13.481  0.0023  0.2219  1.3290
10767TIP3   OH253791   1.851   0.315   1.317  0.2495 -0.0439  0.3428
10767TIP3    H153792   1.878   0.405   1.333  1.2469 -0.3597  0.4907
10767TIP3    H253793   1.931   0.263   1.327 -0.2702 -0.9262  0.0793
10768TIP3   OH253794   6.647   2.571  15.837  0.3155 -0.4523 -0.3912
10768TIP3    H153795   6.721   2.549  15.781  0.7736  1.8441 -0.7528
10768TIP3    H253796   6.571   2.533  15.792  0.5039  2.4630 -3.3622
10769TIP3   OH253797   0.280   4.751  11.613  0.4181 -0.4015  0.5305
10769TIP3    H153798   0.325   4.792  11.539 -0.5303 -0.0713  0.1269
10769TIP3    H253799   0.221   4.819  11.645  1.5671 -0.1685  2.2755
10770TIP3   OH253800   2.433   5.033   6.204  0.4152  0.1680 -0.0133
10770TIP3    H153801   2.463   5.094   6.272  0.4726  0.1716 -0.0411
10770TIP3    H253802   2.350   5.068   6.174  1.2373  1.1385 -1.1961
10771TIP3   OH253803   4.114   0.597  16.872 -0.1852  0.5376 -0.4285
10771TIP3    H153804   4.205   0.601  16.902 -0.6520 -1.1492  1.3424
10771TIP3    H253805   4.112   0.522  16.812  0.1326  2.1523 -2.4681
10772TIP3   OH253806   2.966   0.731  16.923 -0.4704  0.3227 -0.3335
10772TIP3    H153807   2.930   0.665  16.982 -2.0023 -0.4325 -2.0628
10772TIP3    H253808   3.046   0.692  16.888 -1.8003 -0.9790 -1.9740
10773TIP3   OH253809   0.814   0.227  12.993 -0.1823 -0.1117  0.5787
10773TIP3    H153810   0.859   0.257  12.914 -0.9249 -0.3310  0.0628
10773TIP3    H253811   0.834   0.133  12.998 -0.6840 -0.2395  0.2696
10774TIP3   OH253812   4.366   2.841   3.446 -0.4924  0.1141  0.1749
10774TIP3    H153813   4.308   2.907   3.484  0.2919  1.6721 -1.2401
10774TIP3    H253814   4.442   2.891   3.416 -0.4835 -1.2408 -2.1631
10775TIP3   OH253815   6.522   4.331   0.413 -0.0087  0.5621 -0.1969
10775TIP3    H153816   6.477   4.263   0.464 -1.2006  1.6342  0.2259
10775TIP3    H253817   6.483   4.326   0.326 -0.8177  1.3550  0.1123
10776TIP3   OH253818   5.737   4.037   3.907 -0.0528 -0.2660  0.1678
10776TIP3    H153819   5.666   3.976   3.888 -1.8018  1.8942 -0.5188
10776TIP3    H253820   5.793   4.033   3.830 -0.5024 -0.5396 -0.1495
10777TIP3   OH253821   0.402   2.647   3.672 -0.4909 -1.0169 -0.0587
10777TIP3    H153822   0.362   2.726   3.709 -1.5894 -2.2655  1.4531
10777TIP3    H253823   0.437   2.600   3.747  2.4872 -0.7213 -1.2107
10778TIP3   OH253824   2.772   3.548  11.672  0.7152 -0.0305 -0.6716
10778TIP3    H153825   2.745   3.624  11.621  1.2132  0.3272 -0.4061
10778TIP3    H253826   2.704   3.538  11.738  0.2108 -0.3283 -1.2326
10779TIP3   OH253827   4.014   6.490   5.053 -0.3075 -0.0144  0.4912
10779TIP3    H153828   4.087   6.431   5.074 -0.8229 -1.2990 -1.2031
10779TIP3    H253829   4.050   6.551   4.989 -0.6263 -0.4954 -0.1588
10780TIP3   OH253830   1.515   0.080   6.281  0.2988  0.1565  0.4356
10780TIP3    H153831   1.513   0.175   6.290  2.0662  0.4769 -2.0440
10780TIP3    H253832   1.566   0.064   6.201 -2.7898 -2.7499 -1.1024
10781TIP3   OH253833   0.310   1.636   6.569 -0.1018 -0.5786 -0.1360
10781TIP3    H153834   0.269   1.722   6.568  1.0980 -0.0101 -0.1149
10781TIP3    H253835   0.291   1.599   6.483  0.2741  0.1155 -0.5139
10782TIP3   OH253836   6.040   6.065  11.617 -0.0575 -0.3006 -0.0112
10782TIP3    H153837   6.117   6.100  11.574 -1.1881  0.2378 -1.6585
10782TIP3    H253838   5.967   6.114  11.580 -1.3726 -2.1615  0.0044
10783TIP3   OH253839   1.901   1.493  15.795  0.4355 -0.4352 -0.4864
10783TIP3    H153840   1.876   1.432  15.725  2.0599 -0.4360 -1.0846
10783TIP3    H253841   1.840   1.566  15.786  1.0277 -0.1303 -2.3377
10784TIP3   OH253842   1.395   3.673  16.385  0.1127 -0.2243 -0.2185
10784TIP3    H153843   1.447   3.725  16.324 -0.5170 -0.4450 -0.9570
10784TIP3    H253844   1.454   3.602  16.412  0.5797  0.1987 -0.1275
10785TIP3   OH253845   1.334   4.331   2.175 -0.2115  0.3101  0.5160
10785TIP3    H153846   1.394   4.263   2.205  0.1683  1.2442  1.9405
10785TIP3    H253847   1.247   4.301   2.204 -0.3308 -0.5905 -0.7356
10786TIP3   OH253848   2.977   6.322   2.487  0.3558  0.5098 -0.0476
10786TIP3    H153849   3.057   6.276   2.510 -0.1111  0.2560  1.1284
10786TIP3    H253850   3.007   6.403   2.445  1.2249  0.3628  0.2734
10787TIP3   OH253851   4.075   0.852   4.487  0.2139 -0.1368  0.2905
10787TIP3    H153852   4.105   0.771   4.529  2.8470  0.6989  0.0713
10787TIP3    H253853   4.105   0.844   4.397 -0.2341  0.7346  0.0638
10788TIP3   OH253854   2.481   2.137  16.419 -0.2953 -0.4498  0.4559
10788TIP3    H153855   2.544   2.182  16.474 -0.0187  0.7417 -0.8288
10788TIP3    H253856   2.463   2.197  16.348 -0.8258 -1.8800 -0.6475
10789TIP3   OH253857   0.636   5.521   4.668 -0.7649 -0.7407  0.2376
10789TIP3    H153858   0.703   5.538   4.734 -1.3799 -0.7262  0.8610
10789TIP3    H253859   0.557   5.565   4.701 -0.6988  0.5574 -1.2293
10790TIP3   OH253860   6.415   3.160  13.135  0.0067 -0.3380 -0.4818
10790TIP3    H153861   6.417   3.095  13.065 -1.2734 -0.3058 -0.5552
10790TIP3    H253862   6.364   3.119  13.205  1.7158 -0.5805  0.6523
10791TIP3   OH253863   1.583   5.220   2.954  1.0562  0.4040  0.3842
10791TIP3    H153864   1.661   5.275   2.955 -0.3518  2.5045  3.1873
10791TIP3    H253865   1.544   5.232   3.041 -1.8992 -1.2778 -0.6219
10792TIP3   OH253866   6.055   4.084   0.140 -1.0964 -0.1789 -0.1423
10792TIP3    H153867   6.033   3.999   0.178 -0.9008 -0.9324 -1.6684
10792TIP3    H253868   6.112   4.063   0.066  0.2464  1.3964  0.4212
10793TIP3   OH253869   5.052   3.251  13.484 -0.0110 -0.0409  0.1651
10793TIP3    H153870   5.041   3.199  13.563 -0.6739 -1.5299 -0.8728
10793TIP3    H253871   5.144   3.239  13.460 -0.2206 -0.9270 -0.1981
10794TIP3   OH253872   0.851   2.677   2.381 -0.4737 -0.5438 -0.2366
10794TIP3    H153873   0.885   2.669   2.292 -0.4154 -0.7621 -0.1951
10794TIP3    H253874   0.780   2.740   2.374 -0.7026 -0.8264 -0.5026
10795TIP3   OH253875   3.767   2.379   2.000 -0.5525 -0.4786  0.2395
10795TIP3    H153876   3.687   2.404   2.046 -1.2186  0.8815 -1.6018
10795TIP3    H253877   3.753   2.408   1.910  0.9178 -2.6471 -0.7410
10796TIP3   OH253878   6.708   4.728   4.368 -0.2049  0.0482 -0.5070
10796TIP3    H153879   6.782   4.672   4.393 -0.5543 -0.2145 -0.0789
10796TIP3    H253880   6.651   4.671   4.317  0.4345  0.5396 -1.8239
10797TIP3   OH253881   4.823   1.597   3.949 -0.7071  0.0727  0.1247
10797TIP3    H153882   4.830   1.665   4.016 -0.7753  1.2779 -1.0729
10797TIP3    H253883   4.739   1.612   3.907  0.8361  1.5411 -2.5577
10798TIP3   OH253884   1.647   0.060   3.636 -0.3368  0.7739  0.8621
10798TIP3    H153885   1.734   0.039   3.601 -0.8743 -1.4818  0.7895
10798TIP3    H253886   1.620   0.137   3.586  1.0356  0.6573 -0.1195
10799TIP3   OH253887   3.002   1.232  15.788 -0.0272 -0.4719 -0.3272
10799TIP3    H153888   2.907   1.244  15.785 -0.0290 -0.7515 -1.7782
10799TIP3    H253889   3.014   1.139  15.767  0.7241  0.2982 -3.5311
10800TIP3   OH253890   0.861   3.289  14.060  0.2760 -0.2402  0.2443
10800TIP3    H153891   0.955   3.304  14.068  0.1729  1.2489 -1.0215
10800TIP3    H253892   0.832   3.353  13.994 -1.7118 -0.2793  1.0396
10801TIP3   OH253893   5.063   0.058  12.409 -0.1133 -0.0873  0.3137
10801TIP3    H153894   5.117   0.124  12.452 -0.0797  0.8056 -1.0578
10801TIP3    H253895   5.088  -0.024  12.452  0.2645  0.6971  1.6398
10802TIP3   OH253896   4.896   4.990  15.925 -0.5032 -0.5420 -0.0528
10802TIP3    H153897   4.960   5.060  15.916 -0.1562 -0.9486 -0.7442
10802TIP3    H253898   4.818   5.033  15.960 -0.1850  0.1317 -0.1771
10803TIP3   OH253899   6.818   6.426  15.410 -0.1604  0.4778 -0.0230
10803TIP3    H153900   6.831   6.448  15.502 -0.5645 -1.6304  0.5472
10803TIP3    H253901   6.730   6.457  15.389 -0.8121 -0.7979  0.8316
10804TIP3   OH253902   3.780   2.839   2.368  0.4922 -0.0111 -0.2852
10804TIP3    H153903   3.738   2.853   2.283  0.5623  2.3278  0.0126
10804TIP3    H253904   3.738   2.903   2.426  1.0822 -0.9505  1.2079
10805TIP3   OH253905   2.990   5.980   3.025 -0.1194 -0.1173  0.9039
10805TIP3    H153906   2.931   5.956   2.954 -1.2160  0.8050  1.4946
10805TIP3    H253907   2.981   5.908   3.088 -1.0002  0.2750  1.2263
10806TIP3   OH253908   0.743   6.018  12.280 -0.1513  0.3923  0.2512
10806TIP3    H153909   0.719   5.972  12.360  2.1945  0.3721  0.9793
10806TIP3    H253910   0.667   6.009  12.223 -1.2519 -0.9231  1.8965
10807TIP3   OH253911   4.438   2.708  11.469 -0.1126  0.7399  0.0953
10807TIP3    H153912   4.494   2.661  11.407 -1.4610  1.1060 -1.4549
10807TIP3    H253913   4.361   2.732  11.417 -0.4135  2.7429  1.4331
10808TIP3   OH253914   5.566   4.014  12.509 -0.3795 -0.4911  0.1053
10808TIP3    H153915   5.594   4.010  12.418 -0.8747 -0.5811 -0.0462
10808TIP3    H253916   5.580   4.105  12.535 -0.4406 -0.4140 -0.1287
10809TIP3   OH253917   4.731   2.365  16.067 -0.3405 -0.3838 -0.3998
10809TIP3    H153918   4.767   2.443  16.110 -0.1012 -0.0663 -1.1759
10809TIP3    H253919   4.668   2.399  16.004 -1.6264 -0.9167  0.5778
10810TIP3   OH253920   1.096   2.015  16.722  0.8542 -0.4285 -0.3361
10810TIP3    H153921   1.105   1.953  16.795  1.0245  0.4257  0.3724
10810TIP3    H253922   1.134   2.096  16.755 -0.2856  0.3377 -0.9041
10811TIP3   OH253923   0.116   5.716  13.302 -0.2836  0.7101  0.3481
10811TIP3    H153924   0.100   5.736  13.210 -0.4230 -1.5709 -0.1466
10811TIP3    H253925   0.056   5.774  13.350 -2.1420  0.0375 -1.1013
10812TIP3   OH253926   2.209   4.527   0.324  0.0373 -0.4065  0.2189
10812TIP3    H153927   2.233   4.578   0.401  3.1141 -0.5424 -0.5729
10812TIP3    H253928   2.176   4.444   0.360  0.1146  0.0614  1.3990
10813TIP3   OH253929   6.525   3.133   6.464 -0.9717  0.1513 -0.4303
10813TIP3    H153930   6.602   3.190   6.463 -0.9991  0.1905 -1.4303
10813TIP3    H253931   6.451   3.193   6.469 -0.9615  0.1446 -0.1933
10814TIP3   OH253932   0.206   1.667  14.679  0.2300  0.1739 -0.2798
10814TIP3    H153933   0.161   1.657  14.763  1.2851  0.4913  0.3467
10814TIP3    H253934   0.298   1.646  14.700  0.5699  0.6815 -1.2612
10815TIP3   OH253935   6.111   2.807   3.906 -0.4368 -0.8392  0.3414
10815TIP3    H153936   6.164   2.841   3.834 -2.9163 -3.0346 -2.6619
10815TIP3    H253937   6.031   2.860   3.905 -1.0066 -1.6811  0.6572
10816TIP3   OH253938   2.390   5.185   2.681  0.1349 -0.3042 -0.0564
10816TIP3    H153939   2.409   5.275   2.708  0.1206 -0.1643 -0.4940
10816TIP3    H253940   2.367   5.193   2.588 -0.1670 -0.7191 -0.0203
10817TIP3   OH253941   5.426   5.422   0.869  0.0891  0.0142 -0.3731
10817TIP3    H153942   5.379   5.370   0.804  0.1587 -0.9611  0.3434
10817TIP3    H253943   5.513   5.381   0.873 -0.3542 -0.8125  1.3255
10818TIP3   OH253944   1.635   4.924   3.119  0.3063  0.6192 -0.2302
10818TIP3    H153945   1.635   5.018   3.139  1.0605  0.6308 -0.2777
10818TIP3    H253946   1.697   4.886   3.182  0.2527  0.1978 -0.4276
10819TIP3   OH253947   2.272   5.436   1.886  0.0702 -0.2532 -0.2322
10819TIP3    H153948   2.329   5.478   1.950 -2.1069  1.2743  0.7745
10819TIP3    H253949   2.310   5.349   1.873  4.2558  1.6334 -1.7641
10820TIP3   OH253950   0.775   0.227   0.029  0.5092  0.2513 -0.2403
10820TIP3    H153951   0.829   0.306   0.030 -0.1359  0.6910  1.8600
10820TIP3    H253952   0.810   0.172   0.099  1.0304 -1.4145 -1.7600
10821TIP3   OH253953   3.790   2.852   3.566 -0.1004 -0.7088  0.3984
10821TIP3    H153954   3.808   2.771   3.613  1.2092 -0.6086  0.0981
10821TIP3    H253955   3.876   2.883   3.539 -0.7059  0.0792 -0.6565
10822TIP3   OH253956   5.854   6.669   3.014  0.1385  0.1354  0.4071
10822TIP3    H153957   5.780   6.728   2.998  1.7149  1.9763 -0.2415
10822TIP3    H253958   5.872   6.630   2.928 -0.5525 -0.9196  0.7254
10823TIP3   OH253959   5.846   0.295  17.083  0.1927  0.0868  0.2091
10823TIP3    H153960   5.890   0.211  17.068  0.9149 -0.1324  3.0469
10823TIP3    H253961   5.911   0.360  17.057  0.4739 -0.2452  0.0701
10824TIP3   OH253962   5.052   3.782  11.905 -0.1758  0.4832 -0.4266
10824TIP3    H153963   4.957   3.776  11.917 -0.2273  0.8775 -0.6404
10824TIP3    H253964   5.077   3.696  11.872 -0.6489  0.7989 -1.6459
10825TIP3   OH253965   2.553   3.385  12.752  0.6373  0.1662  0.1606
10825TIP3    H153966   2.480   3.425  12.800 -0.3692  0.1838 -1.3538
10825TIP3    H253967   2.518   3.301  12.721  1.9784 -0.8289  1.3050
10826TIP3   OH253968   0.376   1.911  11.851 -0.2535 -0.3513  0.2405
10826TIP3    H153969   0.470   1.895  11.864 -0.3262  0.3627  1.6771
10826TIP3    H253970   0.343   1.829  11.814  0.5989 -1.2704  1.4838
10827TIP3   OH253971   1.201   5.190  15.522 -0.2429  0.0134  0.2636
10827TIP3    H153972   1.284   5.157  15.557 -0.3296  0.6001  1.0461
10827TIP3    H253973   1.151   5.111  15.500  0.2032 -0.3507  0.5512
10828TIP3   OH253974   0.379   3.929   0.342 -0.1919 -0.3197  0.2157
10828TIP3    H153975   0.288   3.899   0.351 -0.4710  0.6968  0.9066
10828TIP3    H253976   0.375   4.023   0.360  0.5930  0.2586 -2.3590
10829TIP3   OH253977   4.545   1.976  12.141  0.0974 -0.0770 -0.3188
10829TIP3    H153978   4.527   1.891  12.180 -0.7086 -0.6091 -1.8170
10829TIP3    H253979   4.634   1.997  12.169 -0.3483 -0.5717  1.5359
10830TIP3   OH253980   0.408   3.697   1.888  0.4031 -1.0992 -0.7193
10830TIP3    H153981   0.498   3.689   1.919 -0.4630 -1.5993  1.7360
10830TIP3    H253982   0.375   3.607   1.886 -0.7578 -0.7253  0.6264
10831TIP3   OH253983   5.466   5.950   2.948  0.2491  0.6241  0.0334
10831TIP3    H153984   5.529   5.983   3.013  0.6434 -0.4440  0.1962
10831TIP3    H253985   5.509   5.875   2.908 -0.9972 -0.2336  0.2661
10832TIP3   OH253986   2.040   5.757   3.618 -0.4213 -0.5820 -0.0138
10832TIP3    H153987   2.060   5.665   3.601 -0.8072 -0.4028 -1.5209
10832TIP3    H253988   2.116   5.790   3.665  0.5146 -1.2177 -1.0675
10833TIP3   OH253989   6.357   0.547  12.609  0.5713  0.3561  0.6683
10833TIP3    H153990   6.323   0.622  12.657  1.7989  0.8484  0.7935
10833TIP3    H253991   6.411   0.500  12.674 -1.5986 -1.6327  1.1047
10834TIP3   OH253992   4.401   6.414   0.998  0.0832  0.6461  0.1295
10834TIP3    H153993   4.454   6.342   0.964 -1.0443  0.0314 -0.3663
10834TIP3    H253994   4.404   6.403   1.093 -1.5391 -1.1445  0.0081
10835TIP3   OH253995   5.178   5.884   2.982  0.4483 -0.3263  0.2750
10835TIP3    H153996   5.163   5.799   2.940 -0.8277  0.3145 -0.6049
10835TIP3    H253997   5.263   5.913   2.949 -0.5619  0.2070 -2.0100
10836TIP3   OH253998   5.766   4.397  11.550  0.1543 -0.1256 -0.0048
10836TIP3    H153999   5.743   4.368  11.461 -1.1546 -1.3093  0.6924
10836TIP3    H254000   5.777   4.492  11.542  1.3613 -0.3786 -1.6910
10837TIP3   OH254001   0.804   2.118  15.826 -0.0908  0.0857  0.0093
10837TIP3    H154002   0.880   2.069  15.857 -0.2110  0.1952  0.4930
10837TIP3    H254003   0.790   2.184  15.893  1.3657  2.1642 -1.6855
10838TIP3   OH254004   2.965   5.924   4.540 -0.3814 -0.4389  0.3746
10838TIP3    H154005   2.932   5.836   4.523 -0.3279 -0.2017 -1.0532
10838TIP3    H254006   2.918   5.953   4.618 -0.1517 -1.8525  1.0452
10839TIP3   OH254007   4.241   6.499  14.143 -0.0645 -0.4094 -0.3035
10839TIP3    H154008   4.231   6.423  14.085 -1.8695 -0.8830  0.5812
10839TIP3    H254009   4.332   6.525  14.132  0.4037 -2.2713 -1.1705
10840TIP3   OH254010   4.087   4.985  17.042 -0.1809 -0.2054  0.3175
10840TIP3    H154011   4.100   4.936  17.123 -0.1381  0.7526  0.8952
10840TIP3    H254012   3.992   4.987  17.031 -0.1442 -1.1998 -0.1938
10841TIP3   OH254013   4.714   3.567  12.756  0.1857 -0.2662 -0.3014
10841TIP3    H154014   4.680   3.582  12.844 -1.1861 -2.8479 -0.3445
10841TIP3    H254015   4.676   3.637  12.703 -0.4833  0.1916  0.7693
10842TIP3   OH254016   4.363   5.445   2.558 -0.4643 -0.2360  0.1837
10842TIP3    H154017   4.361   5.533   2.595 -0.2606 -0.0319 -0.2826
10842TIP3    H254018   4.345   5.387   2.632 -0.0737  0.1679  0.5967
10843TIP3   OH254019   4.898   3.174  12.368 -0.1011  0.2421  0.2965
10843TIP3    H154020   4.863   3.171  12.457 -0.1128 -0.3268  0.2745
10843TIP3    H254021   4.874   3.089  12.330 -0.1435  0.5022 -0.2656
10844TIP3   OH254022   6.721   4.087  16.325 -0.0255 -0.0220 -0.1099
10844TIP3    H154023   6.702   3.999  16.355  0.7764 -0.4811 -0.9261
10844TIP3    H254024   6.667   4.098  16.246  1.6955 -0.6729 -1.3946
10845TIP3   OH254025   0.463   1.932   0.147 -0.0635  0.1537  0.8325
10845TIP3    H154026   0.495   1.947   0.236  0.9554 -2.7919  1.0375
10845TIP3    H254027   0.489   1.841   0.127  1.0786  1.2183 -3.0296
10846TIP3   OH254028   4.612   3.612  10.815  0.3732  0.1783 -0.0237
10846TIP3    H154029   4.532   3.569  10.843 -0.3240  0.4776 -1.5027
10846TIP3    H254030   4.650   3.553  10.750  0.2795  0.9785 -0.8258
10847TIP3   OH254031   0.522   0.464   0.978 -0.1236  0.4829 -0.0321
10847TIP3    H154032   0.501   0.450   1.070 -0.0815  1.2960  0.1015
10847TIP3    H254033   0.521   0.376   0.939 -2.4474  0.3512  0.2507
10848TIP3   OH254034   2.069   0.476   5.586  0.0352 -0.0982 -0.2582
10848TIP3    H154035   2.074   0.548   5.524 -1.0329 -0.4060 -0.7193
10848TIP3    H254036   2.007   0.506   5.653 -2.1151 -1.4032 -1.5952
10849TIP3   OH254037   0.048   3.126   0.758 -0.0991  0.0655 -0.5225
10849TIP3    H154038   0.097   3.057   0.714  1.1575 -0.0869  1.0518
10849TIP3    H254039  -0.025   3.080   0.801  2.0460 -0.7179  2.4848
10850TIP3   OH254040   3.041   5.068   0.449 -0.4098 -0.1067 -0.3213
10850TIP3    H154041   3.051   4.974   0.460 -1.8210 -0.2916 -0.5530
10850TIP3    H254042   3.068   5.105   0.533 -0.0016 -0.7202 -0.1787
10851TIP3   OH254043   5.916   6.437   0.291  0.9432 -0.6148  0.1819
10851TIP3    H154044   5.880   6.471   0.373  0.7658  0.0043 -0.1475
10851TIP3    H254045   5.841   6.430   0.233  1.1746 -0.3861 -0.1470
10852TIP3   OH254046   5.698   3.047   3.079 -0.0879  0.1775  0.3259
10852TIP3    H154047   5.639   3.110   3.120  0.3885  1.0467 -0.3120
10852TIP3    H254048   5.783   3.090   3.081  0.0039  0.0921 -1.2736
10853TIP3   OH254049   5.994   5.902   5.440  0.7505  0.6949  0.2525
10853TIP3    H154050   5.928   5.886   5.373 -0.2270 -0.9972  1.5724
10853TIP3    H254051   5.952   5.960   5.503  0.8860  0.4762  0.5484
10854TIP3   OH254052   3.846   0.584  12.765 -0.1480  0.4292 -0.1054
10854TIP3    H154053   3.890   0.517  12.712 -1.6573 -0.7129  0.0534
10854TIP3    H254054   3.894   0.584  12.848  0.0404 -0.2518 -0.2076
10855TIP3   OH254055   6.451   4.670   4.611 -0.6422  0.5084 -0.0130
10855TIP3    H154056   6.369   4.690   4.655 -0.5389  0.6217  0.1309
10855TIP3    H254057   6.503   4.625   4.677 -0.4306  0.8119  0.0283
10856TIP3   OH254058   5.008   4.824   3.540  0.1567  0.0208 -0.2279
10856TIP3    H154059   5.011   4.813   3.635 -2.1039 -2.8350 -0.4210
10856TIP3    H254060   4.917   4.808   3.516  0.9282 -0.5855 -2.9977
10857TIP3   OH254061   3.755   1.113  13.109 -0.3044 -0.4306 -0.3342
10857TIP3    H154062   3.804   1.171  13.167 -1.4463  0.0743  0.1480
10857TIP3    H254063   3.810   1.103  13.032  0.9010 -0.5142  0.5383
10858TIP3   OH254064   5.509   0.400  13.749  0.0307 -0.0177 -0.2352
10858TIP3    H154065   5.459   0.326  13.713  0.6331 -0.7420  0.4025
10858TIP3    H254066   5.447   0.444  13.807  0.0724 -0.8079  0.4148
10859TIP3   OH254067   4.839   3.065   3.224  0.4063  0.2233  0.1502
10859TIP3    H154068   4.850   3.159   3.209  1.1431  0.4249  1.8482
10859TIP3    H254069   4.808   3.031   3.140  0.9781  1.8369 -0.7403
10860TIP3   OH254070   0.477   2.285   1.084  0.1067  0.0537  0.5817
10860TIP3    H154071   0.568   2.315   1.090  0.3895 -0.5191 -0.7276
10860TIP3    H254072   0.484   2.193   1.058 -0.8517 -0.0058  0.5236
10861TIP3   OH254073   3.456   1.086  12.072 -0.2438  0.1638  0.1409
10861TIP3    H154074   3.392   1.039  12.125  0.1604 -2.2392 -1.4181
10861TIP3    H254075   3.471   1.030  11.996  1.4937  2.0720 -1.0042
10862TIP3   OH254076   4.662   4.477   2.488 -0.5686 -0.3721 -0.3779
10862TIP3    H154077   4.653   4.403   2.428 -1.4837  0.0772 -0.8019
10862TIP3    H254078   4.581   4.476   2.539 -0.4079  0.1017 -0.1116
10863TIP3   OH254079   4.571   5.400   3.968 -0.1914 -0.1350 -0.2230
10863TIP3    H154080   4.634   5.426   3.901  0.5810  0.8433  0.8679
10863TIP3    H254081   4.492   5.376   3.919 -0.1658  2.0658 -1.3960
10864TIP3   OH254082   1.904   2.478   2.742 -0.0627  0.0593 -0.0478
10864TIP3    H154083   1.975   2.538   2.723 -1.1566  1.6544  0.8200
10864TIP3    H254084   1.948   2.397   2.769  1.4244  0.1220 -2.1547
10865TIP3   OH254085   2.420   5.567  15.927  0.0518  0.1536 -0.2426
10865TIP3    H154086   2.347   5.563  15.866  0.8907 -1.2616 -1.1876
10865TIP3    H254087   2.498   5.564  15.871  0.8538  2.7304  0.6725
10866TIP3   OH254088   6.353   3.142  14.655 -0.1324 -0.2677 -0.3295
10866TIP3    H154089   6.275   3.184  14.690  0.2750 -0.5700  0.9749
10866TIP3    H254090   6.387   3.204  14.590 -0.3898  0.7249  0.4686
10867TIP3   OH254091   3.703   0.031   5.165 -0.0335 -0.3298  0.0292
10867TIP3    H154092   3.787   0.054   5.205  0.6011 -1.1624 -0.7939
10867TIP3    H254093   3.637   0.069   5.223  0.9187  0.4906  0.5796
10868TIP3   OH254094   0.198   6.531  10.874  0.0356 -0.3226  0.0749
10868TIP3    H154095   0.174   6.606  10.820 -0.6012  0.9848  2.1233
10868TIP3    H254096   0.292   6.519  10.858  0.2078  1.1295 -0.0407
10869TIP3   OH254097   1.598   6.534  13.909  0.0626 -0.3821  0.0420
10869TIP3    H154098   1.550   6.492  13.838  0.6644 -0.0658 -0.5548
10869TIP3    H254099   1.533   6.543  13.979 -0.8901  0.4483 -0.9201
10870TIP3   OH254100   3.149   3.378  11.984  0.5774  0.1790  0.0464
10870TIP3    H154101   3.064   3.407  12.015  0.0606 -0.1805 -1.0137
10870TIP3    H254102   3.130   3.309  11.920  1.5384  1.6580 -1.9035
10871TIP3   OH254103   3.451   5.337   2.262  0.4408  0.3405 -0.1657
10871TIP3    H154104   3.459   5.356   2.356 -1.0706  0.5554 -0.0650
10871TIP3    H254105   3.465   5.421   2.219 -1.0800  0.7009  0.0037
10872TIP3   OH254106   4.799   0.755   3.545  0.0914  0.0023 -0.0526
10872TIP3    H154107   4.853   0.692   3.498  2.5817  1.4990  0.7485
10872TIP3    H254108   4.812   0.838   3.500 -0.9160  0.5618  0.6491
10873TIP3   OH254109   3.339   4.934  15.571  0.2544  0.0242  0.2622
10873TIP3    H154110   3.296   5.020  15.575  1.1026  0.4444  0.4045
10873TIP3    H254111   3.273   4.873  15.605 -0.0726  0.7282  0.9130
10874TIP3   OH254112   1.755   2.644  13.415  0.0162 -0.2133  0.3967
10874TIP3    H154113   1.697   2.578  13.452 -1.1395  0.4986 -0.1071
10874TIP3    H254114   1.765   2.708  13.486  1.0515 -0.8741  0.8487
10875TIP3   OH254115   2.766   6.789  14.942 -0.2434  0.2437  0.2295
10875TIP3    H154116   2.750   6.883  14.939  2.3254  0.7429  0.5821
10875TIP3    H254117   2.854   6.779  14.906 -0.3235 -1.9883  0.5923
10876TIP3   OH254118   5.327   4.729   5.711  0.6821  0.1001  0.3144
10876TIP3    H154119   5.373   4.774   5.781  2.1343 -2.0371  0.7673
10876TIP3    H254120   5.347   4.780   5.632  2.2933  0.2700  0.8173
10877TIP3   OH254121   0.054   3.709  13.005  0.2555 -0.0352 -0.1934
10877TIP3    H154122  -0.007   3.779  12.984  2.8804  1.9387 -1.4568
10877TIP3    H254123   0.062   3.659  12.924 -1.1967 -1.5269  0.5487
10878TIP3   OH254124   1.846   4.774   6.798  0.4342  0.2342 -0.3106
10878TIP3    H154125   1.789   4.740   6.729 -0.2959 -0.6352  0.7246
10878TIP3    H254126   1.789   4.828   6.853  0.9111  0.5085 -0.0797
10879TIP3   OH254127   4.912   3.580   0.963  0.2103 -0.6478  0.0300
10879TIP3    H154128   5.003   3.611   0.965  0.5224 -1.5789  0.4230
10879TIP3    H254129   4.862   3.656   0.932  0.8499  0.5498  1.8564
10880TIP3   OH254130   3.462   3.499  13.351 -0.1456 -0.5297 -0.5899
10880TIP3    H154131   3.526   3.431  13.328 -0.8429 -0.9124 -1.4087
10880TIP3    H254132   3.384   3.451  13.378  0.7018 -0.1117  2.8718
10881TIP3   OH254133   3.462   2.357   3.367  0.3029 -0.0753 -0.2789
10881TIP3    H154134   3.409   2.288   3.406  1.8774 -1.9425 -1.3993
10881TIP3    H254135   3.432   2.362   3.276  1.1457 -0.2477 -0.5700
10882TIP3   OH254136   6.564   2.509   2.052  0.4141  0.2642  0.0776
10882TIP3    H154137   6.500   2.580   2.043  0.0772 -0.2112 -1.4778
10882TIP3    H254138   6.522   2.434   2.011  2.2772  0.1470 -1.7140
10883TIP3   OH254139   0.176   4.816   0.024  0.4294 -0.1905 -0.4310
10883TIP3    H154140   0.198   4.892   0.077  1.1676  0.5988 -1.8227
10883TIP3    H254141   0.089   4.834  -0.011  0.1576 -0.4759  0.1000
10884TIP3   OH254142   2.642   1.002  11.441  0.6259  0.1090  0.1218
10884TIP3    H154143   2.618   0.978  11.352 -0.5981  0.2426  0.4154
10884TIP3    H254144   2.647   1.097  11.441 -0.4725  0.1736  0.4658
10885TIP3   OH254145   0.048   5.170   6.276 -0.0789 -0.6529  0.0761
10885TIP3    H154146   0.073   5.107   6.343  0.3872  0.1039  0.6279
10885TIP3    H254147   0.069   5.256   6.314  1.2470 -0.2528 -1.4645
10886TIP3   OH254148   6.203   6.726  16.968 -0.1399  0.0303  0.0782
10886TIP3    H154149   6.285   6.729  17.016 -0.0539 -0.5575 -0.0277
10886TIP3    H254150   6.176   6.635  16.972 -0.7049  0.1899 -0.0283
10887TIP3   OH254151   2.978   6.595   3.028 -0.1290 -0.1686 -0.0870
10887TIP3    H154152   3.064   6.558   3.048 -0.4001 -1.3981 -1.1421
10887TIP3    H254153   2.969   6.584   2.933 -1.1135  0.6752 -0.0907
10888TIP3   OH254154   0.179   3.842   4.194 -0.0343 -1.0273  0.7673
10888TIP3    H154155   0.205   3.820   4.284  2.2068  0.2502  0.4708
10888TIP3    H254156   0.158   3.935   4.198 -0.4752 -1.0974  0.0779
10889TIP3   OH254157   6.693   2.123  11.282 -0.0384 -0.3934 -0.0573
10889TIP3    H154158   6.624   2.151  11.342 -1.4533 -0.1972 -1.7326
10889TIP3    H254159   6.730   2.205  11.249 -0.4751 -0.4784 -0.7817
10890TIP3   OH254160   3.345   2.364  14.408 -1.0294 -0.6056 -0.3020
10890TIP3    H154161   3.334   2.324  14.494 -0.7783 -1.6764 -0.7548
10890TIP3    H254162   3.387   2.296  14.355  1.5141  1.0342 -0.4819
10891TIP3   OH254163   6.667   6.348   3.032  0.6406  0.4352 -0.4673
10891TIP3    H154164   6.580   6.363   2.995 -0.6423  0.3834  2.3845
10891TIP3    H254165   6.723   6.411   2.987 -0.6145 -0.3069 -3.1725
10892TIP3   OH254166   4.494   2.487  12.805 -0.5745  0.4104  0.4811
10892TIP3    H154167   4.497   2.554  12.737  0.9650  0.7980  0.9261
10892TIP3    H254168   4.434   2.522  12.871 -0.0352  1.2029  0.5555
10893TIP3   OH254169   6.746   3.528  11.089 -0.0511  0.0516 -0.3721
10893TIP3    H154170   6.738   3.623  11.101  0.6867  0.1416 -0.5222
10893TIP3    H254171   6.710   3.512  11.002 -0.9384  0.0773 -0.0112
10894TIP3   OH254172   4.783   0.219   2.789 -0.2075 -0.0981  0.4666
10894TIP3    H154173   4.732   0.160   2.845 -0.8670 -0.3090 -0.3482
10894TIP3    H254174   4.773   0.305   2.829  0.9098 -0.5673  1.7711
10895TIP3   OH254175   0.557   0.593   0.693 -0.1334 -0.5480 -0.1175
10895TIP3    H154176   0.559   0.536   0.770 -1.3787 -3.3574 -2.0602
10895TIP3    H254177   0.637   0.645   0.699  2.4151 -4.3310  0.4785
10896TIP3   OH254178   6.766   5.880   3.487  0.3031  0.4117 -0.2146
10896TIP3    H154179   6.699   5.943   3.513 -0.6684 -0.9992  0.7393
10896TIP3    H254180   6.791   5.907   3.399 -0.2107  2.0300  0.1200
10897TIP3   OH254181   2.792   1.773  12.295  0.5214 -0.2559  0.6593
10897TIP3    H154182   2.871   1.725  12.270  1.1929 -0.6585  3.3483
10897TIP3    H254183   2.813   1.809  12.381 -1.3124  1.7983  0.2881
10898TIP3   OH254184   1.783   1.453  16.475 -0.3474 -0.1580  0.5106
10898TIP3    H154185   1.770   1.446  16.381 -2.2675 -0.3131  0.7573
10898TIP3    H254186   1.853   1.517  16.486 -0.9927  0.8187 -0.9831
10899TIP3   OH254187   1.246   0.527   6.713  0.0990  0.0136 -0.2391
10899TIP3    H154188   1.167   0.521   6.659 -1.2901  1.4230  1.5948
10899TIP3    H254189   1.272   0.619   6.707 -0.0047  0.1642  1.3886
10900TIP3   OH254190   3.268   6.354  14.269  0.0291  0.5309 -0.1091
10900TIP3    H154191   3.359   6.348  14.300  0.7569  2.3312 -1.7798
10900TIP3    H254192   3.272   6.327  14.177 -1.4765 -1.2422  0.3340
10901TIP3   OH254193   1.867   2.021   0.937 -0.3358 -0.5103 -0.2677
10901TIP3    H154194   1.804   1.989   0.872 -1.4360  0.1807  0.4349
10901TIP3    H254195   1.926   2.077   0.888 -1.2227  0.0920 -0.6692
10902TIP3   OH254196   3.608   2.715  15.187  0.0247  0.2791 -0.3708
10902TIP3    H154197   3.621   2.653  15.259 -0.6875  0.1433 -0.3522
10902TIP3    H254198   3.648   2.796  15.218 -0.2733  0.2201  0.1863
10903TIP3   OH254199   1.838   4.982  11.645 -1.1532  0.5234 -0.7252
10903TIP3    H154200   1.802   4.953  11.561  0.1034 -0.1662 -1.0402
10903TIP3    H254201   1.867   5.072  11.628  0.9605 -0.2829 -1.6489
10904TIP3   OH254202   1.701   0.027   3.937 -0.4881  1.1735 -0.4101
10904TIP3    H154203   1.786  -0.005   3.967 -0.7972  0.6372 -0.0948
10904TIP3    H254204   1.705   0.024   3.842 -0.0325  1.4731 -0.4002
10905TIP3   OH254205   3.703   2.941  12.829 -0.1801  0.0550 -0.2106
10905TIP3    H154206   3.775   2.882  12.853 -1.5463 -1.0109  1.4656
10905TIP3    H254207   3.728   2.977  12.745  2.6847  0.3226  0.7148
10906TIP3   OH254208   6.301   5.515  13.608 -0.1430  0.0960  0.1384
10906TIP3    H154209   6.297   5.420  13.622 -1.4767  0.3227  1.5019
10906TIP3    H254210   6.250   5.529  13.528  0.4012 -0.3750 -0.2955
10907TIP3   OH254211   6.367   4.181   1.407 -0.0973  0.2603 -0.3886
10907TIP3    H154212   6.309   4.111   1.379  0.2422  0.1567 -0.8530
10907TIP3    H254213   6.369   4.241   1.332 -0.1436  0.6113 -0.1126
10908TIP3   OH254214   1.944   1.390  13.175 -0.5305  0.4997 -0.5582
10908TIP3    H154215   1.890   1.462  13.207 -0.6422 -0.5382  1.7776
10908TIP3    H254216   1.888   1.343  13.114 -1.1552  1.2456 -0.5663
10909TIP3   OH254217   2.445   5.252  10.925 -0.9205  0.2439  0.3967
10909TIP3    H154218   2.497   5.328  10.900 -0.7347  0.2355  0.7555
10909TIP3    H254219   2.456   5.191  10.852  0.8621 -0.4021  1.1589
10910TIP3   OH254220   3.938   2.386  14.019  0.3272  0.0881  0.0798
10910TIP3    H154221   3.965   2.304  13.977  0.1313 -2.0840  3.9856
10910TIP3    H254222   4.019   2.421  14.057 -0.0568  0.3184  0.6900
10911TIP3   OH254223   5.942   4.322   0.323  0.3421 -0.2191  0.1415
10911TIP3    H154224   5.919   4.267   0.248 -1.5877 -2.2522  2.1587
10911TIP3    H254225   6.014   4.276   0.366  1.0132  0.6085 -0.0835
10912TIP3   OH254226   0.208   2.278   5.716  1.1505 -0.1102 -0.3364
10912TIP3    H154227   0.167   2.347   5.664  0.9119 -1.6022 -2.1461
10912TIP3    H254228   0.166   2.285   5.802 -0.9034  0.1873 -1.3425
10913TIP3   OH254229   5.665   4.552  16.911  0.3909  0.3456 -0.5901
10913TIP3    H154230   5.608   4.503  16.852  0.6573 -2.3095  1.2869
10913TIP3    H254231   5.737   4.582  16.855 -1.6444  1.8202 -2.5203
10914TIP3   OH254232   2.541   3.818   0.624  0.3980  0.1109 -0.2463
10914TIP3    H154233   2.452   3.854   0.624 -0.0154 -0.8719  1.9367
10914TIP3    H254234   2.536   3.744   0.564 -0.0141  0.5818 -0.8127
10915TIP3   OH254235   1.739   6.605   3.737  0.4612 -0.2164  0.1975
10915TIP3    H154236   1.721   6.538   3.670  2.5741  0.3370 -0.9682
10915TIP3    H254237   1.663   6.664   3.732  1.6007  1.0684 -3.3241
10916TIP3   OH254238   4.952   1.815   5.636  0.0360 -0.0381 -0.2811
10916TIP3    H154239   4.952   1.789   5.729 -1.7808 -2.7639 -0.9779
10916TIP3    H254240   5.032   1.776   5.601  1.2447  1.8380  0.3203
10917TIP3   OH254241   2.705   0.224  15.021  0.0450 -0.2999  0.2713
10917TIP3    H154242   2.729   0.192  15.108 -1.8671  1.3993  1.4739
10917TIP3    H254243   2.788   0.251  14.982  1.1242 -2.5839  0.9153
10918TIP3   OH254244   1.883   2.304  14.193  0.1901  0.0942  0.4149
10918TIP3    H154245   1.823   2.357  14.140  0.7086  1.0996  0.8117
10918TIP3    H254246   1.842   2.301  14.279 -0.4553 -1.2093  0.0793
10919TIP3   OH254247   1.570   3.315   2.050  0.0605 -0.4972 -0.2296
10919TIP3    H154248   1.650   3.299   2.099 -0.7920  1.9231  2.1288
10919TIP3    H254249   1.590   3.391   1.995 -0.5463  0.0629  0.3038
10920TIP3   OH254250   1.866   2.581  12.669 -0.3065  0.7738 -0.8420
10920TIP3    H154251   1.785   2.532  12.682  1.5365 -2.4395 -0.9811
10920TIP3    H254252   1.866   2.603  12.576 -0.7280  0.2623 -0.9638
10921TIP3   OH254253   1.043   6.503   3.449  0.0386  0.7844  0.3838
10921TIP3    H154254   0.966   6.476   3.400  0.7421  0.8904 -0.7901
10921TIP3    H254255   1.034   6.460   3.534 -1.5107  1.1236  0.4043
10922TIP3   OH254256   5.123   1.513  14.274 -0.0602 -0.7968  0.2880
10922TIP3    H154257   5.091   1.455  14.204  0.8044  0.0678 -0.8451
10922TIP3    H254258   5.048   1.568  14.296  0.5112  1.1044 -2.2338
10923TIP3   OH254259   3.534   2.044   2.458 -0.3284  0.1454  0.2861
10923TIP3    H154260   3.541   1.949   2.464  0.1891  0.0262 -1.8777
10923TIP3    H254261   3.565   2.065   2.370 -2.0665  2.1591  0.1166
10924TIP3   OH254262   3.338   6.106  15.575 -0.2457 -0.2339 -0.0935
10924TIP3    H154263   3.330   6.048  15.651 -0.2970  0.7752  0.6865
10924TIP3    H254264   3.261   6.162  15.580 -1.0473 -1.1367 -1.7574
10925TIP3   OH254265   5.672   6.450   0.153  0.2043  0.9368 -0.4566
10925TIP3    H154266   5.604   6.510   0.185 -0.7867  0.2029 -1.1645
10925TIP3    H254267   5.707   6.494   0.075  0.1719  1.0615 -0.4022
10926TIP3   OH254268   5.259   4.300  16.981  0.1932  0.2750  0.6333
10926TIP3    H154269   5.232   4.330  16.895  1.7384 -1.2996 -0.4542
10926TIP3    H254270   5.197   4.231  17.004  0.0606  0.3750  0.5717
10927TIP3   OH254271   6.221   2.707   4.449  0.3623  0.0827  0.5792
10927TIP3    H154272   6.293   2.722   4.511  0.7478  0.5267  0.0249
10927TIP3    H254273   6.161   2.648   4.496 -0.2615  1.8529  2.0697
10928TIP3   OH254274   0.143   2.787  16.444 -0.2775 -0.4511  0.2301
10928TIP3    H154275   0.162   2.756  16.355  0.2516  0.7398 -0.0871
10928TIP3    H254276   0.048   2.799  16.444 -0.4333 -1.6136  0.2176
10929TIP3   OH254277   2.290   3.998   3.130  0.3835  0.6998 -0.4333
10929TIP3    H154278   2.202   3.971   3.105  0.1429  1.9373 -0.9336
10929TIP3    H254279   2.281   4.090   3.157  1.3362  0.5401  0.4795
10930TIP3   OH254280   5.087   1.416   5.289 -0.0425 -0.1138  0.0752
10930TIP3    H154281   5.017   1.394   5.228 -1.2228 -1.2393  1.8277
10930TIP3    H254282   5.125   1.496   5.253 -0.1039 -1.2664 -2.6427
10931TIP3   OH254283   5.108   5.415  13.009  0.1188 -0.0570  0.0035
10931TIP3    H154284   5.071   5.327  12.997 -0.9889  0.6196 -1.8632
10931TIP3    H254285   5.169   5.425  12.936  1.1155  0.2947  0.8753
10932TIP3   OH254286   6.139   3.384  15.997  0.7181  0.1882 -0.2105
10932TIP3    H154287   6.184   3.364  16.079  0.9162 -0.1383 -0.3956
10932TIP3    H254288   6.050   3.409  16.023  0.2938 -1.5114 -0.0150
10933TIP3   OH254289   3.437   5.234  13.125 -0.4742 -0.4703 -0.4186
10933TIP3    H154290   3.431   5.152  13.076  1.7312 -1.1493  0.3658
10933TIP3    H254291   3.396   5.215  13.209 -0.4792 -0.5954 -0.4480
10934TIP3   OH254292   6.165   2.839   0.145  0.2708  0.0487 -0.6948
10934TIP3    H154293   6.168   2.784   0.223  0.2448  0.1146 -0.6473
10934TIP3    H254294   6.172   2.778   0.072  0.1525 -0.0254 -0.6441
10935TIP3   OH254295   6.090   3.362  16.849  0.0626  0.1358 -0.2802
10935TIP3    H154296   6.068   3.439  16.796  1.6817  0.0622 -1.0717
10935TIP3    H254297   6.061   3.385  16.937 -2.4404  0.3523 -1.1261
10936TIP3   OH254298   2.650   4.147  14.521  0.3468 -0.1479 -0.0045
10936TIP3    H154299   2.745   4.136  14.510  0.6570  1.5072  0.9182
10936TIP3    H254300   2.613   4.108  14.442  1.9683  1.6919 -1.7542
10937TIP3   OH254301   2.150   2.093   1.231  0.2282 -0.1208  0.2644
10937TIP3    H154302   2.115   2.182   1.231 -1.4247 -0.7506 -0.1680
10937TIP3    H254303   2.176   2.077   1.140  0.8047  0.0264  0.4032
10938TIP3   OH254304   4.744   1.027   4.728 -0.9047 -0.8602 -0.1070
10938TIP3    H154305   4.693   1.060   4.655  1.1084  2.5017 -0.1240
10938TIP3    H254306   4.720   1.083   4.802  2.4653  0.6316 -0.0553
10939TIP3   OH254307   3.319   0.509  16.518  0.1222 -0.2090  0.3691
10939TIP3    H154308   3.264   0.584  16.493  0.0472 -0.1379  0.7428
10939TIP3    H254309   3.295   0.440  16.456  0.7857  0.3290 -0.4950
10940TIP3   OH254310   0.779   0.968  17.163  0.5789  0.2005  0.3411
10940TIP3    H154311   0.742   1.056  17.162 -0.1398 -0.0588  2.6073
10940TIP3    H254312   0.863   0.977  17.118  0.2192  1.8860 -0.0389
10941TIP3   OH254313   3.466   4.889  11.171  0.3203 -0.0318  0.3666
10941TIP3    H154314   3.494   4.947  11.241 -1.4712 -0.1961  1.2747
10941TIP3    H254315   3.546   4.847  11.139  1.5227  2.3089  0.2390
10942TIP3   OH254316   2.128   0.241   1.677  0.5851  0.3694  0.1811
10942TIP3    H154317   2.049   0.286   1.706  0.8739  0.9931  0.0252
10942TIP3    H254318   2.101   0.189   1.602  0.0623 -0.3944  0.8936
10943TIP3   OH254319   4.926   0.204   6.376  0.3717  0.7299  0.2520
10943TIP3    H154320   4.932   0.156   6.294  0.7354 -0.7906  1.1355
10943TIP3    H254321   4.962   0.290   6.356 -1.1840  0.9779 -1.6106
10944TIP3   OH254322   1.318   5.860  15.330  0.0251  0.4387  0.0924
10944TIP3    H154323   1.247   5.837  15.389 -0.4771  1.2053 -0.2117
10944TIP3    H254324   1.395   5.819  15.368 -0.9926 -2.5100 -0.9049
10945TIP3   OH254325   0.344   3.940  12.970  0.1425 -0.5461 -0.1099
10945TIP3    H154326   0.349   3.913  12.879  0.4544  0.1733 -0.3115
10945TIP3    H254327   0.431   3.973  12.990  0.2077 -1.1064  0.5846
10946TIP3   OH254328   3.583   2.577   3.945  0.3379 -0.1639  0.9109
10946TIP3    H154329   3.583   2.665   3.983  0.4439  0.4159 -0.4219
10946TIP3    H254330   3.653   2.579   3.880 -2.2497  0.0014 -1.9511
10947TIP3   OH254331   6.096   3.952   0.887  0.1083 -0.3653 -0.4257
10947TIP3    H154332   6.010   3.950   0.931  0.2420 -2.9901 -0.1822
10947TIP3    H254333   6.158   3.975   0.956 -0.0045 -1.9320  0.2303
10948TIP3   OH254334   2.593   6.010   4.100 -0.0898 -0.7078  0.1214
10948TIP3    H154335   2.551   6.048   4.177  0.9046 -0.0510  0.3516
10948TIP3    H254336   2.560   6.062   4.027 -0.4774 -0.8641  0.1846
10949TIP3   OH254337   4.560   0.323   1.957  0.2025 -0.4986 -0.4200
10949TIP3    H154338   4.596   0.412   1.959  1.0785 -0.8481 -0.1851
10949TIP3    H254339   4.489   0.325   2.020  1.3368 -0.4197  0.8910
10950TIP3   OH254340   6.528   3.852  16.084  0.4221 -0.0744 -0.0696
10950TIP3    H154341   6.586   3.904  16.028  1.4850 -1.1175  0.0414
10950TIP3    H254342   6.457   3.825  16.026 -0.2209  1.6097 -0.0898
10951TIP3   OH254343   0.925   4.286   6.019 -0.3679  0.2052  0.0773
10951TIP3    H154344   0.968   4.370   6.006  1.1964 -0.6813 -0.6179
10951TIP3    H254345   0.907   4.282   6.113  1.1365  0.5736  0.3853
10952TIP3   OH254346   1.010   1.117   1.958  0.1337  0.9256 -0.1640
10952TIP3    H154347   1.031   1.168   1.879  2.6119 -0.9342 -0.7540
10952TIP3    H254348   0.973   1.035   1.925 -0.7244  0.9622  0.6865
10953TIP3   OH254349   2.178   3.843   4.866  0.2499  0.1698 -0.1702
10953TIP3    H154350   2.163   3.775   4.931 -1.7891 -0.0873 -0.9040
10953TIP3    H254351   2.150   3.924   4.909  0.3311  0.2104 -0.1926
10954TIP3   OH254352   3.799   2.314   5.907 -0.0544  0.2907 -0.0614
10954TIP3    H154353   3.723   2.267   5.872  1.0474 -1.2763 -0.3879
10954TIP3    H254354   3.769   2.350   5.990 -1.1785 -0.2484 -0.2335
10955TIP3   OH254355   5.442   5.526  17.088 -0.3129 -0.3043  0.0154
10955TIP3    H154356   5.361   5.482  17.064  0.8984 -1.4527 -2.0930
10955TIP3    H254357   5.512   5.469  17.054  1.3602  0.9833  1.2101
10956TIP3   OH254358   2.927   6.021  15.560  0.6550  0.3577  0.0592
10956TIP3    H154359   2.891   6.096  15.607  0.5210 -0.0072  0.5397
10956TIP3    H254360   2.906   6.037  15.468  1.4111  1.3604  0.0459
10957TIP3   OH254361   1.631   1.514   3.058 -0.3840  0.0529  0.0173
10957TIP3    H154362   1.625   1.520   3.153 -1.1536  1.2896 -0.0937
10957TIP3    H254363   1.640   1.605   3.029  0.0534 -0.3361 -1.0780
10958TIP3   OH254364   3.943   2.590  16.365  0.1274 -0.0712  0.6156
10958TIP3    H154365   3.932   2.674  16.410 -0.8009 -0.0020  0.2866
10958TIP3    H254366   3.887   2.529  16.413 -0.9606  0.0298 -0.4907
10959TIP3   OH254367   0.470   1.161   4.812  0.5979  0.9383  0.3644
10959TIP3    H154368   0.395   1.123   4.768  0.5047  1.4102  0.1059
10959TIP3    H254369   0.483   1.107   4.890  0.2310  0.6246  0.2060
10960TIP3   OH254370   4.491   3.201   4.667  0.9506 -0.4052 -0.2196
10960TIP3    H154371   4.488   3.263   4.739  1.8229  0.0469 -0.5677
10960TIP3    H254372   4.436   3.239   4.599 -0.0449 -0.9340  0.2749
10961TIP3   OH254373   4.073   0.200   5.511  0.0227  0.1554  0.0743
10961TIP3    H154374   4.163   0.208   5.481  0.7315 -0.6653  1.9416
10961TIP3    H254375   4.055   0.281   5.558 -0.7484  0.9830 -1.5759
10962TIP3   OH254376   2.826   1.978   1.920 -0.1999  0.3846 -0.4485
10962TIP3    H154377   2.814   2.021   1.836  0.5851  1.0187 -0.2459
10962TIP3    H254378   2.748   1.924   1.931 -0.7079  0.9561 -1.1890
10963TIP3   OH254379   5.515   5.504  16.642  0.0772 -0.4990  0.3234
10963TIP3    H154380   5.508   5.559  16.720 -1.0715  0.4713 -0.4539
10963TIP3    H254381   5.597   5.456  16.654  1.4898  1.9374  0.6554
10964TIP3   OH254382   2.163   6.107  14.840  0.3538 -0.2438 -0.1010
10964TIP3    H154383   2.200   6.022  14.816 -0.7344 -1.0854  1.1018
10964TIP3    H254384   2.069   6.097  14.826  0.3487  1.2657 -1.3618
10965TIP3   OH254385   3.300   4.749   4.341 -0.2643 -0.0243  0.2282
10965TIP3    H154386   3.298   4.842   4.367 -2.0498 -0.4557  1.7357
10965TIP3    H254387   3.255   4.746   4.257 -0.5647  0.4020  0.3736
10966TIP3   OH254388   6.802   5.151   0.676  0.9369  0.2563 -0.2646
10966TIP3    H154389   6.812   5.062   0.710  1.0833  1.0653  1.8735
10966TIP3    H254390   6.892   5.182   0.665  0.9052  1.3364  2.2758
10967TIP3   OH254391   5.608   3.355  15.757  0.1432  0.5437  0.1107
10967TIP3    H154392   5.635   3.444  15.782 -1.7880  1.1074  0.2722
10967TIP3    H254393   5.690   3.312  15.733  1.2069  2.1478  0.7020
10968TIP3   OH254394   6.323   1.373  14.863  0.0636  0.2106 -0.5778
10968TIP3    H154395   6.254   1.387  14.799 -0.3856  1.7452  0.2147
10968TIP3    H254396   6.282   1.319  14.930 -0.7260  1.9872  0.4142
10969TIP3   OH254397   5.868   2.077  13.678  0.2746 -0.0954  0.1760
10969TIP3    H154398   5.961   2.054  13.680 -0.1711 -2.0555 -0.7649
10969TIP3    H254399   5.850   2.101  13.587 -0.0325  0.8522  0.4733
10970TIP3   OH254400   3.784   6.166   4.532  0.1013  0.0237  0.0360
10970TIP3    H154401   3.850   6.234   4.517 -0.0236 -0.2292 -1.7234
10970TIP3    H254402   3.793   6.107   4.458 -1.3486 -0.6302  0.3671
10971TIP3   OH254403   2.922   6.730  15.217 -0.2024  0.0226  0.2166
10971TIP3    H154404   3.004   6.756  15.176 -0.7375  1.1189 -0.1657
10971TIP3    H254405   2.874   6.812  15.228  0.1297 -0.1578  3.4647
10972TIP3   OH254406   5.398   4.215   2.422 -0.0878  0.5109  0.1666
10972TIP3    H154407   5.409   4.135   2.369 -1.3984  1.1864 -1.1888
10972TIP3    H254408   5.339   4.189   2.493 -0.2487  0.1783 -0.0860
10973TIP3   OH254409   5.740   6.434  14.748 -0.2380  0.0542  0.3293
10973TIP3    H154410   5.682   6.509  14.742 -1.2490 -0.6371  1.2239
10973TIP3    H254411   5.827   6.468  14.726 -0.8404  1.2729 -0.1839
10974TIP3   OH254412   4.794   4.016   1.272  0.8469  0.5084 -0.0296
10974TIP3    H154413   4.738   4.020   1.194  2.4882 -0.0688 -1.2790
10974TIP3    H254414   4.821   4.106   1.287 -1.5399  1.0004  1.4387
10975TIP3   OH254415   4.042   4.159  13.316 -0.7043  0.0890 -0.0661
10975TIP3    H154416   4.061   4.068  13.340 -1.8207 -0.5561 -1.5096
10975TIP3    H254417   4.051   4.208  13.397  3.4956 -0.6980  0.0564
10976TIP3   OH254418   1.919   5.467  16.888 -0.1914 -0.1769  0.3580
10976TIP3    H154419   1.974   5.436  16.816 -0.4310 -0.8700  0.4692
10976TIP3    H254420   1.966   5.541  16.924  0.5054 -0.5580  0.2331
10977TIP3   OH254421   4.981   1.756   4.599  0.4022 -0.0605  0.3709
10977TIP3    H154422   5.019   1.668   4.605 -1.2492 -0.9918 -2.0943
10977TIP3    H254423   5.017   1.792   4.517 -3.2835 -0.6515 -1.5834
10978TIP3   OH254424   3.869   3.211  14.117 -0.1450 -0.5133  0.1040
10978TIP3    H154425   3.796   3.148  14.122  0.3718 -1.0140  1.6322
10978TIP3    H254426   3.835   3.290  14.159 -0.5313 -0.0232 -1.1216
10979TIP3   OH254427   6.032   5.015  17.112  0.6460  0.5379  0.0806
10979TIP3    H154428   6.008   5.054  17.196 -0.9247 -1.7042  0.7373
10979TIP3    H254429   5.970   5.053  17.049 -0.7908 -0.7515  0.6875
10980TIP3   OH254430   1.761   1.805   2.905 -0.0976 -0.0565 -0.0091
10980TIP3    H154431   1.772   1.769   2.993 -0.5388 -1.2242 -0.4286
10980TIP3    H254432   1.831   1.869   2.896  1.2815 -1.4845  0.3968
10981TIP3   OH254433   0.006   1.612   3.616 -0.3160 -0.0382  0.4397
10981TIP3    H154434  -0.044   1.694   3.609  1.0047  0.6988 -0.6450
10981TIP3    H254435   0.034   1.608   3.707  2.0448  2.2186 -0.1080
10982TIP3   OH254436   1.279   2.197  13.704 -0.3823  0.3963  0.5896
10982TIP3    H154437   1.287   2.108  13.738 -0.8983 -0.2609 -0.9825
10982TIP3    H254438   1.369   2.232  13.706 -0.3329  0.2118  2.1506
10983TIP3   OH254439   1.999   1.641   6.673  0.0056 -0.3359 -0.1361
10983TIP3    H154440   2.092   1.619   6.673  0.1435  0.0641 -2.6131
10983TIP3    H254441   1.956   1.566   6.714  1.1192 -2.0155 -1.9655
10984TIP3   OH254442   4.150   4.875   6.174 -0.2384  0.6607  0.1619
10984TIP3    H154443   4.196   4.925   6.242 -0.7239  0.4831  0.6298
10984TIP3    H254444   4.189   4.788   6.178  1.6605  1.4067 -1.6868
10985TIP3   OH254445   0.721   5.881  15.686  0.2086  0.2339 -0.3068
10985TIP3    H154446   0.753   5.948  15.626 -0.6281  1.2788  0.3885
10985TIP3    H254447   0.690   5.811  15.629 -1.9063  1.8126 -1.1854
10986TIP3   OH254448   5.081   0.421  12.158  0.3874  0.1995  0.2218
10986TIP3    H154449   5.172   0.412  12.130  0.8187  1.5010  1.1653
10986TIP3    H254450   5.083   0.406  12.252 -0.1531  1.6905  0.4754
10987TIP3   OH254451   1.489   1.170  14.073  0.0989 -0.5276  0.2508
10987TIP3    H154452   1.566   1.152  14.019  0.1167  0.7215 -0.1516
10987TIP3    H254453   1.477   1.265  14.067  0.4694 -0.2649  2.9259
10988TIP3   OH254454   0.376   5.628  11.169  0.1621 -0.0255 -0.1178
10988TIP3    H154455   0.429   5.689  11.118  0.2568  0.5831  0.6987
10988TIP3    H254456   0.318   5.684  11.221  0.8696 -0.5855  1.3132
10989TIP3   OH254457   0.320   2.206   1.764  0.1820 -0.9657  0.1389
10989TIP3    H154458   0.335   2.294   1.729  1.3527 -0.7006  1.2663
10989TIP3    H254459   0.243   2.175   1.718 -0.7286  0.9683  0.2906
10990TIP3   OH254460   3.554   6.469   1.839 -0.1474  0.0225 -0.5657
10990TIP3    H154461   3.637   6.460   1.884 -0.4183  1.6387  0.2763
10990TIP3    H254462   3.517   6.552   1.870 -2.1913 -0.7813 -0.7231
10991TIP3   OH254463   4.261   3.313  15.205 -0.3791  0.1992  0.4542
10991TIP3    H154464   4.321   3.266  15.147  0.7488  2.3826 -0.2045
10991TIP3    H254465   4.173   3.289  15.174  0.1926 -0.2458 -0.8507
10992TIP3   OH254466   4.633   2.952  12.540  0.0404 -0.3411 -0.5927
10992TIP3    H154467   4.704   2.983  12.485  1.2080 -2.4790 -0.3467
10992TIP3    H254468   4.666   2.961  12.629 -0.0945 -1.0309 -0.4649
10993TIP3   OH254469   6.078   2.725   5.911 -0.2775  0.1047  0.2473
10993TIP3    H154470   6.105   2.633   5.915 -0.6981  0.0475  2.0807
10993TIP3    H254471   6.111   2.755   5.827  2.1221 -1.0248  0.7276
10994TIP3   OH254472   6.614   0.553   4.481  1.6500  0.1360 -0.0780
10994TIP3    H154473   6.531   0.564   4.527  2.0124 -1.4556  0.9832
10994TIP3    H254474   6.625   0.635   4.432 -0.2843  0.5688  0.1649
10995TIP3   OH254475   2.112   6.716  14.966 -0.1601 -0.2056  0.0662
10995TIP3    H154476   2.070   6.715  15.052 -1.2468 -0.8655 -0.4513
10995TIP3    H254477   2.076   6.794  14.923 -2.3360 -1.7692 -1.0620
10996TIP3   OH254478   5.950   3.442   2.462 -0.1073 -0.4545 -0.5573
10996TIP3    H154479   5.939   3.526   2.419  1.1909 -0.1970 -0.4140
10996TIP3    H254480   6.021   3.399   2.414 -0.8959 -1.5624 -0.7664
10997TIP3   OH254481   6.437   0.152   0.228  0.2605 -0.4743  0.1614
10997TIP3    H154482   6.528   0.172   0.248  0.2547 -1.2309  1.0136
10997TIP3    H254483   6.434   0.144   0.133  1.0677 -0.3654  0.1243
10998TIP3   OH254484   0.896   5.241   5.483  0.4267  0.5188 -0.6530
10998TIP3    H154485   0.943   5.235   5.567  2.0818 -0.8349 -1.6473
10998TIP3    H254486   0.943   5.309   5.434  1.9993 -1.4705 -2.0052
10999TIP3   OH254487   4.351   5.476  13.758  0.1755  0.1729  0.5291
10999TIP3    H154488   4.361   5.448  13.849 -0.9610 -1.6988  0.1143
10999TIP3    H254489   4.440   5.484  13.725  0.6290  2.4744  2.2671
11000TIP3   OH254490   5.119   3.950   2.788  0.3533  0.1104 -0.0725
11000TIP3    H154491   5.135   3.878   2.727  2.3174  0.9471 -0.5633
11000TIP3    H254492   5.103   3.906   2.872 -0.5548 -0.9680 -0.7925
11001TIP3   OH254493   2.175   6.588  15.800  0.0853  0.4157  0.4057
11001TIP3    H154494   2.090   6.616  15.834  0.3068  1.4636  0.1398
11001TIP3    H254495   2.194   6.506  15.845 -0.0542  1.2880  2.0917
11002TIP3   OH254496   2.435   1.881   3.890 -0.2884 -0.2880 -0.2710
11002TIP3    H154497   2.475   1.794   3.895 -0.5109 -0.4499 -1.2728
11002TIP3    H254498   2.503   1.936   3.850  0.2970  0.2838  1.4430
11003TIP3   OH254499   4.785   1.300  14.263  0.3076 -0.3780  0.8471
11003TIP3    H154500   4.869   1.303  14.217 -0.3316 -0.5328 -0.3646
11003TIP3    H254501   4.781   1.212  14.301  0.5185 -0.5152  0.5565
11004TIP3   OH254502   3.326   5.761  10.780 -0.2945 -0.0672 -0.0415
11004TIP3    H154503   3.295   5.735  10.693 -0.8184 -0.5563  0.2888
11004TIP3    H254504   3.331   5.679  10.829  0.3067  0.1718  0.2937
11005TIP3   OH254505   1.349   1.310  11.589  0.8223 -0.1286  0.6393
11005TIP3    H154506   1.277   1.367  11.617  0.3201 -0.4834  0.0772
11005TIP3    H254507   1.312   1.222  11.591  0.8413 -0.1858 -0.9424
11006TIP3   OH254508   2.484   0.164   5.899  0.4704  0.0990  0.3398
11006TIP3    H154509   2.445   0.252   5.897  2.8747  1.1971 -0.8532
11006TIP3    H254510   2.561   0.174   5.955  0.2567 -1.5025  0.9429
11007TIP3   OH254511   0.812   6.672  13.600  0.6717  0.1086 -0.1461
11007TIP3    H154512   0.800   6.579  13.579 -0.8158  0.3330 -0.3203
11007TIP3    H254513   0.789   6.678  13.693  2.2636  0.0423  0.2701
11008TIP3   OH254514   4.698   4.268  16.044  0.3780 -0.2213  0.2458
11008TIP3    H154515   4.628   4.208  16.019  0.5254  0.1910 -1.1805
11008TIP3    H254516   4.739   4.294  15.962  0.5867  1.5232  0.8747
11009TIP3   OH254517   3.151   5.210   5.288  0.4107 -0.0419  0.3333
11009TIP3    H154518   3.176   5.118   5.285  1.2975  0.1561  1.4914
11009TIP3    H254519   3.210   5.249   5.352 -0.1594  1.2744  0.0728
11010TIP3   OH254520   2.347   2.261  15.870 -0.1558  0.6299  0.3936
11010TIP3    H154521   2.387   2.174  15.880 -1.7662 -0.0744  0.9082
11010TIP3    H254522   2.407   2.320  15.915 -0.2130 -0.5560  2.0930
11011TIP3   OH254523   6.354   2.672  15.796 -0.1836 -0.0841  0.1513
11011TIP3    H154524   6.272   2.653  15.841 -0.8258  2.0854 -0.0302
11011TIP3    H254525   6.384   2.587  15.763 -2.8917 -0.7604 -0.6732
11012TIP3   OH254526   1.100   2.748  12.590 -0.5844 -0.7458  0.4755
11012TIP3    H154527   1.046   2.733  12.512 -0.4178 -2.2789  0.6351
11012TIP3    H254528   1.161   2.817  12.564 -0.3373 -1.4478 -0.8593
11013TIP3   OH254529   5.456   2.266   2.897 -0.2365  0.3799  0.5160
11013TIP3    H154530   5.410   2.320   2.961  2.2926  2.5777  0.5793
11013TIP3    H254531   5.484   2.188   2.945 -2.0848 -0.0124  0.9707
11014TIP3   OH254532   5.263   1.156  11.779 -0.3405 -0.4128  0.2138
11014TIP3    H154533   5.329   1.177  11.713  0.5240 -0.7858  0.9418
11014TIP3    H254534   5.215   1.238  11.792 -0.6375 -0.3901 -0.9998
11015TIP3   OH254535   3.529   1.503   2.705 -0.6309  0.8022 -0.5000
11015TIP3    H154536   3.439   1.472   2.693 -0.3419  0.2711 -1.4479
11015TIP3    H254537   3.583   1.433   2.666  0.0231  2.6728 -3.0808
11016TIP3   OH254538   3.208   2.035  11.700  0.9667 -0.3095  0.1391
11016TIP3    H154539   3.121   2.075  11.694  0.0972 -2.0844  0.6809
11016TIP3    H254540   3.199   1.951  11.655  1.9395 -1.2544  1.6890
11017TIP3   OH254541   1.999   4.321  16.315  0.6507 -0.6080  0.7165
11017TIP3    H154542   2.048   4.348  16.237 -2.2760 -0.2225 -1.0597
11017TIP3    H254543   1.995   4.226  16.308  0.2910 -0.5648  0.3455
11018TIP3   OH254544   5.033   0.661   4.695  0.4011 -1.0011 -0.8927
11018TIP3    H154545   4.951   0.686   4.736  1.5430  0.2017  0.7352
11018TIP3    H254546   5.058   0.737   4.642  0.7062 -1.1785 -1.0089
11019TIP3   OH254547   5.808   4.771   1.367  0.0841 -0.0878 -0.0744
11019TIP3    H154548   5.751   4.839   1.403  0.0851  0.7873 -1.6374
11019TIP3    H254549   5.893   4.787   1.408  0.1190  0.9694 -0.5175
11020TIP3   OH254550   3.393   1.623   5.409  0.2399 -0.6559 -0.0480
11020TIP3    H154551   3.480   1.592   5.435 -0.5653 -0.5479  2.8878
11020TIP3    H254552   3.337   1.546   5.416 -0.1048 -0.4935 -0.9757
11021TIP3   OH254553   4.062   3.751   4.552 -0.3185 -0.6855 -0.3139
11021TIP3    H154554   4.011   3.832   4.555 -0.2307 -0.5913 -1.2302
11021TIP3    H254555   4.153   3.780   4.558 -0.2962 -0.7294 -0.4408
11022TIP3   OH254556   4.411   2.077  16.678  0.2836  0.7728  0.3936
11022TIP3    H154557   4.326   2.033  16.684  1.8991 -2.3268  1.8961
11022TIP3    H254558   4.410   2.141  16.749 -0.7882  0.7591  0.3962
11023TIP3   OH254559   3.849   4.893  15.377  0.0654  0.3027 -0.0528
11023TIP3    H154560   3.868   4.983  15.404 -1.0779  0.3504  0.6227
11023TIP3    H254561   3.769   4.900  15.325 -0.0486 -0.3292  0.0343
11024TIP3   OH254562   1.235   6.060  16.541  0.5047  0.1481 -0.0987
11024TIP3    H154563   1.142   6.072  16.561  0.2867  1.7828 -1.8906
11024TIP3    H254564   1.240   5.973  16.502 -0.0964 -0.3598  0.9259
11025TIP3   OH254565   2.133   0.142  10.618 -0.7388 -0.3180  0.2241
11025TIP3    H154566   2.221   0.164  10.588 -0.4994 -1.0490  0.3782
11025TIP3    H254567   2.077   0.160  10.543 -0.4058 -0.1918  0.0065
11026TIP3   OH254568   2.794   2.696  17.087  0.6912  0.1465  0.9598
11026TIP3    H154569   2.846   2.774  17.069  2.2501 -0.5818  2.2042
11026TIP3    H254570   2.846   2.624  17.052 -0.2256 -0.4415  0.8060
11027TIP3   OH254571   2.545   2.282   2.237 -0.8776  0.4354  0.1392
11027TIP3    H154572   2.490   2.207   2.261 -0.8920 -0.0711 -1.4224
11027TIP3    H254573   2.491   2.358   2.258 -1.8681 -0.0429 -0.6041
11028TIP3   OH254574   6.699   4.817  14.058 -0.4624  0.4469 -0.0338
11028TIP3    H154575   6.681   4.730  14.096 -0.9396  1.4248  2.0478
11028TIP3    H254576   6.793   4.817  14.042 -0.1423  0.1688  1.6627
11029TIP3   OH254577   1.353   0.714  13.432 -0.4390  0.1737  0.4859
11029TIP3    H154578   1.442   0.709  13.399 -0.8199 -1.1125 -0.4016
11029TIP3    H254579   1.353   0.789  13.492  1.0848  0.5102  0.0762
11030TIP3   OH254580   6.696   0.902  11.810  0.1401  0.1227  0.4751
11030TIP3    H154581   6.663   0.836  11.748 -0.7892  0.4186  0.6529
11030TIP3    H254582   6.784   0.871  11.833  0.2429 -0.3263 -0.5035
11031TIP3   OH254583   0.661   0.484   5.798  0.0055 -0.3723 -0.3215
11031TIP3    H154584   0.678   0.396   5.832  0.0007  0.0029  0.6698
11031TIP3    H254585   0.736   0.536   5.826 -0.0284 -0.0390 -0.8367
11032TIP3   OH254586   3.599   5.242   1.979 -0.1004 -1.0876 -0.2182
11032TIP3    H154587   3.553   5.285   2.051 -1.2949 -1.4404 -0.7609
11032TIP3    H254588   3.563   5.282   1.900 -0.7360 -2.6005 -0.7073
11033TIP3   OH254589   1.678   0.596  15.561 -0.4736  0.1092  0.1641
11033TIP3    H154590   1.588   0.592  15.528 -0.4813 -0.3526  0.2429
11033TIP3    H254591   1.677   0.668  15.624 -1.0015 -0.4505  0.8109
11034TIP3   OH254592   6.769   5.229  14.536 -0.1500  0.2614 -0.7871
11034TIP3    H154593   6.813   5.146  14.516  0.1104  0.3826 -0.7122
11034TIP3    H254594   6.812   5.261  14.615 -0.7944  0.0715 -0.3478
11035TIP3   OH254595   6.103   5.050  12.033 -0.6052 -0.0080  0.2237
11035TIP3    H154596   6.034   5.025  11.972 -2.4395 -0.6446  2.4782
11035TIP3    H254597   6.094   5.145  12.041 -0.6968  0.0105 -0.1034
11036TIP3   OH254598   1.783   4.046  12.889 -0.2373 -0.3107 -0.4998
11036TIP3    H154599   1.749   4.007  12.970  1.1034  1.8145  1.1522
11036TIP3    H254600   1.772   4.141  12.902  1.4048  0.1309 -2.1514
11037TIP3   OH254601   1.379   2.922  15.071  0.6648 -0.2330 -0.2094
11037TIP3    H154602   1.389   2.979  15.148  0.7210  0.0771 -0.4467
11037TIP3    H254603   1.285   2.920  15.055  0.5718 -0.9641  0.3643
11038TIP3   OH254604   2.878   6.295   1.788  0.0776 -0.1833  0.2537
11038TIP3    H154605   2.908   6.302   1.697  1.2856  0.4282  0.6880
11038TIP3    H254606   2.845   6.382   1.808 -1.7191 -0.7678 -0.1180
11039TIP3   OH254607   0.634   1.487   2.404 -0.4264 -0.6465 -0.1888
11039TIP3    H154608   0.643   1.553   2.473 -2.6021 -0.9576  0.4016
11039TIP3    H254609   0.542   1.488   2.381 -0.1546 -2.2452 -1.4370
11040TIP3   OH254610   0.940   6.492   1.570 -0.6333  0.0189  0.2941
11040TIP3    H154611   0.996   6.565   1.544  1.2223 -1.2956  0.4489
11040TIP3    H254612   1.000   6.418   1.579 -2.5853 -1.7650 -0.7621
11041TIP3   OH254613   0.492   5.137   0.726 -0.1404 -0.4260  0.1023
11041TIP3    H154614   0.416   5.194   0.718 -0.3517 -0.3227  2.4323
11041TIP3    H254615   0.566   5.196   0.739 -0.3122 -0.6273  2.1780
11042TIP3   OH254616   4.836   0.278   0.571 -0.3505  0.1062 -0.2362
11042TIP3    H154617   4.801   0.189   0.572 -1.9692  0.7300 -0.5551
11042TIP3    H254618   4.759   0.335   0.575  0.6673  1.4997 -0.0173
11043TIP3   OH254619   2.230   3.500  14.371  0.7003 -0.5248 -0.7880
11043TIP3    H154620   2.159   3.531  14.427 -0.0497 -1.0145 -1.4641
11043TIP3    H254621   2.297   3.469  14.432 -0.8683 -2.8021 -0.1550
11044TIP3   OH254622   4.741   5.850  13.091  0.1115 -0.9246 -0.3922
11044TIP3    H154623   4.646   5.845  13.078  0.0444  1.7337 -1.1678
11044TIP3    H254624   4.751   5.901  13.171  0.9009 -2.0516  0.2449
11045TIP3   OH254625   5.767   5.117  17.027  0.0441  0.4126 -0.3116
11045TIP3    H154626   5.716   5.194  17.005  0.3897  0.6626 -0.2468
11045TIP3    H254627   5.727   5.083  17.108  0.2205  0.8285 -0.0487
11046TIP3   OH254628   1.668   6.430  13.451  0.5013  0.2487 -0.3355
11046TIP3    H154629   1.654   6.524  13.441 -0.0934  0.0757 -1.2501
11046TIP3    H254630   1.586   6.391  13.422  0.3264 -0.5082  1.1929
11047TIP3   OH254631   5.447   3.523  11.922  0.1326 -0.1060  0.1484
11047TIP3    H154632   5.436   3.599  11.866  0.6068 -0.2106 -0.0904
11047TIP3    H254633   5.464   3.450  11.862  0.7763 -0.1930  0.4301
11048TIP3   OH254634   5.310   2.790   1.822  0.4489 -0.5672  0.0644
11048TIP3    H154635   5.379   2.749   1.875  0.6244  1.6935  1.6239
11048TIP3    H254636   5.357   2.832   1.750  0.4145 -1.5508 -0.5477
11049TIP3   OH254637   1.562   4.921  14.694 -0.3837 -0.1478 -0.4824
11049TIP3    H154638   1.606   4.930  14.778 -0.4040  1.1732 -0.6009
11049TIP3    H254639   1.589   4.835  14.662  1.3748  0.2551 -0.1395
11050TIP3   OH254640   5.022   0.132  11.143  0.3333  0.2888 -0.4210
11050TIP3    H154641   4.934   0.118  11.178 -1.0564  1.1274 -3.3667
11050TIP3    H254642   5.035   0.226  11.150  0.9646  0.1705 -0.0459
11051TIP3   OH254643   6.571   4.746   1.921 -0.3313 -0.0362 -0.1070
11051TIP3    H154644   6.628   4.803   1.971 -0.7395 -0.6807  1.1258
11051TIP3    H254645   6.519   4.805   1.866  1.7515  0.5235 -1.5143
11052TIP3   OH254646   1.083   3.702   2.048 -0.2844 -0.2498  1.0230
11052TIP3    H154647   1.134   3.783   2.052 -2.3596  1.1911 -0.2125
11052TIP3    H254648   1.137   3.637   2.093  2.0318  1.4910  0.8765
11053TIP3   OH254649   4.970   4.556   1.389 -0.2226 -0.0782  0.0162
11053TIP3    H154650   5.055   4.598   1.373 -0.1543 -0.4855 -0.7634
11053TIP3    H254651   4.918   4.622   1.435  0.1941  0.5210 -0.3637
11054TIP3   OH254652   4.930   5.077  15.115 -0.3087 -0.2076 -0.1747
11054TIP3    H154653   4.919   5.172  15.107  0.3625 -0.2850 -2.2690
11054TIP3    H254654   5.019   5.060  15.084  0.7920 -1.1874  3.2797
11055TIP3   OH254655   2.654   3.152   2.169 -0.0742  0.3917 -0.9840
11055TIP3    H154656   2.719   3.174   2.236 -0.7785 -0.3598 -0.0432
11055TIP3    H254657   2.611   3.073   2.202 -1.2734  0.7207 -1.7356
11056TIP3   OH254658   3.363   6.341  12.106  0.3710  0.5023 -0.0488
11056TIP3    H154659   3.406   6.424  12.084 -0.6851  0.3620 -2.7969
11056TIP3    H254660   3.310   6.320  12.029 -1.4246 -1.4125  1.6399
11057TIP3   OH254661   3.748   1.268   2.989  0.4951 -0.3020  0.4213
11057TIP3    H154662   3.687   1.341   2.996 -1.6041 -1.9188 -0.5522
11057TIP3    H254663   3.768   1.262   2.896 -0.0137 -1.4719  0.3796
11058TIP3   OH254664   3.661   2.294  14.034 -0.3590 -0.0050  0.7185
11058TIP3    H154665   3.668   2.283  14.129  0.8866  0.5958  0.7066
11058TIP3    H254666   3.740   2.341  14.009  0.0477 -1.4636 -0.8237
11059TIP3   OH254667   2.205   5.070  14.395  0.5656  0.0822 -0.0820
11059TIP3    H154668   2.216   5.068  14.491  2.4833  2.9847 -0.1711
11059TIP3    H254669   2.283   5.027  14.361  0.4366  0.0700 -0.3649
11060TIP3   OH254670   5.999   4.274   3.549 -0.1744  1.0026  0.1077
11060TIP3    H154671   6.006   4.235   3.462  2.3137 -1.4350  1.3492
11060TIP3    H254672   6.058   4.350   3.546  0.2106  0.6898 -0.2027
11061TIP3   OH254673   5.670   0.295  11.097  0.2436 -0.2184 -0.4444
11061TIP3    H154674   5.731   0.266  11.029 -0.3496  0.6980 -1.3967
11061TIP3    H254675   5.606   0.349  11.050 -0.2117  0.3863  0.8437
11062TIP3   OH254676   2.936   5.872   6.052 -0.5147 -0.5324 -0.8184
11062TIP3    H154677   2.873   5.820   6.102  0.0753 -1.5334 -1.0967
11062TIP3    H254678   2.935   5.834   5.965  0.2616 -0.3706 -0.9044
11063TIP3   OH254679   5.719   5.299  16.714 -0.1214  0.0580 -0.0165
11063TIP3    H154680   5.659   5.233  16.680  2.6080 -2.5453  0.0026
11063TIP3    H254681   5.762   5.334  16.636 -0.8924  1.1537  0.0448
11064TIP3   OH254682   4.563   1.459  16.334 -0.7058  0.3543  1.0085
11064TIP3    H154683   4.523   1.511  16.403  0.1555 -1.4664  2.9363
11064TIP3    H254684   4.620   1.520  16.287 -1.0320  1.5307  2.1392
11065TIP3   OH254685   5.306   4.688  15.888  0.1647  0.4345 -0.0340
11065TIP3    H154686   5.334   4.738  15.811 -1.7971  2.7219  0.6879
11065TIP3    H254687   5.356   4.725  15.961 -0.0023  0.1156  0.2455
11066TIP3   OH254688   5.818   2.934  15.861 -0.2425 -0.1621  0.5523
11066TIP3    H154689   5.865   2.991  15.801 -1.1847  0.9743  0.8625
11066TIP3    H254690   5.798   2.856  15.809 -0.8523  0.7082 -0.5649
11067TIP3   OH254691   2.918   5.581  11.462 -0.0889 -0.2915 -0.4775
11067TIP3    H154692   2.892   5.652  11.404 -0.7776 -0.0634  0.1017
11067TIP3    H254693   3.008   5.602  11.487 -0.2805  0.3584 -0.3350
11068TIP3   OH254694   6.352   4.098   3.609 -0.3086  0.2030  0.6795
11068TIP3    H154695   6.294   4.168   3.639 -0.1945  0.3009  0.6678
11068TIP3    H254696   6.363   4.113   3.515  0.6857  0.8750  0.8970
11069TIP3   OH254697   0.574   6.508   1.236 -0.2371  0.0982  0.1575
11069TIP3    H154698   0.656   6.459   1.230 -1.0011 -1.1357 -0.7180
11069TIP3    H254699   0.556   6.535   1.146 -0.4262  0.9689  0.4554
11070TIP3   OH254700   0.818   3.947   5.819 -0.6663  0.7529  0.1151
11070TIP3    H154701   0.777   3.939   5.905  0.1945 -0.1518  0.4555
11070TIP3    H254702   0.832   4.041   5.808  2.3420  0.6877  2.4863
11071TIP3   OH254703   4.224   5.603   2.819 -0.0905  0.1774 -0.0083
11071TIP3    H154704   4.134   5.634   2.832 -0.4528 -1.1938  0.9131
11071TIP3    H254705   4.279   5.671   2.857 -0.7424  0.9749 -0.4834
11072TIP3   OH254706   3.128   6.279   0.786  0.2564 -0.2777  0.3781
11072TIP3    H154707   3.192   6.280   0.716  1.5050  2.4231  1.5047
11072TIP3    H254708   3.175   6.245   0.862 -1.2773 -3.8747 -0.1841
11073TIP3   OH254709   0.053   6.750   3.907 -0.1725 -0.4372  0.4933
11073TIP3    H154710   0.132   6.776   3.954 -0.7594 -0.7936  1.7050
11073TIP3    H254711   0.008   6.832   3.888 -0.1342 -0.3120  0.9336
11074TIP3   OH254712   6.766   4.443  12.401 -0.0964 -0.4159 -0.9343
11074TIP3    H154713   6.756   4.533  12.370 -0.9191  0.9387  2.9595
11074TIP3    H254714   6.699   4.394  12.353 -2.8283  2.0166  0.2279
11075TIP3   OH254715   3.317   2.738   6.013  0.1561 -0.1883  0.7240
11075TIP3    H154716   3.375   2.789   5.958 -1.0866  0.3515 -0.1032
11075TIP3    H254717   3.305   2.791   6.092 -0.3296  0.3543  0.2922
11076TIP3   OH254718   0.545   2.976   4.939  0.7465 -0.7227 -0.1189
11076TIP3    H154719   0.472   2.979   4.877 -0.6423 -0.9353  1.4807
11076TIP3    H254720   0.573   2.884   4.937  0.7821 -0.7076 -0.4951
11077TIP3   OH254721   2.002   5.289   4.843  0.3667 -0.0262 -0.0886
11077TIP3    H154722   1.921   5.338   4.829  1.2687  1.4198 -0.4181
11077TIP3    H254723   2.006   5.228   4.770  1.2053  2.1987 -1.9788
11078TIP3   OH254724   2.224   2.903  10.957 -0.1511 -0.6842 -0.0186
11078TIP3    H154725   2.289   2.860  10.901 -0.0090  0.5905 -0.8458
11078TIP3    H254726   2.140   2.868  10.927  0.0921 -1.9828  0.7449
11079TIP3   OH254727   4.240   0.367  13.206  0.2478  0.4531  0.5565
11079TIP3    H154728   4.146   0.375  13.225 -0.2869 -1.7392 -1.0142
11079TIP3    H254729   4.275   0.318  13.280 -0.4816 -1.6169 -0.4286
11080TIP3   OH254730   0.075   1.207  15.193 -0.4246  0.3829  0.1656
11080TIP3    H154731   0.124   1.129  15.217  0.5534  0.4474 -1.5575
11080TIP3    H254732  -0.016   1.187  15.217  0.1578 -0.3864  1.8180
11081TIP3   OH254733   1.221   4.862  13.252  0.2987  0.6056  0.4097
11081TIP3    H154734   1.152   4.865  13.318 -0.6208 -2.1339 -0.3424
11081TIP3    H254735   1.235   4.768  13.237  2.2761  1.1648 -1.4182
11082TIP3   OH254736   2.479   3.586   3.387 -0.4762 -0.2397  0.5106
11082TIP3    H154737   2.422   3.620   3.318  0.5065 -0.7553 -0.5823
11082TIP3    H254738   2.554   3.646   3.387  0.9749 -1.9701 -1.0005
11083TIP3   OH254739   1.546   1.314   2.882 -0.3262  0.6224  0.2579
11083TIP3    H154740   1.569   1.388   2.938 -0.3412 -0.9759  2.4498
11083TIP3    H254741   1.462   1.338   2.844 -0.8176  1.3414  1.7519
11084TIP3   OH254742   0.253   1.912  17.258  0.5436 -0.4126 -0.2810
11084TIP3    H154743   0.186   1.857  17.299 -0.1777  0.1375 -0.6952
11084TIP3    H254744   0.312   1.936  17.329 -0.0290 -0.4341  0.2061
11085TIP3   OH254745   6.027   5.086   1.189  0.0306  0.4299 -0.5769
11085TIP3    H154746   6.005   4.996   1.164  1.3115 -0.1135  0.2180
11085TIP3    H254747   5.994   5.139   1.117 -1.2624 -0.6155 -0.7847
11086TIP3   OH254748   0.799   5.184  13.882 -0.6810  0.0507 -0.2193
11086TIP3    H154749   0.787   5.165  13.789  1.0962  2.9318 -1.1006
11086TIP3    H254750   0.885   5.147  13.904 -0.7476  0.0724  0.0841
11087TIP3   OH254751   5.886   4.966   4.511 -0.0384  0.2252  0.4264
11087TIP3    H154752   5.856   5.001   4.427  3.1113  1.3823 -0.2813
11087TIP3    H254753   5.894   4.872   4.496 -3.1839 -0.1542  0.6633
11088TIP3   OH254754   2.179   5.594  11.206  0.4265  0.1518 -0.0964
11088TIP3    H154755   2.268   5.624  11.192 -0.6293  2.9411 -1.1393
11088TIP3    H254756   2.189   5.505  11.240  3.5786  0.4415 -0.1124
11089TIP3   OH254757   6.526   6.175  14.165  0.6052 -0.4046  0.2473
11089TIP3    H154758   6.552   6.091  14.128 -0.9187 -1.5224  1.6424
11089TIP3    H254759   6.546   6.168  14.258  2.3085  1.5398  0.0698
11090TIP3   OH254760   3.209   0.057   0.655 -0.3092  0.2103 -0.1521
11090TIP3    H154761   3.293   0.095   0.683 -0.3362  1.0756 -1.2222
11090TIP3    H254762   3.233  -0.026   0.615  0.1020  0.7276 -0.9873
11091TIP3   OH254763   0.782   5.910   2.488  0.5596 -0.9817  0.8761
11091TIP3    H154764   0.815   5.925   2.400  0.3200 -0.6696  0.8351
11091TIP3    H254765   0.800   5.992   2.535  2.3213 -1.7873  1.6407
11092TIP3   OH254766   4.335   5.468  14.786  0.8339 -0.0372  0.5752
11092TIP3    H154767   4.347   5.464  14.881 -0.3630 -1.9804  0.6791
11092TIP3    H254768   4.413   5.426  14.750  0.2842 -1.2494  0.7852
11093TIP3   OH254769   6.414   2.009   3.034 -0.5119  0.0770  0.3125
11093TIP3    H154770   6.507   2.001   3.053 -0.6731  1.1580  1.7010
11093TIP3    H254771   6.372   1.951   3.097 -0.8492  0.7709  0.7385
11094TIP3   OH254772   1.270   0.322   1.123 -0.7145 -0.8741 -0.3440
11094TIP3    H154773   1.276   0.274   1.206  0.7515 -0.1253 -0.0031
11094TIP3    H254774   1.192   0.376   1.132 -0.1193 -0.1809  0.9009
11095TIP3   OH254775   5.459   1.104  13.955 -0.0057 -0.2082 -0.4406
11095TIP3    H154776   5.410   1.079  13.876 -0.2035 -1.7952  0.1585
11095TIP3    H254777   5.547   1.123  13.923  0.1232 -1.5945 -0.9791
11096TIP3   OH254778   6.740   4.115  11.758 -0.5632 -0.1089 -0.3187
11096TIP3    H154779   6.816   4.173  11.753  0.1104 -0.9855 -0.5392
11096TIP3    H254780   6.670   4.164  11.714  0.1719  0.2639 -1.1126
11097TIP3   OH254781   5.841   4.435   4.571 -0.0771 -0.0739  0.2406
11097TIP3    H154782   5.919   4.388   4.540 -0.9866 -0.9040 -0.8310
11097TIP3    H254783   5.770   4.372   4.562 -1.0560  1.0146  0.2145
11098TIP3   OH254784   5.503   2.850  14.365 -0.2001  0.4803 -0.2702
11098TIP3    H154785   5.517   2.787  14.294  2.0923 -0.5210  1.0081
11098TIP3    H254786   5.444   2.804  14.425 -0.5894  0.5695 -0.5802
11099TIP3   OH254787   3.006   6.659  16.296 -0.3258 -0.6541 -0.1654
11099TIP3    H154788   3.024   6.742  16.341 -0.7854  0.7531 -2.4619
11099TIP3    H254789   3.059   6.594  16.342  0.5864  1.0466  1.2428
11100TIP3   OH254790   1.720   4.293   3.930  0.3746 -0.3908  0.1865
11100TIP3    H154791   1.663   4.347   3.876  1.4233  1.6762  1.1155
11100TIP3    H254792   1.764   4.235   3.867  1.1855  1.6048 -1.1517
11101TIP3   OH254793   4.642   4.587   5.615  0.3754 -0.3120 -0.6251
11101TIP3    H154794   4.712   4.613   5.675 -0.0725  0.0556 -0.2494
11101TIP3    H254795   4.562   4.619   5.657  0.1302  0.6740 -1.8186
11102TIP3   OH254796   5.015   6.507  14.164 -0.4849 -0.7866  0.4296
11102TIP3    H154797   5.054   6.429  14.126 -0.2845 -0.0831 -0.8456
11102TIP3    H254798   5.001   6.485  14.256  1.3430 -1.6376  0.5228
11103TIP3   OH254799   6.326   0.317   0.754 -0.2168  0.0277 -0.1867
11103TIP3    H154800   6.328   0.300   0.660 -0.6938 -1.0427 -0.0113
11103TIP3    H254801   6.332   0.230   0.795  0.3792  0.5152  0.7734
11104TIP3   OH254802   3.447   2.544  14.233 -0.3435 -0.3109 -0.4700
11104TIP3    H154803   3.418   2.477  14.296  0.6825 -0.9908 -0.7088
11104TIP3    H254804   3.368   2.567  14.184 -1.2559  0.5588  1.3582
11105TIP3   OH254805   2.073   3.966   4.312  0.3632  0.3851 -0.1199
11105TIP3    H154806   1.977   3.976   4.312  0.2067 -1.0850 -0.9514
11105TIP3    H254807   2.094   3.942   4.403  0.1355  2.3272  0.4726
11106TIP3   OH254808   2.446   0.243  13.934 -0.4567  0.4119  0.1148
11106TIP3    H154809   2.493   0.324  13.952  0.4737  0.5072 -2.5250
11106TIP3    H254810   2.424   0.247  13.841 -3.1496 -0.9720  0.6137
11107TIP3   OH254811   1.810   3.115   1.817 -0.2873 -0.2460  0.5964
11107TIP3    H154812   1.789   3.104   1.909  1.0818 -0.8051  0.8578
11107TIP3    H254813   1.767   3.040   1.774 -0.1872 -0.4798  0.8999
11108TIP3   OH254814   1.670   4.743   0.186 -0.1841 -0.1617 -0.6167
11108TIP3    H154815   1.726   4.666   0.189 -0.2274 -0.1997 -0.7533
11108TIP3    H254816   1.712   4.800   0.120 -0.3896 -0.2570 -0.8315
11109TIP3   OH254817   3.564   3.275   0.258 -0.4838  0.9361 -0.7569
11109TIP3    H154818   3.536   3.363   0.283  0.2021  0.8296  0.4186
11109TIP3    H254819   3.482   3.227   0.246 -0.8615  1.0704  1.0395
11110TIP3   OH254820   5.052   4.194   5.127 -0.8808 -0.7566 -0.0541
11110TIP3    H154821   5.016   4.109   5.154 -0.6943 -1.6081 -2.4025
11110TIP3    H254822   4.975   4.248   5.112 -0.9876 -0.2293  2.2303
11111TIP3   OH254823   0.911   0.224  14.479  0.2102 -0.4769 -0.0090
11111TIP3    H154824   0.929   0.304  14.527 -2.7683  1.3812 -1.8015
11111TIP3    H254825   0.848   0.176  14.533 -1.0411  0.3182 -0.7275
11112TIP3   OH254826   4.330   4.468  15.851 -0.1147  0.1985 -0.0508
11112TIP3    H154827   4.410   4.518  15.870  0.4487 -1.2085  1.3877
11112TIP3    H254828   4.360   4.391  15.804 -0.7078 -0.0099 -0.0936
11113TIP3   OH254829   0.179   6.349   1.108  0.6354  0.1857 -0.5088
11113TIP3    H154830   0.257   6.300   1.082  0.3760 -0.8446  0.6373
11113TIP3    H254831   0.138   6.295   1.175 -1.6083  0.2481 -1.8118
11114TIP3   OH254832   3.042   2.465   1.654  0.3702  0.4054  0.5881
11114TIP3    H154833   3.060   2.532   1.721  0.9012  1.9724 -1.0620
11114TIP3    H254834   3.100   2.392   1.677  1.4484  1.4101  1.1378
11115TIP3   OH254835   1.845   3.614   3.319  0.0043  0.5863 -0.3743
11115TIP3    H154836   1.762   3.571   3.338 -1.4566  3.2231 -0.5691
11115TIP3    H254837   1.910   3.544   3.325 -2.5394 -2.2078 -3.1952
11116TIP3   OH254838   4.846   5.627  10.912  0.4125  0.5139 -0.1912
11116TIP3    H154839   4.918   5.569  10.934 -0.5166 -0.5291  0.1308
11116TIP3    H254840   4.816   5.597  10.827 -0.7105 -0.1173  0.4215
11117TIP3   OH254841   6.810   5.054   4.085 -0.0183 -0.0522  0.3625
11117TIP3    H154842   6.821   5.052   4.180 -0.7416 -1.4106  0.4291
11117TIP3    H254843   6.759   4.975   4.065  2.2601 -1.1604 -1.4067
11118TIP3   OH254844   0.417   1.986  12.126  0.1856 -0.1610 -0.3212
11118TIP3    H154845   0.329   1.979  12.088  0.0208 -0.7591  0.1734
11118TIP3    H254846   0.402   2.012  12.217  0.5714  0.9283 -0.5519
11119TIP3   OH254847   0.572   0.808  13.585  0.6767 -0.4393  0.1345
11119TIP3    H154848   0.527   0.811  13.500  0.5257  1.4509  0.2615
11119TIP3    H254849   0.504   0.780  13.647  0.8552 -2.0855 -0.4031
11120TIP3   OH254850   4.028   6.205  12.047 -0.1859  0.2879 -0.0556
11120TIP3    H154851   4.002   6.156  11.969  1.7169  0.3166 -0.7335
11120TIP3    H254852   3.975   6.285  12.045 -2.1528 -0.9545  0.2020
11121TIP3   OH254853   2.622   2.931   0.651 -0.1771  0.0363  0.6062
11121TIP3    H154854   2.529   2.924   0.629 -0.1599 -0.9876  0.8383
11121TIP3    H254855   2.625   2.917   0.746  0.1326  0.8031  0.7054
11122TIP3   OH254856   2.997   4.426  13.266 -0.1522 -0.1956  0.0948
11122TIP3    H154857   3.012   4.470  13.350 -0.9064  0.5127 -0.1384
11122TIP3    H254858   2.918   4.374  13.280  0.0706 -0.5585  0.0089
11123TIP3   OH254859   0.496   3.970  10.808 -0.0304 -0.3209  0.1397
11123TIP3    H154860   0.512   3.980  10.715 -1.0586 -0.7761 -0.0983
11123TIP3    H254861   0.453   4.051  10.835 -0.4795 -0.5306  0.0475
11124TIP3   OH254862   4.846   0.190  16.488 -0.1141  0.4489  0.2881
11124TIP3    H154863   4.929   0.236  16.496 -0.1130  0.3919  0.6071
11124TIP3    H254864   4.870   0.097  16.491 -0.0709  0.4157 -0.7593
11125TIP3   OH254865   6.400   5.680   1.890 -0.3352  0.1176 -0.0413
11125TIP3    H154866   6.358   5.735   1.956 -1.6133 -1.1635  0.2537
11125TIP3    H254867   6.395   5.731   1.809 -2.3449  0.0676  0.0240
11126TIP3   OH254868   5.124   6.716  11.925 -0.2043 -0.3389  0.1828
11126TIP3    H154869   5.059   6.737  11.993 -1.2787  0.1267 -0.9809
11126TIP3    H254870   5.200   6.771  11.946 -0.4002 -0.4430  1.1971
11127TIP3   OH254871   5.922   1.231  15.602 -0.0571 -0.4981  0.2348
11127TIP3    H154872   5.965   1.212  15.686 -1.3126  0.1721  1.0461
11127TIP3    H254873   5.875   1.151  15.580  0.5541 -0.7907  0.0011
11128TIP3   OH254874   4.207   4.561   1.869 -0.3082 -0.2463  0.1667
11128TIP3    H154875   4.142   4.607   1.922  0.2696  2.2250 -1.1580
11128TIP3    H254876   4.244   4.496   1.928 -0.1958  1.9416  2.6294
11129TIP3   OH254877   2.791   6.153  16.077 -0.2945  0.4814 -0.1615
11129TIP3    H154878   2.859   6.219  16.090 -0.0392 -0.0177  1.0647
11129TIP3    H254879   2.768   6.124  16.165  1.1782 -2.6400 -0.7511
11130TIP3   OH254880   0.707   4.212   5.874 -0.1483 -0.3291 -0.7574
11130TIP3    H154881   0.636   4.239   5.933  0.2356  0.1062 -0.4883
11130TIP3    H254882   0.787   4.235   5.921  0.2121 -2.3734 -0.3296
11131TIP3   OH254883   3.988   5.694  14.315 -0.2908  0.7979 -0.1532
11131TIP3    H154884   3.981   5.703  14.220 -0.0673  0.2608 -0.2244
11131TIP3    H254885   3.997   5.784  14.347 -1.4192  1.0589 -0.5467
11132TIP3   OH254886   4.973   4.977  12.070 -0.2396 -0.2982  0.3915
11132TIP3    H154887   4.924   4.900  12.097  0.2176 -0.7364 -0.0277
11132TIP3    H254888   4.961   4.982  11.975  0.4077 -0.3236  0.3075
11133TIP3   OH254889   5.720   6.027  14.625  0.2270 -0.2713  0.2343
11133TIP3    H154890   5.749   6.077  14.701 -0.5760  2.3854 -1.1320
11133TIP3    H254891   5.773   6.060  14.553 -0.5471 -1.1834 -0.7598
11134TIP3   OH254892   1.465   6.437   4.044 -0.3168  0.6861 -0.0145
11134TIP3    H154893   1.511   6.463   4.124  0.8236 -0.4493 -0.2916
11134TIP3    H254894   1.374   6.424   4.072  0.2769 -0.6934  1.3162
11135TIP3   OH254895   6.659   4.804  13.142  0.0295  0.2568  0.3299
11135TIP3    H154896   6.601   4.734  13.171  1.1749 -0.2431  1.4022
11135TIP3    H254897   6.732   4.760  13.100 -0.0774  0.8783 -0.5396
11136TIP3   OH254898   6.073   6.555  13.960 -0.5261 -0.1476  0.2755
11136TIP3    H154899   6.032   6.539  14.045 -1.2152  0.0385 -0.0247
11136TIP3    H254900   6.030   6.495  13.900  1.2767 -1.6233  0.4290
11137TIP3   OH254901   6.041   0.397  15.143  0.0492  0.2805 -0.2374
11137TIP3    H154902   6.085   0.482  15.141  2.2101 -0.8333 -1.6468
11137TIP3    H254903   6.026   0.376  15.051  0.4477 -1.3336  0.0624
11138TIP3   OH254904   5.908   0.999   1.151 -0.2739 -0.1218  0.1640
11138TIP3    H154905   5.981   0.953   1.109  1.1653  1.6217  0.7151
11138TIP3    H254906   5.857   0.929   1.193  1.1317 -1.3515 -0.1332
11139TIP3   OH254907   5.831   5.980  13.522  0.3138 -0.6118  0.1277
11139TIP3    H154908   5.820   5.964  13.616  1.9024  0.7045  0.5705
11139TIP3    H254909   5.827   5.893  13.483  0.7449 -1.3026  1.5501
11140TIP3   OH254910   4.758   2.321   3.813  0.1642 -0.1627 -0.0986
11140TIP3    H154911   4.702   2.338   3.737 -0.8487 -2.4413  0.1057
11140TIP3    H254912   4.846   2.315   3.777 -0.2200 -0.5130 -0.9938
11141TIP3   OH254913   3.361   6.642  15.218  0.3490 -0.6645  0.7528
11141TIP3    H154914   3.451   6.611  15.229  0.5060 -0.5322 -0.0748
11141TIP3    H254915   3.306   6.571  15.252  0.7649 -0.7850  1.1726
11142TIP3   OH254916   0.738   6.329  12.305  0.3613  0.2050 -0.0099
11142TIP3    H154917   0.792   6.254  12.282  2.0836  0.9994  1.3260
11142TIP3    H254918   0.690   6.350  12.225  0.2859 -1.9431 -0.5527
11143TIP3   OH254919   0.974   6.594   1.029  0.3701  0.1398 -0.1201
11143TIP3    H154920   1.013   6.540   1.098 -0.7291 -0.7636 -0.1823
11143TIP3    H254921   1.046   6.646   0.995  1.1784 -0.3251  0.8676
11144TIP3   OH254922   1.423   2.803  14.736  0.0536  0.0604 -0.0383
11144TIP3    H154923   1.433   2.767  14.648 -0.5810  2.0775 -0.9679
11144TIP3    H254924   1.480   2.879  14.737 -1.1887  0.9961  0.7508
11145TIP3   OH254925   1.123   5.473   3.981 -1.0579 -0.6511  0.9275
11145TIP3    H154926   1.165   5.557   3.962 -2.1454 -0.2928  0.0499
11145TIP3    H254927   1.114   5.472   4.076 -2.1483  0.7972  0.8702
11146TIP3   OH254928   2.690   6.428   4.881  0.3824  0.2592  0.1230
11146TIP3    H154929   2.647   6.439   4.966 -2.0528 -1.3812 -0.8282
11146TIP3    H254930   2.635   6.477   4.820  1.2686  0.1811 -0.7405
11147TIP3   OH254931   6.682   1.970   3.117 -0.0280 -0.7390 -0.7565
11147TIP3    H154932   6.728   2.054   3.121 -1.3859 -0.0657  1.5006
11147TIP3    H254933   6.701   1.928   3.201 -2.1460 -1.1930 -0.4774
11148TIP3   OH254934   0.395   4.120  15.004 -0.5102  0.1344  0.1049
11148TIP3    H154935   0.338   4.051  14.969  0.3873 -0.8624  0.5953
11148TIP3    H254936   0.481   4.100  14.968  0.2458 -0.4087  2.1641
11149TIP3   OH254937   2.357   3.616   0.112  0.4243  1.0441 -0.3342
11149TIP3    H154938   2.452   3.620   0.098  0.1209  0.9221 -2.6594
11149TIP3    H254939   2.320   3.660   0.036 -1.3640  2.6994  1.4566
11150TIP3   OH254940   5.984   3.130  11.587 -0.8812  0.5118  0.6233
11150TIP3    H154941   6.060   3.182  11.563 -0.9962  2.3741  3.8788
11150TIP3    H254942   5.909   3.179  11.552 -0.8331  1.3107  1.5938
11151TIP3   OH254943   0.077   0.619  12.929 -0.0644 -0.1189 -0.0096
11151TIP3    H154944   0.096   0.641  12.838 -1.7525 -2.9812 -1.0850
11151TIP3    H254945  -0.009   0.657  12.945  0.5405  1.0194  0.6776
11152TIP3   OH254946   4.339   5.840   4.695  0.2031 -0.2536 -0.0029
11152TIP3    H154947   4.306   5.930   4.696  1.0675  0.0591  0.5703
11152TIP3    H254948   4.343   5.817   4.602 -0.8290 -0.0001 -0.1185
11153TIP3   OH254949   4.141   5.255   4.089 -0.1684  0.0954 -0.3896
11153TIP3    H154950   4.170   5.174   4.046 -1.4418 -0.1939 -0.7209
11153TIP3    H254951   4.188   5.325   4.044  1.5313 -0.5044  0.4015
11154TIP3   OH254952   5.772   6.335  15.372 -0.1074  0.5282 -0.2968
11154TIP3    H154953   5.684   6.320  15.338  0.1919  0.9380 -1.2611
11154TIP3    H254954   5.814   6.248  15.371 -1.3348 -0.1604  2.6200
11155TIP3   OH254955   0.478   6.597   1.718 -0.7450 -0.1781 -0.2045
11155TIP3    H154956   0.556   6.568   1.670 -0.3875 -0.8017  0.7547
11155TIP3    H254957   0.413   6.615   1.650  0.4764  1.0598 -1.0613
11156TIP3   OH254958   4.771   5.904  15.868  0.3485 -0.4777  0.1864
11156TIP3    H154959   4.774   5.993  15.901 -0.1848 -0.7955  1.1005
11156TIP3    H254960   4.725   5.911  15.784 -0.2423  0.0124  0.5506
11157TIP3   OH254961   3.047   5.406  14.665 -0.0222 -0.1875  0.3805
11157TIP3    H154962   3.006   5.436  14.584  0.0366 -0.7581  0.1381
11157TIP3    H254963   3.058   5.312  14.653  1.3816 -0.0391  0.4409
11158TIP3   OH254964   1.861   1.185   4.411 -0.2219 -0.2526 -0.0005
11158TIP3    H154965   1.880   1.239   4.334 -1.4583  0.5607  0.2673
11158TIP3    H254966   1.826   1.246   4.475  0.3275 -1.0258  1.0434
11159TIP3   OH254967   5.729   6.111  14.345 -0.1447  0.1771 -0.4843
11159TIP3    H154968   5.732   6.132  14.252  1.1936  0.6484 -0.3531
11159TIP3    H254969   5.804   6.158  14.383 -1.6710  1.3891  1.1211
11160TIP3   OH254970   1.537   0.062  15.521  0.4663  0.7238  0.3989
11160TIP3    H154971   1.566  -0.005  15.459  0.2964 -0.7459  1.8951
11160TIP3    H254972   1.442   0.054  15.522  0.4702  0.7555  0.8486
11161TIP3   OH254973   1.328   0.892  14.179  0.4837  0.1710  0.4844
11161TIP3    H154974   1.384   0.907  14.102  1.3313 -1.6398  0.6997
11161TIP3    H254975   1.388   0.857  14.245 -0.3070  1.3621  1.8606
11162TIP3   OH254976   3.562   2.819   4.136 -0.1912 -0.2164 -1.0149
11162TIP3    H154977   3.536   2.859   4.219 -1.4633 -1.1365 -0.9498
11162TIP3    H254978   3.603   2.890   4.087  0.8895  0.2525  0.5323
11163TIP3   OH254979   4.410   0.734  12.120  0.0500  0.1600  0.6953
11163TIP3    H154980   4.386   0.644  12.143  0.4148 -0.7322 -2.2816
11163TIP3    H254981   4.443   0.771  12.202 -0.5051 -2.2642  2.0718
11164TIP3   OH254982   2.259   6.216   4.378 -0.3413  0.6838 -0.1358
11164TIP3    H154983   2.352   6.231   4.361 -0.1854 -0.7647 -0.6760
11164TIP3    H254984   2.255   6.124   4.406 -1.5068  0.9793  0.7064
11165TIP3   OH254985   4.258   3.929   4.720  0.6443 -0.2223 -0.2059
11165TIP3    H154986   4.330   3.870   4.700  0.7837  0.5625 -2.0814
11165TIP3    H254987   4.300   4.014   4.734  0.7223 -0.8875  4.8176
11166TIP3   OH254988   3.835   5.907   2.502 -0.2288  1.2081  0.2761
11166TIP3    H154989   3.831   5.905   2.598 -1.0053 -0.5119  0.2332
11166TIP3    H254990   3.786   5.985   2.477 -0.9651  1.0619  1.2469
11167TIP3   OH254991   4.738   5.081  11.708  0.2284  0.1432 -0.0325
11167TIP3    H154992   4.654   5.117  11.679  0.4226  0.0321 -0.7555
11167TIP3    H254993   4.776   5.043  11.629  0.1362 -1.4359  0.6803
11168TIP3   OH254994   0.067   3.701  15.940 -0.1631  0.4231 -0.5137
11168TIP3    H154995   0.019   3.784  15.946 -1.0114 -0.0409 -0.9834
11168TIP3    H254996   0.120   3.710  15.860 -0.9781  0.1212 -1.0849
11169TIP3   OH254997   4.270   4.056   5.071  0.1911  0.4647 -0.2112
11169TIP3    H154998   4.175   4.054   5.067  0.1789  0.6207 -0.0437
11169TIP3    H254999   4.290   4.076   5.163  0.3539  2.1465 -0.5922
11170TIP3   OH255000   4.772   4.936  14.066  0.4551  0.5191  0.1239
11170TIP3    H155001   4.816   4.889  14.137  0.3607 -1.5597 -1.1441
11170TIP3    H255002   4.684   4.898  14.064  1.3387 -1.4942 -2.9132
11171TIP3   OH255003   4.092   6.168   2.616  0.0160  0.2361  0.3173
11171TIP3    H155004   4.163   6.218   2.575  1.8001 -1.1655  1.6144
11171TIP3    H255005   4.094   6.083   2.572  0.1247 -0.3078  1.3374
11172TIP3   OH255006   0.149   2.935   2.141  0.0727  0.7210 -0.4125
11172TIP3    H155007   0.162   2.873   2.069  0.3600 -0.2726  0.4685
11172TIP3    H255008   0.236   2.946   2.180  0.1011  2.0488 -0.8537
11173TIP3   OH255009   2.997   5.347   1.866  0.0380 -0.2027  0.7493
11173TIP3    H155010   2.947   5.375   1.942  0.3006 -1.2264  1.3015
11173TIP3    H255011   2.962   5.400   1.794 -1.4079 -0.4594  1.2484
11174TIP3   OH255012   0.866   3.070   0.472  0.0811  0.1788 -0.0540
11174TIP3    H155013   0.818   3.054   0.553  0.2840  0.2968  0.0887
11174TIP3    H255014   0.844   3.160   0.449 -0.2379  0.0381 -0.3063
11175TIP3   OH255015   2.223   2.768   4.654 -0.5735  0.2852  0.3123
11175TIP3    H155016   2.247   2.855   4.622  0.5686  0.2463  1.0386
11175TIP3    H255017   2.266   2.708   4.592  1.5558  0.2105  1.8236
11176TIP3   OH255018   0.892   2.702   0.804  0.6154  0.0186 -0.8688
11176TIP3    H155019   0.921   2.760   0.734 -1.4117  3.1849  0.7928
11176TIP3    H255020   0.959   2.711   0.872  0.6411 -0.0906 -0.8796
11177TIP3   OH255021   0.306   2.379   1.420  0.3242  0.6021  0.5703
11177TIP3    H155022   0.240   2.373   1.488 -0.4067 -1.6326 -0.3010
11177TIP3    H255023   0.259   2.359   1.339  1.6924  0.7444 -0.2745
11178TIP3   OH255024   0.527   2.952  12.868 -0.0654 -0.0759 -0.4220
11178TIP3    H155025   0.549   2.878  12.925 -0.6848  0.3304  0.3386
11178TIP3    H255026   0.514   2.913  12.782  2.4273 -0.5040 -0.6399
11179TIP3   OH255027   2.678   0.176  16.252  0.2159  0.0736  0.7386
11179TIP3    H155028   2.747   0.170  16.319  1.4843  0.8712 -0.4638
11179TIP3    H255029   2.718   0.227  16.182 -0.8426 -1.3529 -0.9341
11180TIP3   OH255030   5.146   1.636  13.685  0.4789  0.2737 -0.2629
11180TIP3    H155031   5.132   1.672  13.597 -1.1423  1.1278  0.3220
11180TIP3    H255032   5.229   1.673  13.712 -1.0672  3.5376  0.2434
11181TIP3   OH255033   2.319   2.906  12.548  0.2894 -0.3298  0.4236
11181TIP3    H155034   2.372   2.974  12.506  2.6819 -0.7791  2.6097
11181TIP3    H255035   2.370   2.826  12.536 -0.7718 -1.1036  1.0385
11182TIP3   OH255036   3.949   1.247   5.806 -0.2984 -0.4916  0.6377
11182TIP3    H155037   4.025   1.229   5.863 -0.6075 -1.2492  0.8182
11182TIP3    H255038   3.893   1.305   5.858  0.8441  1.2752 -0.0557
11183TIP3   OH255039   1.142   0.532  14.629 -0.5595  0.2558 -0.1037
11183TIP3    H155040   1.165   0.444  14.597 -0.3845  0.8865 -1.7470
11183TIP3    H255041   1.226   0.578  14.635 -0.5274  0.0093  1.7714
11184TIP3   OH255042   6.809   5.984   4.316 -0.5045  0.1394 -0.7428
11184TIP3    H155043   6.770   5.996   4.229 -0.6025 -0.7588 -0.8301
11184TIP3    H255044   6.737   5.999   4.377 -0.8207 -0.7772 -0.8782
11185TIP3   OH255045   0.161   4.707   3.202  0.3731 -0.3398 -0.2419
11185TIP3    H155046   0.185   4.784   3.151  1.0595  0.2752  0.9695
11185TIP3    H255047   0.075   4.728   3.238 -0.4567 -1.0919 -1.7430
11186TIP3   OH255048   5.170   2.905  10.864  0.5125  0.0935  0.1372
11186TIP3    H155049   5.167   2.814  10.836  0.6981  0.0641  0.2134
11186TIP3    H255050   5.240   2.909  10.928  0.0531  0.1504  0.6402
11187TIP3   OH255051   2.595   4.192  16.352 -0.6533 -0.1598 -0.2416
11187TIP3    H155052   2.629   4.237  16.430 -0.5777  0.1054 -0.4265
11187TIP3    H255053   2.659   4.212  16.284 -0.5942 -0.5923 -0.3084
11188TIP3   OH255054   4.123   2.833  10.944  0.3242  0.4723 -0.2033
11188TIP3    H155055   4.187   2.769  10.975  0.0221  0.6083  0.6941
11188TIP3    H255056   4.084   2.792  10.866 -0.3200 -0.7111  0.7360
11189TIP3   OH255057   1.113   3.168   0.686  0.7005  0.5792 -0.0509
11189TIP3    H155058   1.093   3.257   0.658 -1.8303  0.9704  2.7893
11189TIP3    H255059   1.051   3.113   0.639  0.8915  0.5368 -0.2528
11190TIP3   OH255060   6.696   0.509  15.458 -0.2186 -0.3791 -0.3096
11190TIP3    H155061   6.669   0.544  15.374  0.8806 -1.5938 -1.1980
11190TIP3    H255062   6.655   0.422  15.463  0.5736 -0.7504 -0.0831
11191TIP3   OH255063   3.808   0.626   4.033 -0.5702 -0.2513  0.3959
11191TIP3    H155064   3.829   0.533   4.021  1.6858  0.1934  0.6304
11191TIP3    H255065   3.748   0.647   3.961  0.1900 -1.5088 -0.6330
11192TIP3   OH255066   1.583   6.517  16.638 -0.0501  0.4207 -0.2845
11192TIP3    H155067   1.514   6.537  16.701  0.1996  0.4416 -0.0131
11192TIP3    H255068   1.662   6.509  16.691  0.3045  1.2092 -0.6850
11193TIP3   OH255069   1.492   4.962   0.687  0.0470  0.2472  0.2182
11193TIP3    H155070   1.431   4.993   0.619 -0.1332 -1.0149 -0.2106
11193TIP3    H255071   1.512   5.040   0.738 -1.1105  0.8913 -0.2848
11194TIP3   OH255072   5.639   3.503   1.825  0.2588  0.2356  0.5020
11194TIP3    H155073   5.578   3.456   1.882 -0.8378  0.2108 -0.6564
11194TIP3    H255074   5.604   3.490   1.737  2.0663  0.0586 -0.2130
11195TIP3   OH255075   6.383   2.717  11.178  0.0451  0.4320  0.2007
11195TIP3    H155076   6.359   2.731  11.086  0.9972  3.5173  0.3521
11195TIP3    H255077   6.443   2.789  11.197  1.9118 -1.6668  2.5164
11196TIP3   OH255078   1.978   3.273  11.633  0.2540  0.1313 -0.0648
11196TIP3    H155079   1.932   3.315  11.706 -0.3103 -0.7639  0.1016
11196TIP3    H255080   1.926   3.296  11.555 -0.1304 -0.3745  0.0443
11197TIP3   OH255081   1.755   3.566   6.794  0.4648  0.1368  0.5999
11197TIP3    H155082   1.730   3.492   6.850  2.1933 -1.4749 -0.6668
11197TIP3    H255083   1.680   3.578   6.736  1.4712 -3.0160 -1.5166
11198TIP3   OH255084   4.344   3.007  11.013  0.0012  0.4008  0.4593
11198TIP3    H155085   4.302   2.924  10.988 -1.8362  1.3058  0.4436
11198TIP3    H255086   4.330   3.064  10.937  2.8017  0.2287 -0.2674
11199TIP3   OH255087   0.540   3.626  12.450  0.3968 -0.3127  0.0702
11199TIP3    H155088   0.573   3.650  12.363  0.6520 -3.0802 -0.6444
11199TIP3    H255089   0.616   3.591  12.496  0.5586  2.3098  1.9248
11200TIP3   OH255090   0.093   0.374  13.524 -0.4317 -0.1449 -0.3377
11200TIP3    H155091   0.135   0.288  13.528  0.6063  0.3394 -0.7902
11200TIP3    H255092   0.034   0.375  13.600  1.1973 -0.3844  0.9523
11201TIP3   OH255093   4.527   6.773  13.292  0.0605 -0.2798  0.6235
11201TIP3    H155094   4.536   6.830  13.216 -0.0841 -1.4992 -0.3119
11201TIP3    H255095   4.611   6.728  13.299  0.2422  0.1744  1.4792
11202TIP3   OH255096   0.895   5.855   1.002  0.2200 -0.6173  0.2246
11202TIP3    H155097   0.958   5.926   1.015  0.5420 -1.0303  0.9368
11202TIP3    H255098   0.926   5.809   0.923 -0.1440  0.1914 -0.3979
11203TIP3   OH255099   5.725   4.151   1.271  0.1445 -0.0753 -0.1432
11203TIP3    H155100   5.681   4.098   1.205  1.0654  2.3843 -2.8213
11203TIP3    H255101   5.661   4.218   1.295 -0.3398 -1.2089  1.8354
11204TIP3   OH255102   1.080   0.107   0.626 -0.0772 -0.2298  0.2863
11204TIP3    H155103   1.166   0.117   0.587 -1.1489 -0.5703 -2.2484
11204TIP3    H255104   1.072   0.182   0.685  1.8623 -0.0993  0.4213
11205TIP3   OH255105   3.107   2.785   2.222 -0.1745  0.0180 -0.2748
11205TIP3    H155106   3.180   2.727   2.244  0.1579  0.4151 -0.3391
11205TIP3    H255107   3.029   2.733   2.242  0.1218  0.2141  1.4138
11206TIP3   OH255108   2.249   4.636   4.465 -0.6292  0.2899  0.0799
11206TIP3    H155109   2.288   4.620   4.551  0.2031 -0.4296 -0.4200
11206TIP3    H255110   2.275   4.560   4.413 -1.3708  0.5805 -0.7219
11207TIP3   OH255111   5.846   1.239  12.727 -0.2324 -0.3221  0.1663
11207TIP3    H155112   5.915   1.177  12.704 -0.0242  0.0901 -0.3368
11207TIP3    H255113   5.766   1.201  12.690  0.1159  0.3795 -1.3534
11208TIP3   OH255114   3.199   6.079   3.190 -0.5360 -0.4721  0.1289
11208TIP3    H155115   3.150   6.091   3.271 -0.5217  3.3829 -0.3257
11208TIP3    H255116   3.134   6.050   3.126 -1.3649  0.3178  0.6046
11209TIP3   OH255117   5.364   5.821   4.499 -0.0361  0.1031 -0.0890
11209TIP3    H155118   5.426   5.768   4.549 -0.3931  0.6337  0.9373
11209TIP3    H255119   5.389   5.911   4.518 -1.0700  0.3224  0.2783
11210TIP3   OH255120   4.888   4.836  11.096  1.0567  0.4217  0.3379
11210TIP3    H155121   4.886   4.876  11.009  0.8742  0.9005  0.5585
11210TIP3    H255122   4.797   4.842  11.127  1.6101  2.6835  1.6517
11211TIP3   OH255123   3.041   0.579  12.365  0.5381 -0.4813 -0.1783
11211TIP3    H155124   3.008   0.665  12.391 -0.8759 -0.8923 -0.5382
11211TIP3    H255125   3.128   0.573  12.403 -0.4127  0.0176  2.1095
11212TIP3   OH255126   1.652   4.474  12.646 -0.3490 -0.2711  0.3376
11212TIP3    H155127   1.643   4.555  12.696  1.0003  0.6411 -0.8892
11212TIP3    H255128   1.584   4.479  12.578  0.2273  0.1715 -0.2031
11213TIP3   OH255129   0.276   1.061  15.453  0.0716  0.0568 -0.2356
11213TIP3    H155130   0.311   1.064  15.542 -0.4873 -0.1985  0.0010
11213TIP3    H255131   0.207   0.994  15.457 -0.3036  0.4101 -0.7299
11214TIP3   OH255132   3.691   4.812  11.577 -0.2391 -0.6434  0.2530
11214TIP3    H155133   3.686   4.785  11.486 -0.9708  0.2030  0.0298
11214TIP3    H255134   3.599   4.820  11.604 -0.0332 -1.4624  1.2356
11215TIP3   OH255135   6.789   4.783  14.545  0.9738 -0.3777 -0.6969
11215TIP3    H155136   6.810   4.876  14.540  2.0679 -0.5556  0.3864
11215TIP3    H255137   6.793   4.752  14.454 -0.1153  0.7706 -1.1509
11216TIP3   OH255138   1.422   0.137   1.616 -0.1123  0.2262  0.5100
11216TIP3    H155139   1.413   0.202   1.547 -1.9811  0.2258  0.7228
11216TIP3    H255140   1.421   0.053   1.571  1.3979  0.3079  0.3127
11217TIP3   OH255141   2.998   0.203   2.033  0.2617 -0.8186  0.3467
11217TIP3    H155142   2.991   0.219   2.127 -2.4011  2.3836 -0.3155
11217TIP3    H255143   2.914   0.164   2.009  0.6246 -0.8687 -0.8568
11218TIP3   OH255144   0.402   2.124  12.369  0.2550  0.2207  0.3788
11218TIP3    H155145   0.327   2.182  12.382  0.7072  0.5189  1.7681
11218TIP3    H255146   0.478   2.177  12.395  0.5845 -1.2903  2.6972
11219TIP3   OH255147   3.480   3.838  10.551  0.3170 -0.2016 -0.7550
11219TIP3    H155148   3.438   3.921  10.531 -1.7284 -0.8689  0.6310
11219TIP3    H255149   3.569   3.861  10.576 -0.3643  1.5994  0.0174
11220TIP3   OH255150   3.189   5.490   1.660 -0.2201  0.6098 -0.1163
11220TIP3    H155151   3.152   5.524   1.579  0.0578  1.5005  0.1296
11220TIP3    H255152   3.184   5.563   1.721 -0.0684  0.0616  0.5585
11221TIP3   OH255153   1.828   3.620   4.517 -0.2402 -0.4008 -0.0633
11221TIP3    H155154   1.915   3.597   4.551 -0.6707 -0.7614  0.8092
11221TIP3    H255155   1.807   3.703   4.560  0.3606  0.5096 -1.5120
11222TIP3   OH255156   6.689   2.669  16.234 -0.0769 -0.5909  0.1501
11222TIP3    H155157   6.600   2.704  16.236 -0.2825 -1.0954 -0.2095
11222TIP3    H255158   6.744   2.747  16.227 -0.5950 -0.3584 -1.8272
11223TIP3   OH255159   2.316   5.905   4.684  0.2139 -0.0586 -0.6142
11223TIP3    H155160   2.405   5.928   4.711  0.1079  3.6078 -3.0332
11223TIP3    H255161   2.264   5.913   4.763  1.6042  0.1427  0.3106
11224TIP3   OH255162   6.233   2.527   2.853 -0.3761  0.1189  0.1965
11224TIP3    H155163   6.253   2.588   2.923  0.1545  1.5563 -1.1848
11224TIP3    H255164   6.304   2.463   2.855 -0.1991  0.3303  0.7410
11225TIP3   OH255165   5.348   4.674   6.069  0.5966  0.0905  0.1645
11225TIP3    H155166   5.368   4.690   6.161 -0.6766  3.9768 -0.1374
11225TIP3    H255167   5.252   4.678   6.065  0.5374 -1.9126 -1.0731
11226TIP3   OH255168   6.320   6.050  14.555 -0.2162  0.3346  0.2825
11226TIP3    H155169   6.269   6.051  14.474  0.3142 -3.2942 -0.1726
11226TIP3    H255170   6.327   6.142  14.580 -5.6929  1.1413 -0.4410
11227TIP3   OH255171   6.107   3.653  16.314 -0.3138 -0.0019  0.4373
11227TIP3    H155172   6.082   3.688  16.229  1.3838  1.0036  0.3247
11227TIP3    H255173   6.077   3.719  16.377 -1.1860 -0.5381  0.5841
11228TIP3   OH255174   1.371   3.480   5.214 -0.1433 -0.5877 -0.2565
11228TIP3    H155175   1.354   3.392   5.247 -1.4247 -0.2623 -0.0405
11228TIP3    H255176   1.412   3.465   5.128 -0.5920 -1.3851 -0.3395
11229TIP3   OH255177   5.549   1.708   4.394 -0.4023  0.3285 -0.0462
11229TIP3    H155178   5.614   1.695   4.464 -1.1223  0.4092  0.6506
11229TIP3    H255179   5.508   1.622   4.383 -1.7870  0.7980  1.1614
11230TIP3   OH255180   0.313   1.043   3.104  0.3980 -0.1794  0.0325
11230TIP3    H155181   0.363   1.113   3.062  0.0860 -0.3943 -0.7203
11230TIP3    H255182   0.222   1.075   3.103  0.6291  0.6164  2.2345
11231TIP3   OH255183   6.096   2.198  12.901 -0.1393 -0.2824  0.0403
11231TIP3    H155184   6.070   2.106  12.900  0.6264 -0.5047  0.0294
11231TIP3    H255185   6.014   2.247  12.896 -0.6540 -0.9473  1.6732
11232TIP3   OH255186   4.872   0.439  17.234  0.5481 -0.0532 -0.1098
11232TIP3    H155187   4.897   0.351  17.263 -0.7969 -0.4283 -0.0732
11232TIP3    H255188   4.801   0.424  17.172 -0.3532  1.0714  0.6564
11233TIP3   OH255189   1.081   3.041   2.064 -0.9084  0.6739  0.1457
11233TIP3    H155190   1.160   3.055   2.115 -0.5319  0.6359 -0.4282
11233TIP3    H255191   1.064   2.946   2.071  0.1088  0.3779 -1.2096
11234TIP3   OH255192   5.161   5.891   0.798 -0.1546  0.1086  1.0982
11234TIP3    H155193   5.212   5.817   0.832 -0.6507 -1.0952 -0.6980
11234TIP3    H255194   5.082   5.892   0.851 -0.9525 -1.7930 -0.0059
11235TIP3   OH255195   4.509   4.448  12.581  0.3064 -0.2198  0.0808
11235TIP3    H155196   4.473   4.499  12.508  1.4190  1.3988  0.6553
11235TIP3    H255197   4.431   4.417  12.628 -0.3929  0.0503 -0.8688
11236TIP3   OH255198   3.163   5.147  14.647  0.9447  0.3625 -0.9014
11236TIP3    H155199   3.231   5.134  14.580  1.5303 -0.6018 -0.1469
11236TIP3    H255200   3.209   5.188  14.720  0.5205  0.5148 -0.7215
11237TIP3   OH255201   5.738   4.023  15.444 -0.0515 -0.3191 -0.2581
11237TIP3    H155202   5.691   4.077  15.508 -0.5349  1.9964 -2.4734
11237TIP3    H255203   5.684   4.027  15.365  1.5829 -1.3522 -1.4618
11238TIP3   OH255204   3.252   2.397  11.355 -0.3772 -0.1905  0.4007
11238TIP3    H155205   3.206   2.420  11.274 -0.0631  1.8044  0.7643
11238TIP3    H255206   3.185   2.353  11.408 -1.1290  0.2793 -0.1387
11239TIP3   OH255207   1.436   3.140  16.227  0.7938 -0.1371  0.5435
11239TIP3    H155208   1.470   3.074  16.287  0.1776 -2.3575 -1.5042
11239TIP3    H255209   1.513   3.171  16.179  0.7368 -1.0439 -0.1256
11240TIP3   OH255210   3.559   2.283   3.723 -0.1543 -0.3226 -0.1193
11240TIP3    H155211   3.475   2.246   3.697 -0.5831 -0.2302  1.0928
11240TIP3    H255212   3.539   2.334   3.802  0.7704  0.8898 -0.6438
11241TIP3   OH255213   4.078   3.002   1.122  0.1145  0.2868  0.1893
11241TIP3    H155214   4.065   2.913   1.155 -1.5244  1.0492  1.7255
11241TIP3    H255215   3.990   3.032   1.099  0.4573  1.9861  1.0046
11242TIP3   OH255216   3.626   6.784  16.816  0.1193  0.5560 -0.3496
11242TIP3    H155217   3.545   6.765  16.770  0.7300 -0.1457 -1.1539
11242TIP3    H255218   3.678   6.704  16.808 -0.0270  0.1541  2.1612
11243TIP3   OH255219   1.504   0.758  16.214 -0.4068  0.0115  0.3297
11243TIP3    H155220   1.457   0.777  16.133  0.2847 -0.7901 -0.2525
11243TIP3    H255221   1.560   0.683  16.194  0.0651  0.0521  1.4331
11244TIP3   OH255222   0.156   1.914  12.720  0.4385  0.3513  0.1197
11244TIP3    H155223   0.219   1.867  12.665 -0.9961 -0.5488 -0.7940
11244TIP3    H255224   0.088   1.942  12.659  0.3084  1.9457  0.9800
11245TIP3   OH255225   6.147   3.627  13.058 -0.0048  0.7009  0.0603
11245TIP3    H155226   6.232   3.585  13.066 -0.4049 -0.0279  0.5105
11245TIP3    H255227   6.129   3.630  12.964  0.1418  0.1117  0.0174
11246TIP3   OH255228   2.890   6.043  15.275  0.0084 -0.2566  0.4906
11246TIP3    H155229   2.864   5.952  15.288  0.4546 -0.2332  1.6536
11246TIP3    H255230   2.860   6.064  15.187 -1.2461 -1.1316  0.6871
11247TIP3   OH255231   5.962   3.874   0.289 -0.7036  0.3207 -0.0583
11247TIP3    H155232   5.899   3.802   0.296  0.2726 -0.5321 -0.0514
11247TIP3    H255233   6.034   3.849   0.346 -0.1098  1.0607 -0.4780
11248TIP3   OH255234   2.813   3.108  16.408  0.4350  0.1588 -0.1913
11248TIP3    H155235   2.861   3.170  16.354  2.3910 -0.2816  1.0157
11248TIP3    H255236   2.742   3.159  16.447  2.9335  2.0409  2.0232
11249TIP3   OH255237   5.821   2.026   1.198  0.2096 -0.1024  0.3522
11249TIP3    H155238   5.756   2.069   1.253  0.1096  1.6395 -1.0868
11249TIP3    H255239   5.900   2.024   1.252 -0.3497  0.0450  1.1802
11250TIP3   OH255240   1.774   1.275  14.451 -0.3643  0.3680 -0.3174
11250TIP3    H155241   1.848   1.336  14.447  0.2939 -0.4505 -0.5190
11250TIP3    H255242   1.771   1.235  14.364  0.6791 -1.6335  0.5417
11251TIP3   OH255243   1.876   4.453   4.818 -0.6112  0.3329 -0.1939
11251TIP3    H155244   1.825   4.530   4.795 -1.6943 -0.7675 -1.5018
11251TIP3    H255245   1.886   4.404   4.736  0.3819 -0.7309  0.5369
11252TIP3   OH255246   2.554   4.801  17.065  0.6941  0.1929  0.1678
11252TIP3    H155247   2.470   4.768  17.097  0.1841  1.5353  0.2189
11252TIP3    H255248   2.616   4.729  17.083 -0.4795 -0.9193 -0.1382
11253TIP3   OH255249   0.542   0.492  11.296  0.7146  0.3001  0.0716
11253TIP3    H155250   0.544   0.581  11.330 -2.7458  0.1904  0.6904
11253TIP3    H255251   0.577   0.500  11.207  2.4262  1.8781  0.8428
11254TIP3   OH255252   4.289   1.000  13.056  0.3210  0.1345  0.1849
11254TIP3    H155253   4.332   0.926  13.100 -0.3762 -0.8366 -0.7353
11254TIP3    H255254   4.226   1.033  13.119 -0.5366 -1.1303  0.0150
11255TIP3   OH255255   5.011   0.421  14.926  0.0589 -0.0756  0.5686
11255TIP3    H155256   5.096   0.434  14.967  0.3302 -0.7542  0.2312
11255TIP3    H255257   5.017   0.335  14.885 -0.5711  0.1401  0.0084
11256TIP3   OH255258   1.341   3.853   3.974  0.1011  0.3535  0.9092
11256TIP3    H155259   1.351   3.931   4.029  0.0139 -0.1296  1.6282
11256TIP3    H255260   1.272   3.875   3.912  0.7413  1.1884  0.4815
11257TIP3   OH255261   6.677   0.266  11.355  0.4522 -0.1542  0.2559
11257TIP3    H155262   6.633   0.245  11.437 -0.2814 -0.0379 -0.1002
11257TIP3    H255263   6.740   0.334  11.378  0.1203  0.0108  0.6869
11258TIP3   OH255264   0.295   1.379  16.176 -0.0466  0.3866  0.3757
11258TIP3    H155265   0.377   1.343  16.211  0.4410 -0.9006 -2.0157
11258TIP3    H255266   0.234   1.305  16.178 -0.5442  0.7863  0.1702
11259TIP3   OH255267   3.995   0.008   2.899 -0.1277  0.0180  0.8172
11259TIP3    H155268   3.923  -0.033   2.851  0.4147  1.5240 -1.3998
11259TIP3    H255269   3.961   0.094   2.924  0.7424  0.6147  0.0221
11260TIP3   OH255270   2.078   1.783   5.325 -0.0930  0.1930 -0.5444
11260TIP3    H155271   2.034   1.867   5.339  1.2654  1.1079 -1.6049
11260TIP3    H255272   2.083   1.743   5.412 -1.2040  0.9736 -0.1126
11261TIP3   OH255273   1.035   4.565   2.384  0.2821  0.7596 -0.0355
11261TIP3    H155274   0.944   4.580   2.357 -0.5525 -1.2688  1.5307
11261TIP3    H255275   1.085   4.567   2.303 -1.4619 -0.2489 -1.1491
11262TIP3   OH255276   1.405   0.125   2.754  0.1932  0.0879  0.1205
11262TIP3    H155277   1.383   0.035   2.776  3.2661 -0.8454 -0.2964
11262TIP3    H255278   1.483   0.117   2.698  0.0991  2.9571 -0.4921
11263TIP3   OH255279   5.159   2.666   4.301 -0.6661  0.7876 -0.8505
11263TIP3    H155280   5.112   2.671   4.218 -1.7591  1.8551 -0.1903
11263TIP3    H255281   5.111   2.725   4.359  0.9110  1.1319  0.1342
11264TIP3   OH255282   3.479   2.400  15.243 -0.8871 -0.3517  0.5433
11264TIP3    H155283   3.423   2.459  15.292  0.0928  1.2684 -0.2461
11264TIP3    H255284   3.419   2.354  15.183 -1.4291  1.1708 -0.1064
11265TIP3   OH255285   2.386   3.787   5.939 -0.4370  0.3492 -0.0099
11265TIP3    H155286   2.408   3.879   5.925 -0.3540  0.4889  0.9903
11265TIP3    H255287   2.410   3.770   6.030  0.3282 -0.8946 -0.4266
11266TIP3   OH255288   0.512   5.133   5.144 -0.0340 -0.3630  0.4114
11266TIP3    H155289   0.459   5.146   5.223 -0.6453 -0.1755 -0.0220
11266TIP3    H255290   0.600   5.159   5.170 -0.3805  0.4523  0.8205
11267TIP3   OH255291   0.311   3.751   5.383 -0.3341  0.2835 -0.1925
11267TIP3    H155292   0.280   3.661   5.369 -0.3197  0.4623 -1.4159
11267TIP3    H255293   0.360   3.746   5.464 -0.8926 -0.6815  0.1064
11268TIP3   OH255294   2.037   1.069  12.236  0.3711 -0.1090  0.0676
11268TIP3    H155295   1.961   1.025  12.199  0.7610 -1.4362  0.7927
11268TIP3    H255296   2.085   1.101  12.160 -0.5545  0.1287 -0.4226
11269TIP3   OH255297   5.621   4.546   5.576 -0.6712  0.1953 -0.4309
11269TIP3    H155298   5.663   4.568   5.493 -1.2338 -0.7312 -0.9675
11269TIP3    H255299   5.636   4.622   5.631 -1.4587  1.3995 -1.8283
11270TIP3   OH255300   3.314   6.681   2.971  0.4011 -0.0950  0.6358
11270TIP3    H155301   3.290   6.643   3.056  1.7660 -1.0755  0.6086
11270TIP3    H255302   3.298   6.775   2.981  1.8207 -0.0164  2.4462
11271TIP3   OH255303   6.597   0.546   5.468 -0.1230 -0.6421  0.0418
11271TIP3    H155304   6.524   0.581   5.416 -0.0128  3.4283  2.3757
11271TIP3    H255305   6.555   0.492   5.535 -0.7706 -0.6522 -0.3642
11272TIP3   OH255306   4.092   5.279  17.057  0.2386  0.2514  0.3013
11272TIP3    H155307   4.098   5.183  17.058  0.9444  0.2938  1.3140
11272TIP3    H255308   4.018   5.298  16.999 -0.6028 -0.9421  0.9627
11273TIP3   OH255309   1.572   5.964  12.339 -0.1825  0.1710  0.3783
11273TIP3    H155310   1.632   5.933  12.271  0.9059  0.7110  1.0791
11273TIP3    H255311   1.512   5.891  12.352 -0.6403  0.2016 -1.4251
11274TIP3   OH255312   6.168   2.517   2.427 -0.0679  0.8862  0.0842
11274TIP3    H155313   6.195   2.606   2.452 -0.1790  0.8134  0.4585
11274TIP3    H255314   6.125   2.482   2.505  0.2281  0.3989  0.0296
11275TIP3   OH255315   3.972   1.838   6.666 -0.5862 -0.4249 -0.1291
11275TIP3    H155316   3.970   1.743   6.677  1.4004 -0.3925  0.7540
11275TIP3    H255317   3.939   1.853   6.577 -3.2208 -1.7457  0.5697
11276TIP3   OH255318   3.760   4.172   2.149 -0.3214  0.0694 -0.4735
11276TIP3    H155319   3.785   4.198   2.061 -0.2275  0.6861 -0.2707
11276TIP3    H255320   3.701   4.097   2.137  1.2730 -1.1126 -0.9564
11277TIP3   OH255321   4.163   2.077  16.291  0.0118 -0.0041  0.4577
11277TIP3    H155322   4.170   2.011  16.360 -1.5443 -1.0553 -0.3575
11277TIP3    H255323   4.078   2.059  16.250 -0.6518  2.8122  0.5329
11278TIP3   OH255324   6.429   4.729  16.214  1.0030  0.0799 -0.2812
11278TIP3    H155325   6.385   4.686  16.141  2.2551 -0.6756 -0.6203
11278TIP3    H255326   6.499   4.668  16.239  1.3144  0.8522  0.7881
11279TIP3   OH255327   0.167   1.728   5.943 -0.5531  0.9519 -0.2032
11279TIP3    H155328   0.234   1.698   5.882  0.6022  2.6746  0.1846
11279TIP3    H255329   0.085   1.690   5.910  0.3147  0.4293 -1.7972
11280TIP3   OH255330   1.043   3.671   4.442 -0.7283 -0.6157 -0.3356
11280TIP3    H155331   1.134   3.694   4.427 -0.4334  0.8211  3.1611
11280TIP3    H255332   0.994   3.717   4.374  0.9068  0.9489 -0.4753
11281TIP3   OH255333   2.597   0.736  11.766  0.4016  0.1710  0.6590
11281TIP3    H155334   2.605   0.832  11.764  1.7935  0.0515 -0.3272
11281TIP3    H255335   2.503   0.720  11.765  0.1256  1.5391  1.8830
11282TIP3   OH255336   3.187   1.214   0.134 -0.1711  0.2785 -0.2979
11282TIP3    H155337   3.252   1.198   0.065 -0.2238 -1.7062  0.0970
11282TIP3    H255338   3.218   1.162   0.208 -1.8642 -0.1516  0.1186
11283TIP3   OH255339   6.321   3.286   5.010 -0.3009  0.0352  0.0017
11283TIP3    H155340   6.228   3.263   5.017 -0.5505  0.9762 -0.1715
11283TIP3    H255341   6.322   3.380   4.995  0.6949  0.0736  0.2270
11284TIP3   OH255342   0.140   3.895   5.592 -0.3296  0.5186 -0.4783
11284TIP3    H155343   0.156   3.848   5.510 -1.1725 -0.8084  0.1021
11284TIP3    H255344   0.215   3.955   5.600 -0.0152  0.3534 -1.9836
11285TIP3   OH255345   3.670   1.873   1.478  0.0932  0.1196  0.4965
11285TIP3    H155346   3.599   1.813   1.500  0.3554 -0.2031  0.4638
11285TIP3    H255347   3.641   1.958   1.512 -1.2286  0.4348 -1.3668
11286TIP3   OH255348   5.302   4.341   1.578  0.2203  0.4281  0.2095
11286TIP3    H155349   5.226   4.283   1.570 -0.3127  1.0622  0.5981
11286TIP3    H255350   5.358   4.318   1.504 -0.1630 -0.3215  0.1526
11287TIP3   OH255351   4.665   1.083   1.134  0.0222  0.0315 -0.1433
11287TIP3    H155352   4.604   1.027   1.182  0.9089 -1.2385 -0.4693
11287TIP3    H255353   4.742   1.089   1.191  0.1753  0.4005 -0.3870
11288TIP3   OH255354   6.537   1.204  16.505  0.0486 -0.2197  0.2093
11288TIP3    H155355   6.521   1.269  16.574  1.0024  0.2903 -0.0423
11288TIP3    H255356   6.465   1.142  16.514 -1.2295  1.2056  0.0616
11289TIP3   OH255357   3.330   3.252  14.387 -0.3679  0.5729 -0.0856
11289TIP3    H155358   3.243   3.285  14.407 -0.5989 -0.4975  0.6849
11289TIP3    H255359   3.330   3.161  14.417 -0.2888 -0.7017 -3.7132
11290TIP3   OH255360   4.218   0.213  12.887 -0.1983  0.4785  0.0179
11290TIP3    H155361   4.161   0.146  12.849  1.7971 -0.5736 -1.1607
11290TIP3    H255362   4.229   0.186  12.978 -1.0391  0.3342  0.0822
11291TIP3   OH255363   3.847   5.321   2.794  0.1719 -0.2659  0.0197
11291TIP3    H155364   3.888   5.390   2.742  0.5803 -0.8518 -0.4477
11291TIP3    H255365   3.825   5.253   2.730  1.6846 -1.4738  0.7730
11292TIP3   OH255366   5.533   1.023  15.972 -1.2657  0.5800  0.0452
11292TIP3    H155367   5.487   1.064  16.045  0.8143 -0.1391  1.7759
11292TIP3    H255368   5.561   1.096  15.917 -0.7673  1.2563  1.1994
11293TIP3   OH255369   0.899   4.108  15.228  0.0394  0.3607 -0.5078
11293TIP3    H155370   0.935   4.166  15.295  0.0235 -0.2018 -0.0172
11293TIP3    H255371   0.969   4.045  15.211 -0.2105  0.0876 -0.5259
11294TIP3   OH255372   1.043   2.253  15.048  0.0983 -0.2929  0.0862
11294TIP3    H155373   1.053   2.224  14.958 -3.5037 -0.7104 -0.2353
11294TIP3    H255374   1.052   2.173  15.100 -0.7292 -0.5279 -0.1286
11295TIP3   OH255375   4.415   3.455  13.424 -0.1070 -0.1272 -0.2800
11295TIP3    H155376   4.505   3.426  13.437  0.0971  0.5515 -0.1932
11295TIP3    H255377   4.422   3.545  13.394 -0.7774  0.1557  0.3878
11296TIP3   OH255378   6.182   0.926   3.964  0.0154  0.4306  0.5211
11296TIP3    H155379   6.125   1.001   3.946  0.0036 -0.1462 -2.0297
11296TIP3    H255380   6.179   0.874   3.884  0.9552 -1.7049  1.8211
11297TIP3   OH255381   5.329   5.193   5.953  0.4556 -0.3564  0.3160
11297TIP3    H155382   5.251   5.248   5.941  0.3138 -0.5658  0.2837
11297TIP3    H255383   5.302   5.107   5.921  0.6618 -0.4586  0.4244
11298TIP3   OH255384   4.233   3.067  13.146 -0.4126  0.1171  0.2484
11298TIP3    H155385   4.315   3.035  13.183 -0.6115 -1.4022 -0.5777
11298TIP3    H255386   4.178   2.989  13.139 -1.9107  1.1059  0.7356
11299TIP3   OH255387   2.610   3.788   4.231  0.2396 -0.4332  0.2673
11299TIP3    H155388   2.704   3.777   4.245  0.2199  1.2190  1.9647
11299TIP3    H255389   2.576   3.698   4.226  1.8862 -1.0457 -0.3381
11300TIP3   OH255390   2.336   4.359  14.996 -0.4816 -0.1805 -0.0642
11300TIP3    H155391   2.332   4.318  15.082  2.1955  1.4489  0.8862
11300TIP3    H255392   2.429   4.372  14.980 -1.1190  2.8414 -1.5939
11301TIP3   OH255393   4.786   0.508  16.395 -0.3353 -0.0831 -0.0347
11301TIP3    H155394   4.868   0.512  16.444 -0.0117 -0.1770 -0.5649
11301TIP3    H255395   4.810   0.469  16.311 -1.2043 -1.4678  0.3599
11302TIP3   OH255396   2.417   4.136   3.936  0.3030  0.2093 -0.6364
11302TIP3    H155397   2.424   4.227   3.906 -2.0946  1.3838  2.1596
11302TIP3    H255398   2.506   4.112   3.961  0.9803  1.7459 -1.4786
11303TIP3   OH255399   6.204   6.395  11.883 -0.0442 -0.2181  0.3786
11303TIP3    H155400   6.183   6.301  11.878  1.8419 -0.5634 -2.3237
11303TIP3    H255401   6.119   6.438  11.885 -0.9554 -1.9779  0.7252
11304TIP3   OH255402   1.220   6.729  11.159 -0.0063  0.2080  0.0843
11304TIP3    H155403   1.293   6.727  11.097 -1.4431 -0.1727 -1.6372
11304TIP3    H255404   1.257   6.695  11.240  2.3374  2.3235 -0.0558
11305TIP3   OH255405   3.206   5.460   6.348  0.5531  0.6363  0.0648
11305TIP3    H155406   3.119   5.497   6.330  0.0427 -0.9012 -0.7006
11305TIP3    H255407   3.239   5.512   6.421 -0.5411  1.9734 -0.3685
11306TIP3   OH255408   0.768   1.813  16.936  0.0094  0.1439 -0.0658
11306TIP3    H155409   0.863   1.810  16.942 -0.1062 -0.4490  2.0883
11306TIP3    H255410   0.739   1.824  17.027 -1.9319  1.7926 -0.8359
11307TIP3   OH255411   5.851   3.676  14.274 -0.2284 -0.4779  0.0867
11307TIP3    H155412   5.918   3.726  14.228 -1.9848  2.7361  0.8612
11307TIP3    H255413   5.829   3.729  14.350 -1.3621 -3.0237  1.6068
11308TIP3   OH255414   6.597   0.196   4.136 -0.0812  0.3673 -0.3048
11308TIP3    H155415   6.552   0.280   4.148 -0.5047  0.0642  0.2556
11308TIP3    H255416   6.588   0.152   4.220  0.2812 -0.1752 -0.5494
11309TIP3   OH255417   0.773   1.161   1.110  0.0853 -0.1099  0.1349
11309TIP3    H155418   0.741   1.243   1.072  1.5139 -0.1467 -1.2151
11309TIP3    H255419   0.849   1.186   1.162 -1.4655 -0.1583  2.4523
11310TIP3   OH255420   3.721   4.927  13.371  0.7096  0.7606 -0.3039
11310TIP3    H155421   3.754   4.842  13.398 -0.0938  0.5200 -0.0491
11310TIP3    H255422   3.768   4.990  13.427  2.1827  0.5827 -1.3311
11311TIP3   OH255423   0.404   1.203  17.128 -0.0423  0.1998  0.0692
11311TIP3    H155424   0.467   1.218  17.058  0.3514 -0.1871  0.3376
11311TIP3    H255425   0.446   1.239  17.206 -1.0150  1.7970 -0.1209
11312TIP3   OH255426   1.584   1.748   1.012  0.2849  0.2107 -0.0670
11312TIP3    H155427   1.539   1.805   1.074 -0.8603 -0.2381 -0.4842
11312TIP3    H255428   1.594   1.800   0.933  0.8237  0.4337  0.1482
11313TIP3   OH255429   3.367   3.493   4.830 -0.2771 -0.1148  0.6425
11313TIP3    H155430   3.419   3.465   4.905  0.5465  1.0616  0.5085
11313TIP3    H255431   3.430   3.501   4.758 -0.8290  0.1716  0.1826
11314TIP3   OH255432   2.638   3.760  13.920  0.2204  0.2592 -0.2994
11314TIP3    H155433   2.571   3.814  13.879 -0.9034 -0.5128  0.4749
11314TIP3    H255434   2.643   3.682  13.865  0.9268  0.5921 -0.7056
11315TIP3   OH255435   5.994   5.074   2.898 -0.6676 -0.1816 -0.0662
11315TIP3    H155436   6.004   5.164   2.867 -0.2820 -0.0748  0.3708
11315TIP3    H255437   5.902   5.053   2.880 -0.6456  0.1470 -0.5680
11316TIP3   OH255438   3.454   5.326   5.295 -0.3930 -0.2197 -0.5287
11316TIP3    H155439   3.420   5.410   5.263  0.9259  0.4794 -0.1553
11316TIP3    H255440   3.509   5.350   5.370  0.5383 -1.3503 -0.8458
11317TIP3   OH255441   3.123   5.993  17.056  0.7392  0.0531 -0.1917
11317TIP3    H155442   3.033   5.962  17.051  0.4910  0.2175  2.4738
11317TIP3    H255443   3.121   6.078  17.012 -0.0096 -0.7274 -1.6887
11318TIP3   OH255444   0.532   4.143  13.717 -0.1856  0.1910 -0.2076
11318TIP3    H155445   0.444   4.106  13.708 -0.0813  0.0173 -0.5481
11318TIP3    H255446   0.525   4.231  13.679  0.2378 -0.5207 -2.0109
11319TIP3   OH255447   0.190   4.938   0.460 -0.4342  0.1460 -0.2731
11319TIP3    H155448   0.103   4.897   0.463 -0.6922  0.6120 -1.1000
11319TIP3    H255449   0.241   4.890   0.525 -1.0093 -0.8391 -0.5216
11320TIP3   OH255450   2.529   5.716  14.008  0.1470 -0.7840 -0.2952
11320TIP3    H155451   2.441   5.706  14.044 -0.6518 -0.5112 -2.1388
11320TIP3    H255452   2.530   5.661  13.930  2.1968 -2.2071  0.6696
11321TIP3   OH255453   3.489   4.111   5.784 -0.8379  0.2367  0.4627
11321TIP3    H155454   3.539   4.077   5.858 -0.8810 -0.4836  0.1741
11321TIP3    H255455   3.398   4.091   5.806 -0.8235 -0.2873  0.0707
11322TIP3   OH255456   3.674   2.797  11.774  0.0373  0.1051 -0.1616
11322TIP3    H155457   3.742   2.864  11.778  0.9285 -0.6230 -2.2728
11322TIP3    H255458   3.703   2.729  11.835  0.3855  0.5065  0.1220
11323TIP3   OH255459   0.110   1.834   6.507 -0.1250 -0.4492  0.7086
11323TIP3    H155460   0.064   1.907   6.547 -1.0775  0.0823 -1.3043
11323TIP3    H255461   0.040   1.777   6.473  0.5976 -2.2491  2.1495
11324TIP3   OH255462   0.733   1.028   4.366 -0.0300  0.1120  0.2069
11324TIP3    H155463   0.765   1.101   4.418  0.4727  0.0894 -0.0652
11324TIP3    H255464   0.687   0.972   4.428  0.3627  0.2025  0.5807
11325TIP3   OH255465   5.012   0.858  11.306  0.6854 -0.8890  1.1568
11325TIP3    H155466   5.014   0.925  11.237 -1.3685 -1.7726  0.1873
11325TIP3    H255467   5.100   0.822  11.308  0.4530 -1.7270 -1.9068
11326TIP3   OH255468   2.351   6.680  16.134  0.4587  0.0553 -0.2494
11326TIP3    H155469   2.311   6.756  16.176 -1.9701 -1.0253 -0.5816
11326TIP3    H255470   2.360   6.706  16.042 -0.4351 -0.0876 -0.3797
11327TIP3   OH255471   1.528   5.586   3.641  0.1188  0.3365  0.3555
11327TIP3    H155472   1.572   5.501   3.647  0.9600  0.7055 -0.5877
11327TIP3    H255473   1.593   5.645   3.603 -0.2918  1.5383  1.4689
11328TIP3   OH255474   0.524   5.389  17.114  0.0691 -0.0532 -0.6125
11328TIP3    H155475   0.603   5.349  17.151 -0.5778 -5.1781 -4.2254
11328TIP3    H255476   0.453   5.357  17.170 -0.0394 -0.4220 -0.9630
11329TIP3   OH255477   2.220   2.261   2.452 -0.6154  0.0047  0.2089
11329TIP3    H155478   2.244   2.169   2.455 -1.6045 -0.2512  0.5254
11329TIP3    H255479   2.290   2.306   2.499 -1.8804 -0.9781  3.2328
11330TIP3   OH255480   6.158   2.223  13.195  0.7982 -0.0353 -0.0521
11330TIP3    H155481   6.086   2.165  13.170  1.4620 -1.3734  1.0767
11330TIP3    H255482   6.208   2.235  13.114 -0.7850  1.0824 -0.8936
11331TIP3   OH255483   3.240   6.348   1.865  0.0161 -0.8362  0.1016
11331TIP3    H155484   3.175   6.314   1.802 -0.4933 -0.2997  0.3306
11331TIP3    H255485   3.247   6.441   1.844 -1.2017 -0.3446  1.7308
11332TIP3   OH255486   0.571   3.358  16.725 -0.2718  0.0442  0.2434
11332TIP3    H155487   0.642   3.370  16.662 -0.9519  0.1391 -0.5117
11332TIP3    H255488   0.615   3.347  16.809  0.6464 -0.2384 -0.2715
11333TIP3   OH255489   2.133   3.930   4.601 -0.3910  0.2784  0.0890
11333TIP3    H155490   2.168   3.901   4.685  2.0497  1.3891 -0.4963
11333TIP3    H255491   2.111   4.022   4.615 -0.5351  0.3039 -0.2974
11334TIP3   OH255492   4.768   2.849  10.730  0.4065 -0.5444 -0.1619
11334TIP3    H155493   4.820   2.881  10.804 -0.1782 -0.2640  0.1294
11334TIP3    H255494   4.807   2.765  10.708  2.5001  0.7309 -1.4679
11335TIP3   OH255495   5.720   5.729   2.930 -0.6495 -0.2222  0.5799
11335TIP3    H155496   5.694   5.673   2.857 -0.4712 -0.6359  0.8270
11335TIP3    H255497   5.801   5.771   2.901 -0.9707  0.1746  0.2594
11336TIP3   OH255498   3.556   2.186   6.290  0.6186  0.0555 -0.4446
11336TIP3    H155499   3.571   2.141   6.373  0.7157  1.3758  0.2827
11336TIP3    H255500   3.542   2.117   6.226  0.1784 -0.9712  0.7534
11337TIP3   OH255501   3.910   1.978   1.822  0.1334 -0.1656 -0.2548
11337TIP3    H155502   3.890   2.038   1.751  0.3641 -0.6837 -0.7581
11337TIP3    H255503   3.885   1.892   1.789  2.6457 -0.7713 -0.7236
11338TIP3   OH255504   2.960   1.690  11.953 -0.5034  0.0935 -0.1375
11338TIP3    H155505   2.975   1.745  12.031  0.9194 -0.5177  0.0384
11338TIP3    H255506   3.048   1.677  11.917 -0.9331 -1.3844 -0.6472
11339TIP3   OH255507   4.595   5.547   3.119  0.4054 -0.2424 -0.0346
11339TIP3    H155508   4.580   5.640   3.102  0.4139 -0.4010 -0.9654
11339TIP3    H255509   4.689   5.538   3.127  0.2461  0.2552  2.7385
11340TIP3   OH255510   6.080   4.983  10.670 -0.0663 -0.2503 -0.8222
11340TIP3    H155511   6.161   5.034  10.668 -0.4002  0.2387 -1.9554
11340TIP3    H255512   6.103   4.898  10.633  0.0608 -0.3122 -0.6027
11341TIP3   OH255513   0.496   6.371  16.144  0.1819  0.2870  1.0219
11341TIP3    H155514   0.534   6.283  16.155 -1.4869 -0.7110 -0.7984
11341TIP3    H255515   0.550   6.412  16.076  2.0091  1.3573  3.0359
11342TIP3   OH255516   4.019   2.162  13.887  0.1262  0.4387  0.1155
11342TIP3    H155517   4.106   2.124  13.872 -1.0591 -2.3297  0.0910
11342TIP3    H255518   3.960   2.087  13.893 -2.1352  2.2379  1.1630
11343TIP3   OH255519   4.384   3.978  17.209 -0.2225 -0.0770  0.7363
11343TIP3    H155520   4.363   3.998  17.300 -0.6852 -0.3633  0.6949
11343TIP3    H255521   4.343   4.048  17.158 -0.4485 -0.2307  0.7079
11344TIP3   OH255522   1.719   6.798  13.309  0.5877  0.0962  0.3384
11344TIP3    H155523   1.667   6.727  13.273 -0.7019  0.7474  0.8944
11344TIP3    H255524   1.732   6.774  13.401  4.3248 -1.8337 -0.5825
11345TIP3   OH255525   6.444   0.551   0.309 -0.7522 -0.2763 -0.5505
11345TIP3    H155526   6.404   0.614   0.249  1.4394 -0.1526 -1.9502
11345TIP3    H255527   6.538   0.568   0.302 -0.1149 -3.5789 -0.8462
11346TIP3   OH255528   5.422   0.270  10.342  0.4467  0.3168  0.6462
11346TIP3    H155529   5.346   0.236  10.388 -0.2961  2.5402  1.1205
11346TIP3    H255530   5.485   0.197  10.342 -0.8503 -0.8312  2.1226
11347TIP3   OH255531   3.545   3.942   5.468 -0.0722  0.5121  0.2344
11347TIP3    H155532   3.466   3.895   5.495 -0.3882  1.1373  0.4151
11347TIP3    H255533   3.566   3.999   5.542  2.4690 -2.0086  1.5723
11348TIP3   OH255534   3.817   6.643   2.772 -0.1118 -0.0681 -0.2442
11348TIP3    H155535   3.733   6.596   2.772  0.4375 -1.0669  0.7878
11348TIP3    H255536   3.880   6.580   2.738 -0.1100  1.3581 -2.9886
11349TIP3   OH255537   5.877   4.038  14.645  0.1474  0.6063  0.3811
11349TIP3    H155538   5.800   4.053  14.701 -0.4707  0.6313 -0.4587
11349TIP3    H255539   5.944   4.005  14.704 -1.3748 -2.0598  0.6610
11350TIP3   OH255540   6.037   0.849   0.242 -0.6024  0.2731  0.2836
11350TIP3    H155541   6.132   0.845   0.227 -0.4986  0.9322  0.7527
11350TIP3    H255542   6.003   0.893   0.164 -0.5066  0.1375  0.1654
11351TIP3   OH255543   4.845   5.252  14.285 -0.0408 -0.5978  0.1775
11351TIP3    H155544   4.926   5.218  14.246  0.9807  0.6344  1.1617
11351TIP3    H255545   4.817   5.322  14.226  0.1862 -0.3423  0.3683
11352TIP3   OH255546   2.324   3.269   5.848 -0.1150 -0.2735  0.3483
11352TIP3    H155547   2.288   3.357   5.853  1.3828  0.4307 -0.6449
11352TIP3    H255548   2.361   3.253   5.935 -1.7904 -0.5659  1.0178
11353TIP3   OH255549   6.512   2.520  11.060  0.4297  0.2245 -0.5276
11353TIP3    H155550   6.477   2.587  11.119 -0.0395  0.2533 -0.8433
11353TIP3    H255551   6.607   2.536  11.060  0.3721  0.5715 -0.2136
11354TIP3   OH255552   3.580   0.584  16.549  0.0983  0.0326  0.2464
11354TIP3    H155553   3.490   0.558  16.527 -0.2697  0.2019  1.5097
11354TIP3    H255554   3.570   0.667  16.596  0.9792  0.4609 -0.3079
11355TIP3   OH255555   1.834   5.319   3.499  0.0383 -0.5802 -0.2539
11355TIP3    H155556   1.847   5.410   3.473 -0.1148 -0.9852 -1.7686
11355TIP3    H255557   1.770   5.322   3.570 -1.0836  0.3584 -1.3081
11356TIP3   OH255558   5.472   6.345   0.453  0.0658  0.0369  0.6541
11356TIP3    H155559   5.478   6.251   0.472 -0.2834  0.2670  1.8990
11356TIP3    H255560   5.533   6.386   0.514 -0.5289  0.7123  0.8014
11357TIP3   OH255561   6.102   6.033   3.702 -0.2834  0.1830  0.1077
11357TIP3    H155562   6.053   5.953   3.724  1.3960 -1.1049 -0.7399
11357TIP3    H255563   6.045   6.080   3.641 -1.9383  0.3893  1.7682
11358TIP3   OH255564   3.647   0.599   3.777 -0.6048  0.0663  0.2641
11358TIP3    H155565   3.557   0.582   3.752  0.2618 -2.0369 -1.6722
11358TIP3    H255566   3.682   0.513   3.800  1.4855  0.5323 -1.0347
11359TIP3   OH255567   5.177   3.917  15.923 -0.2643 -0.0976 -0.0018
11359TIP3    H155568   5.083   3.901  15.926 -0.2311 -0.1739  0.8708
11359TIP3    H255569   5.204   3.887  15.836 -1.4583  2.3503 -1.2535
11360TIP3   OH255570   5.588   4.394  16.119 -1.4171 -0.6462  0.4288
11360TIP3    H155571   5.512   4.447  16.144 -3.1091 -3.2616  1.0804
11360TIP3    H255572   5.618   4.356  16.202 -0.4031 -0.9502 -0.0701
11361TIP3   OH255573   4.285   4.027   2.468 -0.0185  0.9994  0.3372
11361TIP3    H155574   4.296   4.117   2.436  0.9396  0.6966 -0.1913
11361TIP3    H255575   4.372   3.989   2.464 -0.3052  0.2360  1.1726
11362TIP3   OH255576   3.892   5.909   3.671 -0.5635  0.4808  0.2441
11362TIP3    H155577   3.844   5.835   3.709 -0.9601  1.5533  1.8623
11362TIP3    H255578   3.967   5.921   3.729 -2.0426  3.1620  1.7077
11363TIP3   OH255579   2.730   1.637   2.312  0.5213 -0.4233 -0.3365
11363TIP3    H155580   2.675   1.561   2.292 -0.0153 -0.2442  0.4275
11363TIP3    H255581   2.804   1.601   2.361  1.1292 -0.6730 -1.4206
11364TIP3   OH255582   5.458   5.571   2.350  0.1570  0.3428 -0.0715
11364TIP3    H155583   5.377   5.593   2.395  1.7329  1.2885  2.4074
11364TIP3    H255584   5.489   5.491   2.393  0.5909  0.0364 -0.9347
11365TIP3   OH255585   1.724   3.387  16.793  0.3869  0.9378 -0.4872
11365TIP3    H155586   1.644   3.438  16.809 -0.6795 -0.0451 -2.4733
11365TIP3    H255587   1.752   3.358  16.879 -3.4620 -1.7085 -0.0130
11366TIP3   OH255588   3.872   5.538  11.808 -0.0324  0.0365  0.2450
11366TIP3    H155589   3.821   5.539  11.889  0.8479  0.4214  0.8001
11366TIP3    H255590   3.840   5.614  11.759 -0.8058 -0.3928  0.0796
11367TIP3   OH255591   5.859   4.791  13.285  0.1734 -0.4570  0.3958
11367TIP3    H155592   5.820   4.711  13.319 -0.5040 -0.7820 -1.1456
11367TIP3    H255593   5.890   4.769  13.198  0.7738  0.7200  0.2959
11368TIP3   OH255594   3.631   3.744  11.804  0.1695 -0.6238 -0.1444
11368TIP3    H155595   3.668   3.658  11.823  3.6761  1.2751  2.2781
11368TIP3    H255596   3.686   3.780  11.734  0.0426  0.3917  0.2534
11369TIP3   OH255597   4.662   2.002  12.510 -0.1638  0.5460 -0.5199
11369TIP3    H155598   4.660   1.916  12.468 -0.3560  0.0769  0.4557
11369TIP3    H255599   4.603   2.056  12.456 -1.2471 -0.3360 -0.2359
11370TIP3   OH255600   4.564   1.882   3.385 -0.8326 -0.5796 -0.0239
11370TIP3    H155601   4.655   1.876   3.415  0.0952 -0.7160 -2.7369
11370TIP3    H255602   4.554   1.973   3.356 -1.2406 -0.8255 -0.6680
11371TIP3   OH255603   2.241   3.319   4.215 -0.1967 -0.2079  0.2788
11371TIP3    H155604   2.197   3.344   4.134 -1.2237 -0.8460  0.6369
11371TIP3    H255605   2.172   3.320   4.281  0.5843  0.0615  1.0975
11372TIP3   OH255606   4.176   1.909   1.919  0.7946 -0.1387 -0.2410
11372TIP3    H155607   4.205   1.915   1.828  1.2100  2.5791  0.0378
11372TIP3    H255608   4.090   1.951   1.920  0.2770 -1.1777  0.4324
11373TIP3   OH255609   4.053   4.451  16.008  0.1998  0.6215 -0.1731
11373TIP3    H155610   4.024   4.542  16.020  0.1401  1.0969 -3.5957
11373TIP3    H255611   4.136   4.459  15.962  1.9073 -1.0109  2.4847
11374TIP3   OH255612   3.705   5.446  11.426 -0.2406 -1.0218  0.5169
11374TIP3    H155613   3.736   5.536  11.419 -0.8468 -1.0303 -3.2955
11374TIP3    H255614   3.680   5.437  11.518 -0.1660  2.6799  0.9947
11375TIP3   OH255615   1.155   2.753   6.484  0.5285 -0.3286 -0.2536
11375TIP3    H155616   1.102   2.722   6.558  0.1592  0.9348  0.0223
11375TIP3    H255617   1.238   2.706   6.492 -0.5165 -2.2728 -0.6478
11376TIP3   OH255618   0.177   2.115  14.703 -0.4381 -0.1026 -0.0619
11376TIP3    H155619   0.157   2.204  14.733 -0.4651 -0.2207  0.2785
11376TIP3    H255620   0.092   2.071  14.704 -0.4191 -0.1411 -0.1970
11377TIP3   OH255621   6.280   2.922   0.429 -0.1028  0.1547  0.0427
11377TIP3    H155622   6.200   2.940   0.479  0.5174  1.6446  0.5378
11377TIP3    H255623   6.325   2.854   0.479 -0.9012 -0.4556 -0.0655
11378TIP3   OH255624   2.279   1.104   1.574 -0.2627  0.0802 -0.8000
11378TIP3    H155625   2.313   1.078   1.659 -0.2944  1.3632 -0.3865
11378TIP3    H255626   2.226   1.182   1.591 -1.2267 -0.3294 -1.8250
11379TIP3   OH255627   0.952   6.546   0.122 -0.0029  0.5586 -0.3194
11379TIP3    H155628   0.989   6.563   0.036 -0.2247  1.0079 -0.3312
11379TIP3    H255629   0.911   6.460   0.114  1.6000 -0.2355 -0.1065
11380TIP3   OH255630   3.695   5.498  12.311 -0.2094 -0.1495  0.5631
11380TIP3    H155631   3.764   5.552  12.351 -0.1675  1.6035 -1.7558
11380TIP3    H255632   3.614   5.546  12.330 -0.5662 -1.0864  1.4364
11381TIP3   OH255633   3.739   1.943  12.840  0.5438  0.0890 -0.2106
11381TIP3    H155634   3.760   1.887  12.915 -1.0449  1.7996  1.5860
11381TIP3    H255635   3.746   2.032  12.874 -1.8894  0.8646 -1.6286
11382TIP3   OH255636   6.417   4.542  11.686  0.2915  0.0887  0.0804
11382TIP3    H155637   6.447   4.596  11.613  1.7633  1.4740  1.6673
11382TIP3    H255638   6.323   4.555  11.689  0.2477  0.1992 -1.4142
11383TIP3   OH255639   3.719   3.150  13.415 -0.3142  0.1826  0.6841
11383TIP3    H155640   3.668   3.219  13.375  2.9750  2.0823 -0.4117
11383TIP3    H255641   3.741   3.091  13.343  2.0339  1.3365  0.4111
11384TIP3   OH255642   2.881   2.727  12.065  0.4682 -0.3291  0.6095
11384TIP3    H155643   2.862   2.760  12.153  1.5599 -0.3848  0.8670
11384TIP3    H255644   2.840   2.641  12.062  0.1144 -0.1730  0.9351
11385TIP3   OH255645   0.555   0.446  13.682 -0.0975  0.8557 -0.8005
11385TIP3    H155646   0.497   0.517  13.708  0.9262  1.4476 -0.1145
11385TIP3    H255647   0.642   0.487  13.675  1.0905 -0.9489  2.6354
11386TIP3   OH255648   4.471   6.606  12.956 -0.5447 -0.0177 -0.2517
11386TIP3    H155649   4.443   6.516  12.940  0.5898 -0.9323  2.5638
11386TIP3    H255650   4.400   6.645  13.007  0.2218 -0.2128  0.9796
11387TIP3   OH255651   2.915   0.990  17.038 -0.0106 -0.1865 -0.5525
11387TIP3    H155652   2.970   0.958  17.108 -0.0951  0.7260 -0.0571
11387TIP3    H255653   2.910   0.918  16.975  0.7286 -0.7064 -0.0115
11388TIP3   OH255654   1.780   5.926  13.300  0.3033  0.0647  0.0195
11388TIP3    H155655   1.858   5.885  13.337  0.4088  1.7822  1.7798
11388TIP3    H255656   1.811   5.973  13.223  0.8588  0.0341  0.2264
11389TIP3   OH255657   3.395   2.192  14.928  0.4779  0.3948  0.0346
11389TIP3    H155658   3.438   2.108  14.912  0.5182  0.3839  0.1906
11389TIP3    H255659   3.320   2.170  14.984  0.0847  0.3723 -0.5052
11390TIP3   OH255660   0.447   2.384  14.924 -0.3476  0.0354  0.0948
11390TIP3    H155661   0.405   2.312  14.971  0.0195 -0.5977 -0.5393
11390TIP3    H255662   0.530   2.397  14.970  0.3027 -1.0162 -0.7671
11391TIP3   OH255663   2.265   3.558   5.864  0.0120  0.3720 -0.0975
11391TIP3    H155664   2.189   3.604   5.828 -0.1716 -0.5932 -0.9866
11391TIP3    H255665   2.324   3.627   5.893 -0.5928  1.1502 -0.6861
11392TIP3   OH255666   5.215   5.640  16.211 -0.1491  0.1998 -0.0572
11392TIP3    H155667   5.227   5.555  16.170 -1.1296 -0.9910  2.0545
11392TIP3    H255668   5.264   5.634  16.293  0.3084  1.9068 -0.1830
11393TIP3   OH255669   2.695   1.691   1.875 -0.2544 -0.1707 -0.0846
11393TIP3    H155670   2.697   1.707   1.781  0.0336 -0.6794 -0.1665
11393TIP3    H255671   2.708   1.597   1.884 -0.5824 -0.1696  0.4504
11394TIP3   OH255672   5.751   1.006  14.471  0.4440 -0.3298 -0.0982
11394TIP3    H155673   5.844   1.006  14.449  0.6067 -0.9958  0.5667
11394TIP3    H255674   5.711   1.064  14.406  1.2819 -0.2491 -0.5488
11395TIP3   OH255675   4.780   5.325   2.634  1.0714  0.1855 -0.0445
11395TIP3    H155676   4.751   5.248   2.585  0.1917  0.6334 -0.2465
11395TIP3    H255677   4.725   5.324   2.713 -0.5239  1.8319 -1.0889
11396TIP3   OH255678   5.784   2.548  10.509  0.2853 -0.4747  0.7653
11396TIP3    H155679   5.705   2.513  10.550  0.5731  0.0286  1.7594
11396TIP3    H255680   5.756   2.573  10.421  0.1176 -3.4389 -0.1046
11397TIP3   OH255681   3.418   0.589  11.330  0.2983 -0.4066  0.3133
11397TIP3    H155682   3.493   0.642  11.356  0.1080  0.3317 -0.6356
11397TIP3    H255683   3.383   0.554  11.412  2.1172 -1.3459  0.7102
11398TIP3   OH255684   2.835   5.875  12.680  0.3039  0.2992 -0.2507
11398TIP3    H155685   2.898   5.805  12.693  0.5163  0.6489  0.6097
11398TIP3    H255686   2.882   5.941  12.628  1.0319  1.0750  1.3641
11399TIP3   OH255687   0.051   0.996   0.424  0.7789 -0.0291  0.0708
11399TIP3    H155688   0.079   1.015   0.513 -0.3477 -1.2412  0.6990
11399TIP3    H255689   0.132   0.969   0.379  1.7877  2.9335  0.0316
11400TIP3   OH255690   0.115   0.815  13.166  0.4208  0.0629  0.4745
11400TIP3    H155691   0.086   0.771  13.086 -0.0254 -0.7535  1.0817
11400TIP3    H255692   0.113   0.747  13.233  0.3371  0.8544  1.2837
11401TIP3   OH255693   0.352   2.480   1.697  0.3531  0.4996 -0.2670
11401TIP3    H155694   0.341   2.491   1.602  1.2551 -1.0707 -0.5804
11401TIP3    H255695   0.411   2.550   1.722  1.6235 -0.2111 -1.2141
11402TIP3   OH255696   4.596   6.175   5.258  0.1503 -0.8066  0.0413
11402TIP3    H155697   4.529   6.232   5.295  0.2039 -0.3837 -0.4870
11402TIP3    H255698   4.587   6.092   5.304 -1.7637 -1.2515 -1.0970
11403TIP3   OH255699   3.309   1.503   2.041  0.7718 -0.0958  0.3476
11403TIP3    H155700   3.392   1.459   2.023  0.9996  0.5682 -0.2745
11403TIP3    H255701   3.289   1.550   1.960  0.1522  0.3192  0.7388
11404TIP3   OH255702   0.012   1.353  16.676 -0.4413  0.4003 -0.0435
11404TIP3    H155703  -0.078   1.384  16.677 -0.9594 -1.1138 -0.0500
11404TIP3    H255704   0.053   1.397  16.751 -0.6390  2.6312 -1.2127
11405TIP3   OH255705   0.536   1.947  10.813 -0.4869 -0.1908 -0.3284
11405TIP3    H155706   0.620   1.902  10.818 -0.7782 -0.6952  0.1122
11405TIP3    H255707   0.557   2.034  10.778 -0.2015 -1.3522 -3.1195
11406TIP3   OH255708   4.491   2.051   4.887 -0.4558 -0.1968 -0.5323
11406TIP3    H155709   4.468   2.047   4.980 -0.9317  1.1341 -0.5895
11406TIP3    H255710   4.415   2.088   4.844  0.1312  0.1056 -1.3281
11407TIP3   OH255711   0.221   0.543   0.969 -0.1603  0.3986 -0.3333
11407TIP3    H155712   0.218   0.576   1.059  1.4832 -0.4419  0.0425
11407TIP3    H255713   0.286   0.473   0.971 -1.9353 -1.3320 -1.6395
11408TIP3   OH255714   3.856   5.003   1.040  0.0676  0.5789 -0.1676
11408TIP3    H155715   3.925   4.945   1.075 -1.5008 -1.6919 -0.7352
11408TIP3    H255716   3.835   5.061   1.113 -0.8181 -1.9261  1.6450
11409TIP3   OH255717   4.783   1.442   2.681  0.0102 -0.0751  0.2832
11409TIP3    H155718   4.860   1.465   2.628 -0.6988  0.6854 -0.4358
11409TIP3    H255719   4.814   1.372   2.739  0.8258 -0.8839 -1.0880
11410TIP3   OH255720   0.161   4.968  15.460  0.2694 -0.0313 -0.3515
11410TIP3    H155721   0.207   4.964  15.376 -0.3953  4.0663 -1.0110
11410TIP3    H255722   0.074   5.001  15.438 -0.1610  0.3341  1.8323
11411TIP3   OH255723   4.508   1.802   4.286  0.0416 -0.3665  0.0271
11411TIP3    H155724   4.545   1.800   4.375 -1.2559  0.3464  0.5892
11411TIP3    H255725   4.578   1.840   4.233  0.5500 -0.0779  0.8835
11412TIP3   OH255726   3.484   2.331  17.071  0.7063 -0.0341 -0.7285
11412TIP3    H155727   3.395   2.320  17.037  1.0756 -1.1106 -1.3461
11412TIP3    H255728   3.493   2.264  17.138  1.1644 -0.1492 -0.8994
11413TIP3   OH255729   2.901   2.254   7.107 -1.2176 -0.2461 -0.1074
11413TIP3    H155730   2.996   2.248   7.096 -1.4426 -1.7855 -1.6130
11413TIP3    H255731   2.867   2.263   7.018 -2.5302 -0.6012  0.3394
11414TIP3   OH255732   4.174   6.136  14.624 -0.1987  0.4189  0.3304
11414TIP3    H155733   4.266   6.154  14.644 -0.8836  0.9936  3.0777
11414TIP3    H255734   4.178   6.082  14.545  2.4318  1.4828 -0.3395
11415TIP3   OH255735   0.574   1.852  12.446 -0.3215  0.1848 -0.2417
11415TIP3    H155736   0.576   1.945  12.424  0.4905  0.4210  0.8176
11415TIP3    H255737   0.631   1.844  12.522 -0.2285 -1.2170 -0.4543
11416TIP3   OH255738   2.047   1.665   4.851  0.0819  0.0853 -0.4702
11416TIP3    H155739   2.107   1.736   4.829  0.6964  0.3892  1.9796
11416TIP3    H255740   2.089   1.621   4.925 -2.2575 -0.2668  0.6935
11417TIP3   OH255741   4.773   0.041   1.514 -0.1466 -0.1270  0.3277
11417TIP3    H155742   4.831  -0.030   1.541  2.7542  1.4981 -1.3933
11417TIP3    H255743   4.748   0.084   1.596  1.2472 -0.7379  1.0961
11418TIP3   OH255744   2.436   4.883  14.319 -0.1711 -0.2476  0.5785
11418TIP3    H155745   2.469   4.973  14.319  1.2121 -0.7432  0.9101
11418TIP3    H255746   2.454   4.851  14.231 -1.8466  0.2010  0.0442
11419TIP3   OH255747   0.561   1.711   6.704  0.8644 -0.4996  0.6142
11419TIP3    H155748   0.469   1.684   6.698  0.3797  0.9553  1.0603
11419TIP3    H255749   0.561   1.802   6.671  2.5667 -1.2843 -1.7127
11420TIP3   OH255750   5.693   4.535  10.587  0.5455  0.4610 -0.3568
11420TIP3    H155751   5.727   4.624  10.595  0.5156  0.4343  0.0468
11420TIP3    H255752   5.608   4.545  10.545  1.2231  0.4996 -1.7782
11421TIP3   OH255753   0.561   6.047   0.955 -0.0557 -0.4968 -1.0341
11421TIP3    H155754   0.583   6.015   1.043  1.6844  2.8282 -0.1948
11421TIP3    H255755   0.621   5.999   0.897  0.3268 -1.0920 -0.1641
11422TIP3   OH255756   0.604   1.146  11.362  0.7260 -0.1111 -0.3802
11422TIP3    H155757   0.644   1.230  11.340 -1.3195  1.1436  0.5939
11422TIP3    H255758   0.677   1.089  11.383  2.1091  1.5522 -0.6219
11423TIP3   OH255759   4.288   6.166  15.100 -0.2176 -0.5097  0.2825
11423TIP3    H155760   4.341   6.244  15.116  0.4247 -1.1127  1.1829
11423TIP3    H255761   4.225   6.192  15.033  2.8725 -0.5062 -2.7565
11424TIP3   OH255762   2.359   2.137  12.094  0.0519 -0.5190 -0.2035
11424TIP3    H155763   2.311   2.204  12.046 -0.5275 -0.3169  0.6466
11424TIP3    H255764   2.397   2.184  12.169  0.1549 -1.0179  0.0581
11425TIP3   OH255765   6.510   6.101   1.562  0.5565  0.0259 -0.2931
11425TIP3    H155766   6.595   6.126   1.526  0.5197 -1.2785 -1.3201
11425TIP3    H255767   6.450   6.102   1.487  0.2704 -1.7560 -0.1182
11426TIP3   OH255768   4.167   1.171   3.907  0.4582  0.2814  0.6296
11426TIP3    H155769   4.194   1.170   3.815  1.5847 -0.4712  0.9699
11426TIP3    H255770   4.233   1.120   3.953 -0.9408 -0.6590  1.6443
11427TIP3   OH255771   0.114   3.356  11.201  0.5796 -0.9365 -0.1180
11427TIP3    H155772   0.132   3.393  11.287  2.0073 -0.6346 -0.5272
11427TIP3    H255773   0.042   3.410  11.166 -1.6209 -2.5397  1.7866
11428TIP3   OH255774   5.453   1.219   4.480 -0.6767 -0.2373 -0.5889
11428TIP3    H155775   5.499   1.175   4.408 -0.9461  0.7448 -1.3715
11428TIP3    H255776   5.521   1.263   4.530 -0.2702 -2.3444  0.8114
11429TIP3   OH255777   1.909   1.563   6.212  0.0985 -0.1262 -0.4571
11429TIP3    H155778   1.878   1.561   6.122  2.7759  0.6059 -1.4217
11429TIP3    H255779   1.915   1.656   6.233  0.5011 -0.2856  0.1359
11430TIP3   OH255780   3.258   1.067  16.811 -0.6516  0.5143 -0.3292
11430TIP3    H155781   3.339   1.118  16.812 -0.8994  0.9488 -1.1913
11430TIP3    H255782   3.277   0.989  16.863  0.3210  0.6060 -0.5429
11431TIP3   OH255783   5.339   5.652   1.746 -0.0342 -0.3425 -0.5535
11431TIP3    H155784   5.417   5.619   1.791 -0.9341  0.1544  1.4274
11431TIP3    H255785   5.267   5.631   1.804 -1.5158 -1.5607 -2.7630
11432TIP3   OH255786   6.257   0.477   2.069  0.3383  0.7667 -0.1427
11432TIP3    H155787   6.210   0.532   2.131  1.4288  1.0510  0.4333
11432TIP3    H255788   6.207   0.396   2.066 -0.1662  1.0543  0.4957
11433TIP3   OH255789   6.772   2.014   2.218 -0.2064 -0.6207 -0.8748
11433TIP3    H155790   6.838   2.084   2.212 -0.3581 -0.5708 -2.2076
11433TIP3    H255791   6.821   1.937   2.248  0.5647 -0.6988 -2.2711
11434TIP3   OH255792   0.999   1.467   4.182  0.0853  0.3152  0.0998
11434TIP3    H155793   0.932   1.454   4.249  0.7837 -1.4598  0.4987
11434TIP3    H255794   1.035   1.379   4.168  1.1905  0.9815 -1.2870
11435TIP3   OH255795   4.730   3.258   1.864 -0.0214 -0.3817 -0.2493
11435TIP3    H155796   4.669   3.213   1.922 -0.4875  1.2375  0.5458
11435TIP3    H255797   4.813   3.211   1.876 -0.7206 -1.6226 -0.1838
11436TIP3   OH255798   3.801   3.689   1.738 -0.0637  0.4384  0.5508
11436TIP3    H155799   3.867   3.664   1.674  0.7029  2.7841  0.3670
11436TIP3    H255800   3.767   3.606   1.771  1.9509 -0.8062 -0.3951
11437TIP3   OH255801   1.758   0.217  14.430 -0.4706  0.9742 -0.1462
11437TIP3    H155802   1.718   0.157  14.493  0.6544  2.2441  1.8034
11437TIP3    H255803   1.828   0.166  14.390 -0.0034  0.7359  0.9598
11438TIP3   OH255804   5.387   2.712   5.930 -0.5566  0.7111  0.1947
11438TIP3    H155805   5.377   2.807   5.916 -0.8595  0.4308 -1.6290
11438TIP3    H255806   5.397   2.676   5.842 -1.5958 -1.0909  0.7901
11439TIP3   OH255807   4.168   3.336   0.905 -0.0368  0.6243  0.3453
11439TIP3    H155808   4.190   3.424   0.874  1.5785  0.8723  2.0937
11439TIP3    H255809   4.216   3.327   0.987  1.1004 -2.4554 -0.5581
11440TIP3   OH255810   5.371   1.562   5.128 -0.2030  0.2020  0.3669
11440TIP3    H155811   5.428   1.608   5.190 -0.8680 -0.2188  1.3101
11440TIP3    H255812   5.295   1.619   5.119 -0.4093 -0.0566  0.4672
11441TIP3   OH255813   1.178   0.841   4.641  0.0819 -0.1993 -0.0981
11441TIP3    H155814   1.253   0.901   4.645  0.1831 -0.3848  0.8849
11441TIP3    H255815   1.187   0.786   4.718 -0.9472 -0.3827 -0.0988
11442TIP3   OH255816   5.598   1.174   6.707 -0.1709 -0.5603  0.2272
11442TIP3    H155817   5.592   1.085   6.739  0.4848 -0.5309  0.4459
11442TIP3    H255818   5.692   1.192   6.703 -0.1614 -0.9517 -2.7745
11443TIP3   OH255819   5.461   2.058   0.735 -0.2727 -0.7327 -0.2535
11443TIP3    H155820   5.535   2.053   0.796 -0.7068  1.9573  0.5594
11443TIP3    H255821   5.394   2.003   0.775  0.0590 -0.3819  0.8128
11444TIP3   OH255822   1.870   4.270  13.206 -0.2703 -0.5128 -0.3923
11444TIP3    H155823   1.954   4.251  13.165  0.8414  0.9195  1.1388
11444TIP3    H255824   1.857   4.198  13.268  0.0830 -0.4648 -0.2617
11445TIP3   OH255825   3.738   4.878  14.551 -0.4338 -0.1968 -0.3139
11445TIP3    H155826   3.753   4.942  14.481  3.0256 -0.2212  0.3073
11445TIP3    H255827   3.716   4.931  14.627 -2.0525 -0.0374 -0.8809
11446TIP3   OH255828   0.517   2.559   0.931 -0.6908  0.3016  0.1233
11446TIP3    H155829   0.503   2.633   0.991 -1.0382  1.6917 -1.6354
11446TIP3    H255830   0.452   2.494   0.959 -0.1577  0.4992  1.9054
11447TIP3   OH255831   0.899   0.784  15.936 -0.0973  0.1388 -0.1775
11447TIP3    H155832   0.833   0.769  15.869 -1.0071  0.6904  0.5793
11447TIP3    H255833   0.867   0.735  16.012 -1.1153  2.7098  1.0993
11448TIP3   OH255834   2.818   2.620   4.159  0.7047  0.1251  0.2260
11448TIP3    H155835   2.899   2.637   4.111 -0.4500 -0.1393 -1.9075
11448TIP3    H255836   2.750   2.664   4.107 -0.8715 -1.9678  0.4313
11449TIP3   OH255837   4.215   6.685   1.747  0.3107  0.5943 -0.2257
11449TIP3    H155838   4.281   6.616   1.736 -0.3049  0.0063 -0.3412
11449TIP3    H255839   4.229   6.719   1.835 -1.3920 -1.8912  1.0865
11450TIP3   OH255840   6.222   2.248  15.108  0.1609 -0.4108 -0.2256
11450TIP3    H155841   6.131   2.278  15.106  0.7236  1.4752  1.3091
11450TIP3    H255842   6.221   2.166  15.057 -2.4304 -0.5711  0.0011
11451TIP3   OH255843   2.145   2.000  14.843  0.1024  0.3926  0.7339
11451TIP3    H155844   2.096   1.966  14.768  2.5040 -2.6140  0.4283
11451TIP3    H255845   2.191   2.076  14.809  0.3173 -0.3026 -0.5595
11452TIP3   OH255846   1.467   1.341  12.445  0.0869 -0.6145  0.1929
11452TIP3    H155847   1.474   1.385  12.530 -0.4264  1.3469 -0.7394
11452TIP3    H255848   1.395   1.386  12.401  0.0915 -1.8818 -1.1248
11453TIP3   OH255849   2.639   5.496   1.644 -0.5200 -0.4086 -0.3702
11453TIP3    H155850   2.649   5.401   1.633  0.8605 -0.1370 -1.5528
11453TIP3    H255851   2.582   5.522   1.572 -1.6861 -0.4585  0.5107
11454TIP3   OH255852   4.169   0.722   5.417 -0.1486 -0.3414 -0.6875
11454TIP3    H155853   4.097   0.713   5.354 -2.3834 -0.7638  1.8384
11454TIP3    H255854   4.169   0.815   5.441 -0.6586 -0.5736  0.2245
11455TIP3   OH255855   5.180   6.238   2.300  0.2515  0.5161 -0.3489
11455TIP3    H155856   5.139   6.308   2.350 -0.0969  0.2454 -0.2605
11455TIP3    H255857   5.204   6.172   2.365 -1.1699 -0.3223 -0.6450
11456TIP3   OH255858   1.707   6.600   5.788 -0.5984  1.0658 -0.2233
11456TIP3    H155859   1.719   6.530   5.722 -2.0654  0.2540  0.3402
11456TIP3    H255860   1.690   6.553   5.869  2.8344  2.0498  1.1106
11457TIP3   OH255861   2.859   3.093   1.404 -0.3460 -0.1470 -0.5265
11457TIP3    H155862   2.920   3.019   1.407 -0.7616 -0.4200  1.3725
11457TIP3    H255863   2.912   3.169   1.430 -0.7091 -0.3212  0.7423
11458TIP3   OH255864   3.871   4.812  12.809  0.2739  0.4483 -0.0686
11458TIP3    H155865   3.860   4.724  12.846 -2.8479 -0.3966 -2.8347
11458TIP3    H255866   3.782   4.843  12.793  1.3845  3.4547 -0.7439
11459TIP3   OH255867   0.483   4.687  10.708  0.4070  0.4314 -0.0263
11459TIP3    H155868   0.522   4.600  10.720  1.9141  1.0906 -0.0717
11459TIP3    H255869   0.391   4.669  10.686  0.6328 -1.1366  0.2585
11460TIP3   OH255870   6.324   6.436  13.276  0.1606 -0.6589  0.3060
11460TIP3    H155871   6.381   6.377  13.225 -0.6280 -0.5052 -0.7610
11460TIP3    H255872   6.277   6.378  13.336 -0.0595 -1.0335 -0.2253
11461TIP3   OH255873   4.329   5.667   6.231 -0.4090 -0.0322  0.8444
11461TIP3    H155874   4.349   5.577   6.203  0.9664  0.5483 -0.0782
11461TIP3    H255875   4.254   5.692   6.177  0.0292 -0.1599  0.1730
11462TIP3   OH255876   1.954   5.484  14.185  0.1346  0.4046  0.0235
11462TIP3    H155877   1.948   5.403  14.236 -2.0403  0.2164 -0.4757
11462TIP3    H255878   1.908   5.549  14.238  0.8077  1.0283 -0.1496
11463TIP3   OH255879   2.061   2.061  15.137  0.9577 -0.5936 -0.2654
11463TIP3    H155880   2.152   2.057  15.166  0.7606 -0.7828  0.3258
11463TIP3    H255881   2.046   2.154  15.120  1.6101 -0.7026 -1.4922
11464TIP3   OH255882   1.259   1.413   3.357  0.1468 -0.6100 -0.0716
11464TIP3    H155883   1.275   1.429   3.450 -0.3550 -0.7784  0.0431
11464TIP3    H255884   1.308   1.482   3.312 -0.4707  0.1042  0.3541
11465TIP3   OH255885   6.813   2.016  15.114 -0.5534  0.5930 -0.5491
11465TIP3    H155886   6.880   1.971  15.166  1.0839  0.7264 -2.4599
11465TIP3    H255887   6.735   2.017  15.170  0.8236 -0.2287  1.4405
11466TIP3   OH255888   4.674   0.629   3.949  0.4018  0.2110  0.2386
11466TIP3    H155889   4.662   0.542   3.986  2.2959 -0.3577 -0.4787
11466TIP3    H255890   4.757   0.625   3.903  0.1564  2.1914 -0.4210
11467TIP3   OH255891   3.298   2.452  14.885 -0.2712  0.1124 -0.3014
11467TIP3    H155892   3.343   2.373  14.916  1.1053  0.4624 -1.3378
11467TIP3    H255893   3.308   2.515  14.956 -0.3616 -0.2719  0.0537
11468TIP3   OH255894   3.037   1.775   2.939  0.6972  0.0470  0.5411
11468TIP3    H155895   2.944   1.793   2.953  0.7720  0.9465 -0.0551
11468TIP3    H255896   3.060   1.712   3.007 -0.1169  0.5589  1.2957
11469TIP3   OH255897   2.282   0.610   3.786 -0.0372  0.4245  0.0746
11469TIP3    H155898   2.230   0.662   3.725  1.7419 -0.1410 -1.9698
11469TIP3    H255899   2.240   0.523   3.785 -1.2375  0.9698  1.2565
11470TIP3   OH255900   4.633   3.258   3.700 -0.1842  0.5087  0.2573
11470TIP3    H155901   4.552   3.305   3.682  0.4296  0.7588 -1.9297
11470TIP3    H255902   4.605   3.173   3.734 -1.3990  0.0938 -1.7184
11471TIP3   OH255903   4.398   3.794  13.023  0.0912 -1.3203 -0.3069
11471TIP3    H155904   4.331   3.857  13.050  0.2947 -2.3916  2.8504
11471TIP3    H255905   4.456   3.844  12.965 -0.9760  0.7748  0.3848
11472TIP3   OH255906   5.986   3.410  13.322 -0.4137 -0.1229 -0.3557
11472TIP3    H155907   5.948   3.498  13.324 -0.6617 -0.2472  0.7195
11472TIP3    H255908   6.044   3.408  13.397  1.0377 -0.2543 -1.4727
11473TIP3   OH255909   3.290   6.789   5.896  0.5017 -0.3120 -0.7199
11473TIP3    H155910   3.243   6.869   5.873  1.1065  0.1441 -0.3880
11473TIP3    H255911   3.345   6.771   5.819 -0.2837 -0.9098 -1.1564
11474TIP3   OH255912   2.462   6.143  11.683 -0.4457 -0.1938  0.3374
11474TIP3    H155913   2.466   6.051  11.656 -0.1075 -0.8599  2.5198
11474TIP3    H255914   2.530   6.151  11.750 -0.6614  1.5718  0.3644
11475TIP3   OH255915   3.048   6.771  13.070 -0.2104 -0.0670 -0.3887
11475TIP3    H155916   3.087   6.690  13.103  0.3115  0.4919  0.4251
11475TIP3    H255917   3.120   6.835  13.074 -1.0298  0.8188  0.4695
11476TIP3   OH255918   5.274   2.903   0.497 -0.0407 -0.2962 -0.9898
11476TIP3    H155919   5.288   2.940   0.584 -1.0468 -2.8436  0.3356
11476TIP3    H255920   5.341   2.944   0.442  3.2123 -1.5033  1.8533
11477TIP3   OH255921   1.570   6.346   4.566  0.1014  0.3187 -0.1174
11477TIP3    H155922   1.530   6.372   4.649  0.1624  1.4758 -0.4420
11477TIP3    H255923   1.497   6.312   4.514 -0.1942  0.9336 -0.1160
11478TIP3   OH255924   2.988   0.123   2.610  0.5712  0.0508 -0.2513
11478TIP3    H155925   3.029   0.096   2.691  0.3673  0.1653 -0.1092
11478TIP3    H255926   3.013   0.215   2.599 -0.9883  0.6091  0.6868
11479TIP3   OH255927   1.178   5.535   5.159  0.1935  0.1345 -0.6996
11479TIP3    H155928   1.261   5.524   5.112  0.1458 -4.3892  0.0947
11479TIP3    H255929   1.113   5.489   5.106 -0.6021 -1.7039  1.7832
11480TIP3   OH255930   1.970   2.407   3.276 -0.1820 -0.0498  0.0554
11480TIP3    H155931   1.958   2.470   3.205 -0.1508 -0.5882 -0.4332
11480TIP3    H255932   2.065   2.397   3.283 -0.2226 -1.0710 -0.7883
11481TIP3   OH255933   1.898   0.436  15.413 -0.2177 -0.1036  0.1271
11481TIP3    H155934   1.863   0.377  15.480 -0.6570  2.7447  2.4844
11481TIP3    H255935   1.823   0.453  15.355 -0.4328 -0.7587  0.1983
11482TIP3   OH255936   1.885   3.608   3.636  0.7053 -0.2449 -0.2022
11482TIP3    H155937   1.961   3.588   3.581 -0.3270  1.4480 -2.3297
11482TIP3    H255938   1.813   3.558   3.597  0.0718  0.5486 -0.0699
11483TIP3   OH255939   5.936   0.269   5.174 -0.0906  0.0210 -0.5694
11483TIP3    H155940   5.946   0.174   5.172  0.7406  0.0516  1.4759
11483TIP3    H255941   6.026   0.303   5.169 -0.2931  0.6629  0.0249
11484TIP3   OH255942   3.344   0.525  12.753 -0.0226 -0.6167 -0.0773
11484TIP3    H155943   3.437   0.540  12.740  0.0309  0.2736  1.1911
11484TIP3    H255944   3.325   0.566  12.838 -1.3718 -1.5687  0.0975
11485TIP3   OH255945   3.186   0.604   5.015 -0.3771  0.2245  0.5364
11485TIP3    H155946   3.273   0.627   4.984  0.1690 -1.7688  0.5337
11485TIP3    H255947   3.184   0.633   5.106 -0.4050  2.0002 -0.0088
11486TIP3   OH255948   0.371   3.285  11.111  0.2149  0.0221 -0.3302
11486TIP3    H155949   0.280   3.300  11.136  0.5880  2.3864 -0.2750
11486TIP3    H255950   0.420   3.298  11.192  0.5710 -1.8599 -0.2178
11487TIP3   OH255951   1.603   6.094  15.984  0.5169 -0.0871 -0.4296
11487TIP3    H155952   1.616   6.005  15.951 -0.3663 -0.3367 -0.1296
11487TIP3    H255953   1.634   6.091  16.075 -0.3505 -0.3297 -0.1353
11488TIP3   OH255954   4.741   4.360   1.057  0.0235  0.3718 -0.2651
11488TIP3    H155955   4.667   4.405   1.098  1.2914  0.6691  1.8010
11488TIP3    H255956   4.768   4.419   0.986  0.1518  1.7476  0.8870
11489TIP3   OH255957   6.326   6.131   5.764 -0.2635 -0.2955 -0.3068
11489TIP3    H155958   6.412   6.089   5.776 -0.5145 -0.4126  1.1406
11489TIP3    H255959   6.266   6.058   5.751 -0.0252 -0.1785 -2.2696
11490TIP3   OH255960   5.699   4.873  13.616  0.6684 -0.5744  0.1179
11490TIP3    H155961   5.696   4.842  13.526 -0.1686 -0.2743  0.0370
11490TIP3    H255962   5.683   4.968  13.609 -1.9727 -0.9306  0.7682
11491TIP3   OH255963   0.485   2.269   4.908  0.3403 -0.0497  0.1886
11491TIP3    H155964   0.512   2.308   4.825 -0.0712  1.5070  0.7718
11491TIP3    H255965   0.505   2.176   4.898  0.4956  0.1527 -1.5696
11492TIP3   OH255966   5.274   0.657  12.022  0.0439  0.6416  0.4594
11492TIP3    H155967   5.300   0.743  11.990 -0.9920  0.9425  0.4112
11492TIP3    H255968   5.196   0.674  12.075 -0.3904 -0.3142  0.1389
11493TIP3   OH255969   5.624   6.702  16.587  0.2447  0.5157  0.3617
11493TIP3    H155970   5.685   6.753  16.534 -0.2904  0.7032 -0.0811
11493TIP3    H255971   5.575   6.649  16.523  0.0020  0.3080  0.7166
11494TIP3   OH255972   5.354   5.848  16.666 -0.0987  0.0058 -0.0658
11494TIP3    H155973   5.445   5.853  16.636 -0.4557 -0.8167 -1.2982
11494TIP3    H255974   5.308   5.914  16.614 -0.7330 -1.4825 -1.4278
11495TIP3   OH255975   6.191   2.194   3.995 -0.1038 -0.4670  0.4405
11495TIP3    H155976   6.182   2.099   4.000  1.0063 -0.6141 -0.2428
11495TIP3    H255977   6.201   2.222   4.086 -2.7874 -0.7385  0.8620
11496TIP3   OH255978   4.285   0.267  10.997  0.5072 -0.2471 -0.5608
11496TIP3    H155979   4.214   0.206  10.977  1.3662 -0.9592 -1.5693
11496TIP3    H255980   4.324   0.233  11.077 -0.0928 -0.0360 -0.1799
11497TIP3   OH255981   6.697   2.894  16.473  0.1442 -0.0056  0.0256
11497TIP3    H155982   6.731   2.943  16.548  3.2388 -0.0636 -1.2672
11497TIP3    H255983   6.645   2.957  16.424  0.5993  0.8317  0.6200
11498TIP3   OH255984   3.230   2.191  15.223  0.3463  0.4517  0.4450
11498TIP3    H155985   3.299   2.132  15.252 -0.1773  0.1654  1.1228
11498TIP3    H255986   3.149   2.142  15.238 -0.0183  0.8936 -0.0752
11499TIP3   OH255987   0.722   0.305  12.347 -0.3170  0.1447  0.0270
11499TIP3    H155988   0.737   0.223  12.394 -0.7582 -0.1840 -0.4005
11499TIP3    H255989   0.753   0.373  12.407 -0.0899 -0.3248  0.4442
11500TIP3   OH255990   5.036   3.012   4.191 -0.5908 -0.2344 -0.5442
11500TIP3    H155991   5.067   3.056   4.112  3.9928 -2.3239 -0.1044
11500TIP3    H255992   4.990   2.934   4.158  2.3203 -1.7357 -1.2851
11501TIP3   OH255993   5.265   4.357   5.064  0.5969 -0.2700  0.4536
11501TIP3    H155994   5.185   4.319   5.100 -0.1894  0.1242 -0.8367
11501TIP3    H255995   5.264   4.333   4.971 -0.4938  3.7008 -0.6865
11502TIP3   OH255996   4.212   4.053   3.700 -0.3958  0.6126 -0.6260
11502TIP3    H155997   4.192   4.146   3.694  2.2954  1.2981  0.4917
11502TIP3    H255998   4.257   4.032   3.617  1.1827  0.8947  0.1436
11503TIP3   OH255999   6.190   6.749  15.172 -0.5118  0.0231 -0.0312
11503TIP3    H156000   6.186   6.740  15.077 -1.3893 -1.4799  0.1216
11503TIP3    H256001   6.146   6.832  15.190 -1.5275 -0.3108 -0.8743
11504TIP3   OH256002   4.973   0.927   2.916 -0.5273 -0.3790 -0.0397
11504TIP3    H156003   5.034   0.944   2.987 -1.5088  1.1818  0.4530
11504TIP3    H256004   4.943   1.013   2.889 -0.8808 -1.0156 -1.7228
11505TIP3   OH256005   6.534   4.737   2.820  0.6196 -0.2364 -0.0756
11505TIP3    H156006   6.544   4.831   2.837 -1.0943 -0.3588  1.9798
11505TIP3    H256007   6.621   4.700   2.835  0.5268  0.5605  2.7183
11506TIP3   OH256008   6.783   5.697   4.405 -0.4904  0.6265 -0.4166
11506TIP3    H156009   6.815   5.674   4.318  0.3879 -1.7259  0.4915
11506TIP3    H256010   6.800   5.791   4.414  0.9349  0.5424 -2.1400
11507TIP3   OH256011   5.621   2.087  13.493 -0.0453  0.3160 -0.9855
11507TIP3    H156012   5.620   2.094  13.589  0.4345  1.8830 -1.0819
11507TIP3    H256013   5.701   2.132  13.467 -0.8409  1.0395 -2.2079
11508TIP3   OH256014   1.541   3.988  16.364  0.2252  0.3587  0.0282
11508TIP3    H156015   1.552   4.060  16.426  0.3410 -0.2304  0.6944
11508TIP3    H256016   1.580   3.913  16.408  0.3382 -0.0555 -0.7738
11509TIP3   OH256017   3.334   4.046  17.236 -0.1461  0.3217  0.3940
11509TIP3    H156018   3.383   4.128  17.244  0.2051 -0.0985  2.9589
11509TIP3    H256019   3.337   4.007  17.324 -1.6295 -1.6902 -0.3985
11510TIP3   OH256020   5.475   2.417   4.184 -0.9069 -0.2374 -0.1782
11510TIP3    H156021   5.462   2.363   4.262 -0.4619 -0.4092 -0.2200
11510TIP3    H256022   5.564   2.397   4.156 -0.0232  2.0185  0.9318
11511TIP3   OH256023   4.509   5.774  11.843 -0.3867  0.7613  0.1934
11511TIP3    H156024   4.453   5.745  11.915 -0.4031 -1.8515 -0.8058
11511TIP3    H256025   4.558   5.695  11.818 -0.9315  1.4003 -3.1162
11512TIP3   OH256026   0.285   2.006  13.024  0.2880  0.6187 -0.1002
11512TIP3    H156027   0.243   1.920  13.013 -0.4096  1.0936 -1.2507
11512TIP3    H256028   0.217   2.061  13.062 -0.4210  1.5870 -2.6548
11513TIP3   OH256029   6.518   5.996   5.889 -0.0064  0.0476  0.4380
11513TIP3    H156030   6.475   6.014   5.972  0.7146 -0.8653  1.0327
11513TIP3    H256031   6.606   5.965   5.914  1.4563  3.0261 -0.7591
11514TIP3   OH256032   0.805   4.406   5.370  0.4162  0.0094  0.5809
11514TIP3    H156033   0.764   4.325   5.339  0.6675  0.7867 -1.8779
11514TIP3    H256034   0.830   4.386   5.461 -0.2877 -2.3727  0.3019
11515TIP3   OH256035   6.227   2.374  14.626 -0.0684 -0.1917 -0.2120
11515TIP3    H156036   6.179   2.436  14.680 -0.3076 -0.7767  0.2474
11515TIP3    H256037   6.310   2.418  14.606 -0.2158  0.2507  0.1561
11516TIP3   OH256038   6.619   4.184   5.850 -0.3652 -0.3362 -0.4305
11516TIP3    H156039   6.622   4.134   5.767 -0.6458  0.6398 -1.0317
11516TIP3    H256040   6.711   4.201   5.870 -0.3092 -0.3183 -0.6933
11517TIP3   OH256041   2.728   0.310  13.730 -0.4615 -0.1047  0.4376
11517TIP3    H156042   2.714   0.236  13.789 -0.3472 -0.9697 -0.6213
11517TIP3    H256043   2.762   0.272  13.649 -0.6740  1.0668 -0.2263
11518TIP3   OH256044   2.241   6.497   3.828  0.1564 -0.1296 -0.6542
11518TIP3    H156045   2.222   6.427   3.891 -0.9241  0.3127 -0.4814
11518TIP3    H256046   2.155   6.528   3.800  0.5945  2.7573  1.0730
11519TIP3   OH256047   6.105   0.909  14.583  0.2201 -0.4868 -0.5089
11519TIP3    H156048   6.116   0.993  14.539 -1.5499 -0.5092 -1.0138
11519TIP3    H256049   6.118   0.929  14.676  0.9356  0.1252 -0.7400
11520TIP3   OH256050   0.935   3.542   1.570 -0.1072 -0.9839 -0.0814
11520TIP3    H156051   0.927   3.493   1.652 -1.9677 -0.4586  0.0554
11520TIP3    H256052   0.862   3.513   1.517  0.2162 -0.1892 -0.9717
11521TIP3   OH256053   0.897   5.326   1.648 -0.0747  0.3560  0.0135
11521TIP3    H156054   0.890   5.419   1.672  0.4353  0.4446 -0.1786
11521TIP3    H256055   0.987   5.302   1.670  0.0079  0.0955 -0.6171
11522TIP3   OH256056   4.461   0.436  11.318  0.2943 -0.5295  0.2552
11522TIP3    H156057   4.541   0.419  11.368  0.8924 -0.5054 -0.6621
11522TIP3    H256058   4.401   0.477  11.380  0.8463 -0.9354  1.0648
11523TIP3   OH256059   4.991   3.167   1.904 -0.1267  0.0710 -0.3319
11523TIP3    H156060   5.007   3.074   1.921 -3.5459 -1.0466 -2.7739
11523TIP3    H256061   5.066   3.195   1.852  2.2555 -0.5696  2.6102
11524TIP3   OH256062   3.863   0.910  15.125  0.0777  0.2866 -0.1141
11524TIP3    H156063   3.916   0.839  15.089 -0.8963  0.1221 -1.2356
11524TIP3    H256064   3.889   0.987  15.075  2.2151  1.0571  2.1012
11525TIP3   OH256065   6.798   0.169  14.303  0.2675  0.2723 -0.2873
11525TIP3    H156066   6.821   0.251  14.259 -0.0346  0.9896  0.8775
11525TIP3    H256067   6.711   0.185  14.339 -0.3304 -1.0035 -1.1157
11526TIP3   OH256068   2.550   2.468   5.593 -0.2058 -0.1240  0.5912
11526TIP3    H156069   2.645   2.456   5.595 -0.1483  0.4738  1.5968
11526TIP3    H256070   2.538   2.562   5.586 -0.7333 -0.2327 -0.0494
11527TIP3   OH256071   2.239   0.909  10.408 -0.0624 -0.5615 -0.6381
11527TIP3    H156072   2.264   0.984  10.463  1.4493 -1.3724 -0.1860
11527TIP3    H256073   2.298   0.915  10.333  1.6661 -2.5878  0.4971
11528TIP3   OH256074   3.134   5.513   1.044 -1.1140  0.0091  0.0528
11528TIP3    H156075   3.040   5.496   1.038 -1.1503  0.8758 -2.7747
11528TIP3    H256076   3.175   5.427   1.049 -1.8858 -0.5653 -2.6891
11529TIP3   OH256077   5.411   3.911  16.381 -0.2152  0.2582 -1.1497
11529TIP3    H156078   5.477   3.981  16.382 -0.6590  0.6758 -0.4212
11529TIP3    H256079   5.394   3.895  16.288 -0.5219  1.5146 -1.3235
11530TIP3   OH256080   0.077   0.952  12.305  0.1148  0.0420  0.4196
11530TIP3    H156081   0.169   0.965  12.327  0.3362 -2.7374  1.2474
11530TIP3    H256082   0.031   1.018  12.358  1.6307  1.8793 -0.4714
11531TIP3   OH256083   3.715   3.573   2.855  0.3409  0.2697  0.3341
11531TIP3    H156084   3.660   3.608   2.785  0.6809  0.4971  0.1847
11531TIP3    H256085   3.803   3.568   2.817  0.2839 -0.8406  0.3119
11532TIP3   OH256086   2.878   4.421   4.807  0.2122  0.0892 -0.0048
11532TIP3    H156087   2.953   4.362   4.795  0.4323 -0.2474  2.7153
11532TIP3    H256088   2.864   4.423   4.901 -1.9240  1.7890 -0.3189
11533TIP3   OH256089   6.807   0.061  11.182 -0.4329  0.5657  0.4869
11533TIP3    H156090   6.821   0.093  11.093  0.5409 -0.9904  0.0501
11533TIP3    H256091   6.765   0.133  11.228 -1.4136  1.2115 -1.3801
11534TIP3   OH256092   4.998   4.248   1.056  0.1983  0.1160  0.6246
11534TIP3    H156093   4.996   4.339   1.029 -0.9353 -0.3736 -1.0197
11534TIP3    H256094   4.911   4.232   1.093  0.7556 -0.0151  1.8878
11535TIP3   OH256095   1.274   2.714  16.953  0.2006 -0.1983 -0.6350
11535TIP3    H156096   1.215   2.745  17.021 -1.3217 -1.8641 -1.1661
11535TIP3    H256097   1.362   2.739  16.983 -0.7524  2.1819  0.2138
11536TIP3   OH256098   1.575   4.579   5.073  0.4622  0.3597  0.3225
11536TIP3    H156099   1.556   4.498   5.121 -0.0778  0.1095 -0.3157
11536TIP3    H256100   1.532   4.647   5.124  0.3242  0.1594  0.4763
11537TIP3   OH256101   1.160   3.453   0.909  0.1589 -0.2149 -0.3209
11537TIP3    H156102   1.159   3.533   0.856  0.8304  0.7164  1.0422
11537TIP3    H256103   1.252   3.426   0.910  0.1875 -0.1114  0.5148
11538TIP3   OH256104   6.535   3.267   6.844 -0.1447 -0.0758  0.3241
11538TIP3    H156105   6.546   3.331   6.774 -0.6393  1.1405  1.3371
11538TIP3    H256106   6.441   3.257   6.853 -0.0933  0.2382  1.2254
11539TIP3   OH256107   1.068   3.544   4.743  0.2075 -1.3563  0.4834
11539TIP3    H156108   1.080   3.638   4.755  0.9921 -1.0070 -2.6261
11539TIP3    H256109   1.119   3.504   4.813  0.1644  0.5134  1.6136
11540TIP3   OH256110   6.501   2.127   3.919 -0.1625 -0.3843 -0.4467
11540TIP3    H156111   6.587   2.158   3.891 -0.5523  0.7203 -0.4542
11540TIP3    H256112   6.507   2.118   4.014 -0.1293 -0.0224 -0.4149
11541TIP3   OH256113   6.384   4.918   2.622 -0.2964  0.3058  0.7022
11541TIP3    H156114   6.475   4.908   2.595 -0.0963 -0.2800  1.5297
11541TIP3    H256115   6.381   5.002   2.668  0.4923 -0.9318  3.1416
11542TIP3   OH256116   5.796   5.029  15.851 -0.5320 -0.6239  0.0773
11542TIP3    H156117   5.834   5.042  15.938 -0.1190  1.4469 -0.3924
11542TIP3    H256118   5.865   4.985  15.801 -1.0152 -2.4556  0.9546
11543TIP3   OH256119   6.193   6.086  15.756 -0.2275  0.4340 -0.0635
11543TIP3    H156120   6.115   6.140  15.746  0.1263  0.8630 -0.5288
11543TIP3    H256121   6.159   5.997  15.766 -0.7654  0.5817 -0.5449
11544TIP3   OH256122   2.520   0.392  11.160  0.3005  0.4265  0.8202
11544TIP3    H156123   2.605   0.431  11.139 -0.0595 -0.1125 -1.7713
11544TIP3    H256124   2.515   0.398  11.255  3.3851  0.1475  1.0653
11545TIP3   OH256125   1.919   0.818   5.157  0.1477 -0.0723 -0.2603
11545TIP3    H156126   1.950   0.769   5.233  2.4280  0.3427 -0.8648
11545TIP3    H256127   1.998   0.833   5.105 -1.0349  1.4538 -1.6742
11546TIP3   OH256128   4.405   0.886  12.726  0.0044  0.1927 -0.2630
11546TIP3    H156129   4.400   0.979  12.702  0.7609  0.7936  1.7666
11546TIP3    H256130   4.314   0.858  12.731 -0.2307  0.7825 -1.0272
11547TIP3   OH256131   2.319   2.530  13.426 -0.0909 -0.4420  0.4861
11547TIP3    H156132   2.344   2.613  13.466  0.6968 -0.5539  0.2452
11547TIP3    H256133   2.342   2.540  13.333  0.0779 -0.9451  0.4692
11548TIP3   OH256134   0.435   3.017   3.049 -0.1756 -0.5020  0.2568
11548TIP3    H156135   0.425   2.937   2.997 -3.7820 -1.6972  2.5912
11548TIP3    H256136   0.400   3.087   2.994 -3.2810 -1.6475  0.6971
11549TIP3   OH256137   0.513   4.973  14.920 -0.4125 -0.2002  0.1726
11549TIP3    H156138   0.550   4.917  14.988 -0.1974  0.4134  0.5630
11549TIP3    H256139   0.551   5.059  14.937 -0.0761 -0.1161 -0.9257
11550TIP3   OH256140   1.611   1.006  12.117 -0.4695 -0.2703 -0.3025
11550TIP3    H156141   1.530   1.053  12.139 -0.5028 -0.2839 -0.3970
11550TIP3    H256142   1.673   1.074  12.092 -0.0752 -0.1570  0.9354
11551TIP3   OH256143   5.490   5.010   1.946  0.2688  0.6737  0.0215
11551TIP3    H156144   5.541   4.997   1.866 -1.6353  0.7771 -1.2231
11551TIP3    H256145   5.520   4.940   2.004  0.7143 -0.2236 -1.2648
11552TIP3   OH256146   1.240   1.801  14.335 -0.4756  0.5879  0.4005
11552TIP3    H156147   1.212   1.892  14.342  0.7396  0.8668  1.7999
11552TIP3    H256148   1.309   1.803  14.269 -0.6414  0.6292  0.2279
11553TIP3   OH256149   0.143   3.699  11.949  0.6966 -0.2463  0.2150
11553TIP3    H156150   0.143   3.716  11.855 -0.6782  0.9167  0.4046
11553TIP3    H256151   0.055   3.666  11.967  0.3809  1.1609  1.3502
11554TIP3   OH256152   0.411   0.492   2.937 -0.4237 -0.6376 -0.1959
11554TIP3    H156153   0.399   0.512   2.845  0.5912  2.6649  0.3137
11554TIP3    H256154   0.479   0.424   2.939  0.2934  0.0198 -1.8329
11555TIP3   OH256155   0.469   0.408  11.818  0.3001 -0.7402  0.2304
11555TIP3    H156156   0.492   0.315  11.825  3.0421 -0.2581 -1.5101
11555TIP3    H256157   0.482   0.429  11.725  1.5174  1.8077  0.9401
11556TIP3   OH256158   5.698   1.207  11.880  0.3778  0.0735 -0.3251
11556TIP3    H156159   5.715   1.208  11.786 -0.5177 -0.2806 -0.4920
11556TIP3    H256160   5.749   1.281  11.914 -0.6435  1.2667 -1.3252
11557TIP3   OH256161   6.667   3.483  12.062  0.0788  0.0125  0.2053
11557TIP3    H156162   6.758   3.456  12.054 -0.3899 -1.2563 -0.9865
11557TIP3    H256163   6.665   3.573  12.030  0.9730  0.1768  0.6072
11558TIP3   OH256164   2.485   2.729  13.548  0.1362 -0.3760  0.2287
11558TIP3    H156165   2.463   2.751  13.639  0.3258 -1.1938  0.4794
11558TIP3    H256166   2.581   2.726  13.547  0.2521  2.3990 -0.6684
11559TIP3   OH256167   1.481   1.064  11.832 -0.4162 -0.4167  0.2859
11559TIP3    H156168   1.500   0.970  11.840  2.8742  0.2396  0.7672
11559TIP3    H256169   1.556   1.100  11.785 -0.3854  2.3970  2.3773
11560TIP3   OH256170   1.385   0.449   4.549  0.2318 -0.0563 -0.0398
11560TIP3    H156171   1.434   0.495   4.618  1.0459  1.5239 -1.6371
11560TIP3    H256172   1.309   0.504   4.533 -0.1984 -0.6605 -0.1002
11561TIP3   OH256173   6.682   6.710  12.481 -0.1870  0.1811 -0.3352
11561TIP3    H156174   6.742   6.684  12.550 -1.6023  0.7557  1.1362
11561TIP3    H256175   6.714   6.795  12.451  0.1983  0.1169 -0.1017
11562TIP3   OH256176   4.831   2.841  12.985  0.9767 -0.3291 -0.0992
11562TIP3    H156177   4.827   2.761  12.933 -3.7909 -1.0786  1.1692
11562TIP3    H256178   4.870   2.813  13.068  1.2174 -0.9151 -0.4069
11563TIP3   OH256179   2.224   6.288   1.183  0.1358  0.2252  0.0122
11563TIP3    H156180   2.270   6.316   1.262 -1.3591  0.3149  0.8628
11563TIP3    H256181   2.270   6.208   1.156  1.3857  0.8420  0.3003
11564TIP3   OH256182   5.360   0.410  15.420 -0.3421  0.3738  0.0951
11564TIP3    H156183   5.423   0.464  15.373 -0.2618  0.3805  0.2107
11564TIP3    H256184   5.402   0.324  15.425 -0.3975  0.3449  0.0577
11565TIP3   OH256185   6.026   0.019  15.986  0.0058  0.5173  0.1291
11565TIP3    H156186   6.067  -0.022  16.062  0.3937  0.9294  0.1485
11565TIP3    H256187   5.976   0.092  16.023  0.2894  0.7907 -0.0131
11566TIP3   OH256188   2.313   0.603  14.312 -0.3353  0.2879 -0.0459
11566TIP3    H156189   2.340   0.668  14.248  1.3201  0.2371  0.5950
11566TIP3    H256190   2.372   0.529  14.298 -1.8666 -0.9006 -0.4244
11567TIP3   OH256191   1.228   4.294   0.148  0.4402 -0.1371  0.2222
11567TIP3    H156192   1.234   4.380   0.191 -0.9003 -0.2218  0.5854
11567TIP3    H256193   1.307   4.290   0.093 -0.1773  1.9155 -0.8851
11568TIP3   OH256194   2.070   0.999   0.835 -0.5698 -0.1050 -0.1184
11568TIP3    H156195   1.988   1.037   0.866 -0.7799  0.7283 -1.6562
11568TIP3    H256196   2.125   1.075   0.814  0.2221 -0.6566 -0.0702
11569TIP3   OH256197   3.114   3.657   0.572 -0.0054 -0.5037 -0.4643
11569TIP3    H156198   3.180   3.626   0.635  0.8920  1.0084 -0.6445
11569TIP3    H256199   3.030   3.633   0.612  0.6333 -2.4418 -0.2312
11570TIP3   OH256200   3.381   1.101  14.579  0.2823  0.5415 -0.4110
11570TIP3    H156201   3.451   1.162  14.554  0.7816  1.2923  2.6382
11570TIP3    H256202   3.427   1.019  14.595  0.5471  1.0852  1.7832
11571TIP3   OH256203   2.685   1.073  16.022  0.2484 -0.6026 -0.2355
11571TIP3    H156204   2.603   1.023  16.031  0.4492 -0.8258  0.3865
11571TIP3    H256205   2.681   1.109  15.933 -1.2191  0.6254  0.2969
11572TIP3   OH256206   1.258   2.294  16.543 -0.0764 -0.0116  0.1837
11572TIP3    H156207   1.327   2.357  16.563 -0.2146  0.8898 -1.9810
11572TIP3    H256208   1.304   2.210  16.536  1.3190  0.9326 -3.5659
11573TIP3   OH256209   4.130   0.326  17.041  0.0639  0.0533  0.1553
11573TIP3    H156210   4.057   0.388  17.037 -1.3080 -1.4399  1.5522
11573TIP3    H256211   4.122   0.275  16.960  0.1632  0.5596 -0.1728
11574TIP3   OH256212   3.824   6.641   5.712 -0.3114 -0.4038  0.1008
11574TIP3    H156213   3.886   6.625   5.641 -1.5173 -0.2469 -0.9845
11574TIP3    H256214   3.754   6.693   5.673 -0.4658  0.5892  1.6552
11575TIP3   OH256215   3.578   1.994   4.648 -0.1050 -0.1393 -0.4315
11575TIP3    H156216   3.511   1.976   4.715  0.3044  0.1895  0.0672
11575TIP3    H256217   3.528   2.021   4.571 -0.6006 -0.8763 -0.3804
11576TIP3   OH256218   5.300   0.742   5.329  0.2667 -0.1182  0.4910
11576TIP3    H156219   5.279   0.825   5.287  0.5410  0.2776  1.1304
11576TIP3    H256220   5.392   0.727   5.306  0.6539  0.4941  1.5911
11577TIP3   OH256221   3.096   1.486   2.922  0.5166  0.1783 -0.6604
11577TIP3    H156222   3.116   1.471   2.830  1.8213 -1.9626 -0.0770
11577TIP3    H256223   3.061   1.402   2.953 -0.4561  1.0466  0.6464
11578TIP3   OH256224   2.717   0.518   2.440  0.1774  0.2163  0.4922
11578TIP3    H156225   2.684   0.559   2.359  3.3729  2.1162  0.0724
11578TIP3    H256226   2.722   0.425   2.419 -0.5341  0.4861 -0.9667
11579TIP3   OH256227   6.183   5.232   3.086  0.0399 -0.2194  0.1986
11579TIP3    H156228   6.204   5.203   3.175  0.5165  1.2281  0.5687
11579TIP3    H256229   6.096   5.197   3.069  0.2840 -1.2060  0.9172
11580TIP3   OH256230   2.534   5.512  15.436  0.4327  0.0252  0.2345
11580TIP3    H156231   2.569   5.424  15.423 -1.5203 -0.3982 -2.4703
11580TIP3    H256232   2.560   5.561  15.358 -0.2584  1.2569  0.7491
11581TIP3   OH256233   1.577   5.207   0.768  0.1248 -0.0866  0.2991
11581TIP3    H156234   1.540   5.277   0.715 -0.4366  0.3184  1.2197
11581TIP3    H256235   1.668   5.234   0.783 -0.7878  1.8162  2.8913
11582TIP3   OH256236   1.896   1.420   3.276 -0.2068 -0.3562  0.1188
11582TIP3    H156237   1.983   1.451   3.250  0.2148  0.7612  2.6758
11582TIP3    H256238   1.913   1.354   3.342 -1.2767 -2.1436 -1.3478
11583TIP3   OH256239   4.999   4.568   0.177  0.6216  0.0353  0.1252
11583TIP3    H156240   5.088   4.531   0.176  0.6405  0.0866 -0.8028
11583TIP3    H256241   5.011   4.659   0.203  0.8279  0.0032  0.1431
11584TIP3   OH256242   6.773   1.768   3.865  0.0824  0.3514 -0.2577
11584TIP3    H156243   6.786   1.843   3.924 -0.8646  1.0375 -0.9132
11584TIP3    H256244   6.849   1.713   3.881  0.0527  0.7265  1.3240
11585TIP3   OH256245   3.942   1.143  12.886  0.1137  0.0954 -0.4615
11585TIP3    H156246   4.037   1.145  12.871  0.1566 -1.1731 -0.3929
11585TIP3    H256247   3.923   1.228  12.925  1.1005  0.6714 -1.1865
11586TIP3   OH256248   2.451   2.335  12.257 -0.2991 -0.1765 -0.6954
11586TIP3    H156249   2.472   2.429  12.262  0.7931 -0.4940  0.8610
11586TIP3    H256250   2.358   2.330  12.276 -0.4108  0.6111 -1.0155
11587TIP3   OH256251   3.252   0.224  13.875  0.8524  0.7816 -0.5556
11587TIP3    H156252   3.312   0.270  13.933  0.3229  0.9728 -0.1484
11587TIP3    H256253   3.307   0.187  13.806  1.4227  0.9991 -0.2140
11588TIP3   OH256254   5.403   3.265   0.576 -0.5010 -0.1839  0.2012
11588TIP3    H156255   5.368   3.252   0.488  1.0578 -0.3335 -0.4073
11588TIP3    H256256   5.357   3.201   0.630 -0.7420 -0.7632 -0.6893
11589TIP3   OH256257   3.270   1.528  11.958 -0.2271  0.0248 -0.3280
11589TIP3    H156258   3.329   1.538  11.883 -2.5734 -0.9626 -2.3745
11589TIP3    H256259   3.243   1.618  11.979  3.4596  0.6953  1.9223
11590TIP3   OH256260   1.940   2.726  16.923 -0.0843  0.3597  0.2547
11590TIP3    H156261   1.939   2.747  17.016  1.0777  1.8156 -0.0400
11590TIP3    H256262   2.031   2.701  16.905 -0.8467 -2.3322  0.0104
11591TIP3   OH256263   6.501   0.129  12.659 -0.1715  0.0527 -0.7607
11591TIP3    H156264   6.545   0.206  12.622  0.3715  1.2311  2.1942
11591TIP3    H256265   6.429   0.165  12.711 -1.6110 -1.6163 -1.5237
11592TIP3   OH256266   2.337   4.891  11.958  0.8700 -0.3289 -0.2599
11592TIP3    H156267   2.430   4.870  11.964  0.9885  0.5565  1.4307
11592TIP3    H256268   2.331   4.983  11.985 -0.4629 -0.2994 -0.6082
11593TIP3   OH256269   4.737   0.812  13.762  0.2616 -0.1801  0.3397
11593TIP3    H156270   4.714   0.904  13.752  1.0001 -0.0595 -0.2925
11593TIP3    H256271   4.718   0.773  13.677  1.0394 -0.3689  0.2486
11594TIP3   OH256272   2.392   3.322   0.116 -0.1878  0.5334 -0.1281
11594TIP3    H156273   2.351   3.409   0.110 -1.2758 -0.1514 -3.1989
11594TIP3    H256274   2.486   3.341   0.121 -0.5356  1.9506  1.5689
11595TIP3   OH256275   1.288   4.405   3.899 -0.2249  0.4436 -0.0747
11595TIP3    H156276   1.318   4.364   3.980 -1.6811 -0.2079  0.1602
11595TIP3    H256277   1.260   4.492   3.926  0.1262  0.5455 -0.0390
11596TIP3   OH256278   3.511   2.596  17.029  0.3086 -0.1771 -0.0188
11596TIP3    H156279   3.516   2.505  17.057  0.1993  0.0917  0.8715
11596TIP3    H256280   3.441   2.635  17.082  0.1076  0.3381 -0.6444
11597TIP3   OH256281   4.634   5.165  15.763 -0.0122  0.4088 -0.1543
11597TIP3    H156282   4.608   5.256  15.746 -0.4422  0.5990  1.4443
11597TIP3    H256283   4.661   5.164  15.855  0.7973 -0.9092 -0.3865
11598TIP3   OH256284   3.822   3.139   5.318 -0.4570 -0.7909 -0.0954
11598TIP3    H156285   3.883   3.096   5.378  1.5082 -1.4237 -2.4910
11598TIP3    H256286   3.767   3.068   5.285 -0.9565 -0.5754  0.2620
11599TIP3   OH256287   0.717   0.361   4.748  0.3963  0.5795  0.2063
11599TIP3    H156288   0.777   0.331   4.679 -1.8619 -1.0567 -1.1169
11599TIP3    H256289   0.751   0.322   4.828  0.3349 -1.4473 -0.7330
11600TIP3   OH256290   6.318   6.371  13.961 -0.3939  0.1996 -0.2109
11600TIP3    H156291   6.239   6.327  13.994  0.4594 -0.4390  1.0263
11600TIP3    H256292   6.315   6.458  14.001  1.1194 -0.8862  2.3987
11601TIP3   OH256293   6.768   5.607   1.983  0.3528  0.1911 -0.0160
11601TIP3    H156294   6.763   5.526   2.032  1.2887 -0.4010 -0.8663
11601TIP3    H256295   6.861   5.618   1.965  0.1035  0.7926 -0.9856
11602TIP3   OH256296   6.469   4.062  13.510 -0.3003 -0.7561  0.0305
11602TIP3    H156297   6.456   4.061  13.605 -0.8800 -0.4945 -0.0432
11602TIP3    H256298   6.491   3.972  13.488  1.5785 -0.4541  0.6415
11603TIP3   OH256299   5.071   5.685  15.178  0.0737  0.7015  0.2781
11603TIP3    H156300   5.130   5.615  15.207 -0.9311 -0.3104 -0.0660
11603TIP3    H256301   5.013   5.642  15.115  0.3914  2.2009 -1.0702
11604TIP3   OH256302   3.531   1.002   0.376 -0.0787  0.2745  0.1809
11604TIP3    H156303   3.613   1.013   0.423  0.0466 -0.4348  0.1392
11604TIP3    H256304   3.463   1.029   0.438  0.2324  1.7223 -0.0932
11605TIP3   OH256305   3.523   2.282   1.105 -0.1800 -0.3111 -0.0915
11605TIP3    H156306   3.497   2.268   1.014 -1.3844  1.7131 -0.0801
11605TIP3    H256307   3.607   2.236   1.113 -1.2307 -2.5479 -1.5386
11606TIP3   OH256308   5.475   4.886  14.621 -0.2158 -0.1126 -0.3688
11606TIP3    H156309   5.451   4.973  14.652  0.9416 -0.1224  0.5968
11606TIP3    H256310   5.425   4.826  14.677  2.9343 -0.1748  2.6348
11607TIP3   OH256311   4.752   3.844   3.715  0.0964  0.1962 -0.2559
11607TIP3    H156312   4.741   3.806   3.802 -1.5346  1.6468  0.2076
11607TIP3    H256313   4.832   3.895   3.721 -0.2339  0.6285  0.5333
11608TIP3   OH256314   5.821   6.019  11.949 -0.7247  0.2661  0.0660
11608TIP3    H156315   5.868   6.079  11.891  1.6407 -0.8272  0.7628
11608TIP3    H256316   5.729   6.042  11.939  0.0266  3.1664 -0.6209
11609TIP3   OH256317   0.167   5.441   4.747 -0.1557  0.8989 -0.3793
11609TIP3    H156318   0.232   5.436   4.678 -0.4253  0.6168 -0.6166
11609TIP3    H256319   0.132   5.352   4.753  0.5026  0.7074  0.7370
11610TIP3   OH256320   5.404   1.895  13.913 -0.2202 -0.1940  0.4328
11610TIP3    H156321   5.464   1.850  13.973  0.2269  0.4876  0.5064
11610TIP3    H256322   5.317   1.871  13.943  0.0033  0.0673  1.3034
11611TIP3   OH256323   3.160   5.358   2.508 -0.3315  0.4910  0.4876
11611TIP3    H156324   3.187   5.267   2.495  0.1039  0.9413 -1.9687
11611TIP3    H256325   3.221   5.392   2.573  1.7263  0.0062 -1.1397
11612TIP3   OH256326   5.854   1.229  15.109 -0.2391 -0.0798 -0.3609
11612TIP3    H156327   5.910   1.209  15.184  0.3588  0.1199 -0.7581
11612TIP3    H256328   5.912   1.270  15.045 -1.1843  1.7951 -0.0639
11613TIP3   OH256329   5.891   4.209   2.929  0.0829 -0.7429 -0.2340
11613TIP3    H156330   5.873   4.242   3.017 -0.5163 -0.6742 -0.3794
11613TIP3    H256331   5.919   4.286   2.879 -0.8763 -0.5381 -0.4554
11614TIP3   OH256332   0.716   0.215   5.965 -0.3129  0.0647 -0.3431
11614TIP3    H156333   0.716   0.268   6.044 -0.7497  0.2004 -0.4371
11614TIP3    H256334   0.809   0.198   5.948 -0.1516  1.1580 -0.5654
11615TIP3   OH256335   6.052   0.306   3.001 -0.0011  0.1031  0.2633
11615TIP3    H156336   5.999   0.287   2.924  0.1947  0.7651 -0.0358
11615TIP3    H256337   5.990   0.301   3.074 -0.0499 -1.2162  0.1500
11616TIP3   OH256338   1.430   6.742  12.578 -0.1335  0.1645  0.1917
11616TIP3    H156339   1.342   6.726  12.614  0.5776  1.6084  2.6981
11616TIP3    H256340   1.416   6.804  12.506 -1.2356 -0.1464  0.1316
11617TIP3   OH256341   5.956   3.174  14.879 -0.4804  0.1269  0.0046
11617TIP3    H156342   5.896   3.176  14.804 -1.9389  0.1400  1.1408
11617TIP3    H256343   6.027   3.116  14.852 -0.8864  0.2786 -1.4496
11618TIP3   OH256344   3.109   4.540   2.616 -0.3713  0.1478 -0.3285
11618TIP3    H156345   3.179   4.476   2.608 -0.9197 -0.3564 -1.1587
11618TIP3    H256346   3.079   4.555   2.526 -1.7622 -0.1326  0.0835
11619TIP3   OH256347   5.216   1.959  16.678 -0.2627 -0.3053 -0.4396
11619TIP3    H156348   5.207   2.052  16.699  0.9272  0.1526 -1.8403
11619TIP3    H256349   5.221   1.915  16.763  1.6173  1.1731  0.2598
11620TIP3   OH256350   6.667   3.056   4.455  0.5092 -0.2186 -0.0733
11620TIP3    H156351   6.587   3.036   4.407  0.4615  2.0324 -0.9579
11620TIP3    H256352   6.715   3.115   4.398  2.8065 -1.4901  0.4639
11621TIP3   OH256353   3.460   1.912  12.037 -0.0669 -0.0039  1.0061
11621TIP3    H156354   3.429   1.991  11.992 -0.1505 -0.4590  0.2608
11621TIP3    H256355   3.550   1.934  12.062 -0.0255  0.2647  0.6380
11622TIP3   OH256356   1.070   4.882   3.480 -0.2021  0.4513  0.1329
11622TIP3    H156357   1.038   4.967   3.511  0.9881  0.2469  2.0318
11622TIP3    H256358   1.142   4.860   3.540  0.6721 -1.0736 -1.4250
11623TIP3   OH256359   2.902   0.312   4.640 -0.1393 -0.0181 -0.3485
11623TIP3    H156360   2.821   0.350   4.673  0.0316  0.8567 -0.9103
11623TIP3    H256361   2.964   0.385   4.640  0.6052 -0.6348 -0.0802
11624TIP3   OH256362   3.684   1.428   4.281 -0.4360 -0.4539 -0.6235
11624TIP3    H156363   3.709   1.514   4.314 -0.3493 -0.3422 -0.9749
11624TIP3    H256364   3.603   1.443   4.232 -0.6487 -0.6446 -0.3375
11625TIP3   OH256365   0.061   2.563  13.575  0.5939  0.2295  0.4351
11625TIP3    H156366   0.016   2.610  13.505 -0.1245 -0.2249  0.5979
11625TIP3    H256367  -0.006   2.511  13.618  1.0792  0.2859  1.2952
11626TIP3   OH256368   2.627   2.016  15.143  0.3975  0.4130 -0.2273
11626TIP3    H156369   2.680   1.943  15.178 -0.4293  1.1429  2.7259
11626TIP3    H256370   2.689   2.070  15.095  1.5031 -0.9648 -0.3878
11627TIP3   OH256371   2.184   2.747   3.543  0.0496 -0.4365  0.6544
11627TIP3    H156372   2.244   2.676   3.566 -0.6275 -1.2446 -0.0119
11627TIP3    H256373   2.234   2.801   3.482  0.7686 -0.0166  1.6120
11628TIP3   OH256374   3.509   4.143  13.849  0.4707 -0.3016 -0.4818
11628TIP3    H156375   3.452   4.221  13.852  1.4130  0.3390  2.5525
11628TIP3    H256376   3.448   4.070  13.839 -0.7912  0.4988  1.1579
11629TIP3   OH256377   0.859   0.107   5.250 -0.2333  0.0595 -0.1586
11629TIP3    H156378   0.865   0.053   5.329 -0.4552  0.3496  0.0554
11629TIP3    H256379   0.775   0.083   5.211  0.2313 -0.6747 -0.7409
11630TIP3   OH256380   3.712   1.208  11.337  0.5539 -0.0668  0.2703
11630TIP3    H156381   3.793   1.212  11.285  0.2630  0.9511 -0.1137
11630TIP3    H256382   3.737   1.245  11.422  0.2968  1.0016 -0.1123
11631TIP3   OH256383   2.527   4.334  13.589  0.7384  0.0987 -0.1118
11631TIP3    H156384   2.517   4.244  13.621 -0.3187 -0.2044 -1.2659
11631TIP3    H256385   2.480   4.335  13.506  1.3122  1.5509 -0.4234
11632TIP3   OH256386   5.980   6.027  11.151  0.5832  0.0785 -0.2892
11632TIP3    H156387   5.887   6.005  11.159  0.0779  2.0486 -0.4195
11632TIP3    H256388   5.997   6.026  11.057  0.3212  1.1084 -0.3566
11633TIP3   OH256389   3.432   0.582   4.540  0.4403 -0.1491  0.2798
11633TIP3    H156390   3.413   0.609   4.630  2.2587 -0.0238  0.6448
11633TIP3    H256391   3.349   0.595   4.494  0.2583  2.5928  1.2612
11634TIP3   OH256392   6.538   3.530   5.692 -0.7509 -0.1936  0.2397
11634TIP3    H156393   6.558   3.624   5.691 -1.5748 -0.0250 -1.0009
11634TIP3    H256394   6.620   3.489   5.719 -0.2718  0.8544  0.4147
11635TIP3   OH256395   0.233   2.023   3.694  0.3933  0.5757 -0.2588
11635TIP3    H156396   0.228   2.008   3.599 -0.2914 -1.8634  0.1128
11635TIP3    H256397   0.292   1.954   3.726 -0.3663  0.5878  1.2291
11636TIP3   OH256398   2.082   3.293   3.633  0.0395  0.6864 -0.0904
11636TIP3    H156399   2.147   3.353   3.595 -0.2110  1.4772  0.7051
11636TIP3    H256400   2.133   3.233   3.686  0.3984 -0.4660 -1.7142
11637TIP3   OH256401   0.576   5.194  13.680 -0.1915  0.6868  0.0299
11637TIP3    H156402   0.631   5.272  13.675  0.2381  0.3503 -0.5370
11637TIP3    H256403   0.535   5.199  13.767 -0.1171  1.5063  0.0223
11638TIP3   OH256404   3.736   5.277   3.291 -0.6319  0.0176 -0.0151
11638TIP3    H156405   3.696   5.190   3.297 -1.3461  0.4175  1.1616
11638TIP3    H256406   3.824   5.260   3.255 -1.3108 -1.0182 -1.2328
11639TIP3   OH256407   0.902   6.498   4.181  0.0687  0.6207 -0.1929
11639TIP3    H156408   0.862   6.575   4.140  0.9384  0.4658 -1.3959
11639TIP3    H256409   0.874   6.425   4.126 -0.3434  0.1396  0.6509
11640TIP3   OH256410   3.018   6.801  12.605 -0.1235 -0.4404  0.2332
11640TIP3    H156411   3.048   6.716  12.573  2.2167  0.8592 -1.2307
11640TIP3    H256412   3.098   6.845  12.635 -1.1671  1.5449  0.1920
11641TIP3   OH256413   2.378   2.663  15.653 -0.5686 -0.2522  1.0086
11641TIP3    H156414   2.321   2.708  15.715 -0.4263 -0.4267  1.2633
11641TIP3    H256415   2.353   2.571  15.659 -1.4785 -0.0957 -0.1626
11642TIP3   OH256416   1.410   4.682  11.966  0.0277 -0.1683 -0.5236
11642TIP3    H156417   1.323   4.680  11.926 -0.2802 -0.8089  0.1698
11642TIP3    H256418   1.414   4.601  12.018 -0.5438  1.8109  2.7372
11643TIP3   OH256419   4.599   1.295   0.743  0.3836 -0.1301 -0.6607
11643TIP3    H156420   4.689   1.265   0.732  0.0958 -0.8531 -1.0784
11643TIP3    H256421   4.564   1.298   0.653 -0.5100 -1.4296 -0.3680
11644TIP3   OH256422   4.981   2.188   5.191 -0.3162 -0.2202 -0.3567
11644TIP3    H156423   5.048   2.196   5.258  0.0037  0.0315 -0.7042
11644TIP3    H256424   4.899   2.207   5.236 -0.0590  0.3867 -0.1335
11645TIP3   OH256425   3.534   5.140   4.615 -0.2340 -0.2923 -0.5529
11645TIP3    H156426   3.608   5.184   4.574  0.4099 -0.2412  0.6562
11645TIP3    H256427   3.499   5.203   4.678 -0.7928 -0.6203 -0.5260
11646TIP3   OH256428   5.351   3.731  14.983  0.6450  0.1625  0.1507
11646TIP3    H156429   5.357   3.662  14.917  0.8647 -0.6674  1.0341
11646TIP3    H256430   5.341   3.684  15.066 -0.1367  1.2049  0.6556
11647TIP3   OH256431   6.042   4.730  11.413 -0.1858 -0.0448  0.3035
11647TIP3    H156432   6.036   4.736  11.318  1.6176  1.2890  0.2570
11647TIP3    H256433   6.125   4.685  11.429  0.0436  0.7008  1.2683
11648TIP3   OH256434   5.593   4.818   2.090  0.4878  0.3730 -0.2505
11648TIP3    H156435   5.687   4.828   2.105  0.7012  0.9871 -1.8320
11648TIP3    H256436   5.584   4.732   2.048  0.3548  0.3162 -0.1024
11649TIP3   OH256437   3.567   2.127  17.239  0.4788 -0.5041 -0.0048
11649TIP3    H156438   3.630   2.141  17.310  1.9070 -0.6528 -1.2281
11649TIP3    H256439   3.563   2.031  17.230  3.0356 -0.4413 -2.4925
11650TIP3   OH256440   1.803   2.128  10.831 -0.4571 -0.0814  0.3962
11650TIP3    H156441   1.810   2.221  10.849  0.5470 -0.3758  1.5926
11650TIP3    H256442   1.876   2.109  10.773 -0.5487 -0.1544  0.3044
11651TIP3   OH256443   6.245   5.913   4.183  0.6490 -0.0034  0.4790
11651TIP3    H156444   6.175   5.925   4.119 -0.7563 -1.7937  1.6654
11651TIP3    H256445   6.319   5.880   4.131  0.5788  1.6427 -0.7257
11652TIP3   OH256446   5.871   3.617  13.165  0.3863 -0.1050  0.1792
11652TIP3    H156447   5.960   3.595  13.138  0.4621  0.3462  0.0594
11652TIP3    H256448   5.815   3.574  13.100  0.3880 -2.9879  1.9911
11653TIP3   OH256449   3.167   6.328  15.874  0.3977 -0.1102  0.0284
11653TIP3    H156450   3.191   6.329  15.966 -0.6345 -0.1401  0.3007
11653TIP3    H256451   3.075   6.354  15.872  0.0080 -1.4798 -0.8683
11654TIP3   OH256452   0.127   0.888   2.856 -0.0243 -0.2860 -0.0803
11654TIP3    H156453   0.218   0.861   2.868 -0.2796 -0.4951  1.5477
11654TIP3    H256454   0.132   0.971   2.808  0.9311 -1.2020 -1.5656
11655TIP3   OH256455   1.108   1.622  13.914  0.5534 -0.5005  0.6673
11655TIP3    H156456   1.133   1.713  13.929  1.1007 -0.5829  0.2867
11655TIP3    H256457   1.074   1.592  13.998  0.9589 -0.1276  0.9679
11656TIP3   OH256458   2.848   5.969   2.785 -0.0344  0.0724 -1.0933
11656TIP3    H156459   2.839   6.005   2.697  0.2531  2.6265 -0.1147
11656TIP3    H256460   2.785   5.897   2.788 -0.4508  0.3221 -3.1879
11657TIP3   OH256461   2.720   3.412   3.345  0.3939 -0.2172 -0.7358
11657TIP3    H156462   2.715   3.398   3.439 -0.7788 -0.0906 -0.7715
11657TIP3    H256463   2.781   3.486   3.335 -0.0894  0.2853 -0.0267
11658TIP3   OH256464   2.486   0.748  11.217 -0.5272 -0.5812 -0.0830
11658TIP3    H156465   2.405   0.699  11.207  0.5069 -2.0111 -1.6024
11658TIP3    H256466   2.539   0.697  11.278 -1.0528  0.7701  1.5662
11659TIP3   OH256467   3.338   3.155  15.999  0.1762 -0.4198 -0.0150
11659TIP3    H156468   3.394   3.201  16.061 -0.2260  0.2763 -0.1613
11659TIP3    H256469   3.395   3.091  15.957  0.9269  0.4643 -0.3493
11660TIP3   OH256470   0.675   6.514  15.461 -0.3170  0.3094  0.4714
11660TIP3    H156471   0.694   6.457  15.386  2.2955  1.4245  0.2237
11660TIP3    H256472   0.616   6.581  15.426  0.6037  0.6201 -0.5169
11661TIP3   OH256473   6.665   0.167  11.640  0.5193  0.2900 -0.1515
11661TIP3    H156474   6.743   0.130  11.600  1.7949  0.4928  2.0661
11661TIP3    H256475   6.672   0.144  11.733 -2.1467  0.1590  0.0526
11662TIP3   OH256476   2.246   1.652   1.907  0.2809  0.0803  0.0179
11662TIP3    H156477   2.174   1.591   1.896 -0.3286  0.4642  1.8166
11662TIP3    H256478   2.208   1.738   1.889  0.7581  0.1085 -0.9155
11663TIP3   OH256479   4.394   4.428  15.174 -0.1302 -0.2715  0.1264
11663TIP3    H156480   4.444   4.365  15.124 -0.7509  0.6861 -1.7399
11663TIP3    H256481   4.458   4.470  15.231  0.7716 -0.6467 -0.6056
11664TIP3   OH256482   0.981   2.646  14.891  0.3937 -0.0864  0.6002
11664TIP3    H156483   0.942   2.576  14.943 -0.2274 -2.7015 -3.1896
11664TIP3    H256484   1.075   2.635  14.902  0.2713  1.8232  4.1394
11665TIP3   OH256485   2.760   5.272  11.421 -0.2047 -0.2560 -0.1384
11665TIP3    H156486   2.797   5.300  11.505 -1.0682 -0.8720  0.4505
11665TIP3    H256487   2.715   5.350  11.388 -0.7575 -0.3092  0.4753
11666TIP3   OH256488   3.819   4.961  16.621  0.0326  0.3319 -0.5551
11666TIP3    H156489   3.868   4.895  16.671 -1.0935 -1.0449 -1.2427
11666TIP3    H256490   3.855   5.045  16.650  0.3328 -0.5089  1.5567
11667TIP3   OH256491   6.322   2.938  16.700  0.1940 -0.9187 -0.2157
11667TIP3    H156492   6.338   2.869  16.764 -1.3220  0.9263  2.2456
11667TIP3    H256493   6.266   3.001  16.746 -1.1414  0.3619 -3.4397
11668TIP3   OH256494   1.106   5.310  12.427  0.3476  0.4657 -0.3866
11668TIP3    H156495   1.121   5.288  12.335 -0.5677 -0.1880 -0.3886
11668TIP3    H256496   1.011   5.316  12.435  0.3495 -0.7938  0.7964
11669TIP3   OH256497   0.121   4.200   0.908 -0.1378  0.1485  0.0026
11669TIP3    H156498   0.102   4.284   0.865 -1.1723 -0.3580 -0.5524
11669TIP3    H256499   0.200   4.168   0.865  0.7266  1.2015  0.7585
11670TIP3   OH256500   3.781   0.329   0.314 -0.8837  0.4347  0.3718
11670TIP3    H156501   3.776   0.383   0.234  1.6268  1.1318  0.6243
11670TIP3    H256502   3.835   0.255   0.288 -1.1355  0.0051  1.0873
11671TIP3   OH256503   4.933   2.398   6.342  0.0613  0.3002 -0.3732
11671TIP3    H156504   4.949   2.305   6.353  1.7038  0.3280 -2.2882
11671TIP3    H256505   4.995   2.440   6.402 -0.9898  0.1707  0.8222
11672TIP3   OH256506   0.700   4.075   5.184  0.4604  0.4138  0.4467
11672TIP3    H156507   0.662   4.162   5.169  0.9897  0.5927  0.1334
11672TIP3    H256508   0.777   4.092   5.239  0.3831  0.1087  0.6499
11673TIP3   OH256509   2.102   3.824   3.007 -0.1732  0.1439 -0.4044
11673TIP3    H156510   2.089   3.855   2.917  2.4415 -1.0896 -1.2698
11673TIP3    H256511   2.033   3.759   3.019 -1.0964  0.9537 -1.2119
11674TIP3   OH256512   4.163   5.752   3.663  0.7264  0.1127  0.1640
11674TIP3    H156513   4.105   5.681   3.636  0.6948  1.4689 -3.7011
11674TIP3    H256514   4.251   5.714   3.659  0.5013 -0.5651  1.2850
11675TIP3   OH256515   1.113   2.509  13.462 -0.5325 -0.2384  0.1871
11675TIP3    H156516   1.100   2.475  13.550  1.5687  2.4621  1.6254
11675TIP3    H256517   1.139   2.601  13.475  3.1108 -0.6669 -3.0428
11676TIP3   OH256518   6.190   2.629  11.835 -0.0869 -1.2294 -0.0475
11676TIP3    H156519   6.232   2.704  11.793 -2.7574 -0.1313 -0.8854
11676TIP3    H256520   6.191   2.650  11.928 -1.6245  0.3283 -0.3530
11677TIP3   OH256521   0.667   6.613   5.211  0.2482 -0.2316 -0.2166
11677TIP3    H156522   0.647   6.704   5.231  0.4432  0.0850 -1.4137
11677TIP3    H256523   0.733   6.588   5.276  0.9605  0.8032 -0.5249
11678TIP3   OH256524   6.261   6.516  11.464  0.1014 -0.2085  0.2785
11678TIP3    H156525   6.257   6.588  11.526 -0.8665  0.9212 -1.0753
11678TIP3    H256526   6.260   6.557  11.378 -1.2604 -1.8432 -0.5287
11679TIP3   OH256527   4.540   1.397  16.042  0.1021  0.7401  0.3301
11679TIP3    H156528   4.567   1.372  16.131 -2.6718  3.1150  1.9254
11679TIP3    H256529   4.495   1.320  16.008  0.5964  0.0386  1.2154
11680TIP3   OH256530   3.100   3.238   4.314  0.0214  0.2658 -0.1219
11680TIP3    H156531   3.149   3.283   4.244 -2.1054  0.6416 -1.4050
11680TIP3    H256532   3.053   3.308   4.359  0.0323 -0.1900  0.6011
11681TIP3   OH256533   4.099   1.450  13.996 -0.5491  0.1128  0.2740
11681TIP3    H156534   4.123   1.495  13.915  0.3904  0.5013  0.7624
11681TIP3    H256535   4.159   1.486  14.062 -2.1679  0.7548  1.4232
11682TIP3   OH256536   4.676   2.119   5.644  0.0506  0.2103  0.6510
11682TIP3    H156537   4.638   2.207   5.637 -1.1277 -0.2310  1.4214
11682TIP3    H256538   4.602   2.060   5.628  0.5051 -0.6588  1.7276
11683TIP3   OH256539   6.591   4.753   2.275  0.3428  0.7819  0.2738
11683TIP3    H156540   6.616   4.823   2.215 -0.1004  0.2650 -0.5226
11683TIP3    H256541   6.615   4.673   2.230 -0.3686  0.3762  0.6064
11684TIP3   OH256542   4.820   0.215  15.318 -0.0085 -0.2308 -0.3037
11684TIP3    H156543   4.859   0.294  15.282  0.4605 -0.3703 -0.1052
11684TIP3    H256544   4.776   0.173  15.244 -0.1297  0.1349 -0.4384
11685TIP3   OH256545   2.279   1.164   4.803 -0.1185  0.2612  0.2796
11685TIP3    H156546   2.368   1.196   4.820 -0.1623  0.8200 -0.5125
11685TIP3    H256547   2.282   1.129   4.714 -0.9884  1.3946 -0.2091
11686TIP3   OH256548   2.750   0.772  16.410  0.2235  0.1851  0.5034
11686TIP3    H156549   2.661   0.807  16.400  0.4232  0.9373  1.3110
11686TIP3    H256550   2.807   0.844  16.382  0.6408  0.5806  2.3428
11687TIP3   OH256551   1.998   0.181  12.983  0.4096 -0.1190 -0.8130
11687TIP3    H156552   1.939   0.161  12.910 -1.1247  2.3928 -0.2974
11687TIP3    H256553   1.941   0.211  13.053  1.9671 -1.4621  1.0923
11688TIP3   OH256554   3.221   4.862  15.146 -0.1380  0.6351 -0.2445
11688TIP3    H156555   3.156   4.792  15.143 -1.0711  1.5333 -1.2340
11688TIP3    H256556   3.295   4.823  15.193  0.2527 -1.7677 -2.7448
11689TIP3   OH256557   5.478   0.550   2.358 -0.6465 -0.3385  0.5298
11689TIP3    H156558   5.548   0.614   2.371 -0.9271 -0.1354  1.0763
11689TIP3    H256559   5.521   0.475   2.316  0.1524 -0.7225  1.9959
11690TIP3   OH256560   0.795   6.294   0.286  0.8806 -0.1109 -0.2347
11690TIP3    H156561   0.746   6.365   0.328 -0.9037 -1.2045 -0.4117
11690TIP3    H256562   0.838   6.249   0.359  0.3979 -0.0460  0.0966
11691TIP3   OH256563   2.332   0.630  11.788  0.4842 -0.3644 -0.2899
11691TIP3    H156564   2.243   0.607  11.760 -0.1597  0.1963  1.2568
11691TIP3    H256565   2.354   0.562  11.852  0.5394  0.4201  0.5271
11692TIP3   OH256566   5.945   3.915   1.221 -0.1114  0.5823 -0.2546
11692TIP3    H156567   5.902   3.853   1.161 -1.2999  0.6272  0.5292
11692TIP3    H256568   5.913   4.001   1.192 -0.1497  0.6549  0.0030
11693TIP3   OH256569   4.834   1.726   0.362 -0.0872  0.4513 -0.2523
11693TIP3    H156570   4.787   1.693   0.438  1.0414  0.5064  0.4732
11693TIP3    H256571   4.839   1.652   0.302 -1.5348  0.5844 -0.5486
11694TIP3   OH256572   3.262   4.335   0.383 -0.3575 -0.5443  0.6223
11694TIP3    H156573   3.298   4.272   0.445 -1.6174 -0.9986  0.9029
11694TIP3    H256574   3.177   4.299   0.358 -1.0440  0.9685  0.6919
11695TIP3   OH256575   5.213   3.665  14.522  0.2527 -0.6116 -0.2403
11695TIP3    H156576   5.230   3.720  14.445 -0.7877 -0.4319 -0.3490
11695TIP3    H256577   5.241   3.720  14.596 -1.1818  0.2597 -0.3195
11696TIP3   OH256578   5.907   3.309   5.002 -0.6534  0.6204  0.1440
11696TIP3    H156579   5.958   3.267   5.071 -2.0212 -1.1733  0.0912
11696TIP3    H256580   5.883   3.237   4.943 -2.2016  1.6198 -0.4703
11697TIP3   OH256581   6.027   6.229  14.792  0.1559 -1.0261 -0.1681
11697TIP3    H156582   5.985   6.180  14.862 -0.7924 -0.0138 -0.0162
11697TIP3    H256583   6.051   6.313  14.832 -3.9203  1.1537 -1.9960
11698TIP3   OH256584   4.256   5.129  13.370 -0.2072  0.1599  0.3060
11698TIP3    H156585   4.247   5.214  13.413 -0.4367 -1.1873  3.0322
11698TIP3    H256586   4.172   5.114  13.328  0.5888  2.2743 -2.1745
11699TIP3   OH256587   5.698   0.051  12.719 -0.4381  0.0001  0.4008
11699TIP3    H156588   5.603   0.057  12.714 -0.3650  1.7153  0.6789
11699TIP3    H256589   5.725   0.014  12.635 -1.2705  0.6119 -0.1358
11700TIP3   OH256590   0.128   6.088  14.985 -0.8376 -0.1561 -0.2121
11700TIP3    H156591   0.194   6.131  14.930  1.1524 -2.0785  0.6078
11700TIP3    H256592   0.108   6.152  15.053 -0.2293  0.6585 -0.7923
11701TIP3   OH256593   3.613   1.652   5.047 -0.1778 -0.0385 -0.7032
11701TIP3    H156594   3.600   1.733   4.999 -1.7247 -1.0223 -2.0153
11701TIP3    H256595   3.630   1.586   4.979  0.4041 -0.9312  0.2858
11702TIP3   OH256596   5.189   5.904   0.527 -0.0847  0.2721 -0.4687
11702TIP3    H156597   5.268   5.851   0.529 -0.2168  0.0632 -0.8030
11702TIP3    H256598   5.154   5.898   0.616  0.2616  0.3422 -0.3301
11703TIP3   OH256599   0.080   6.786   3.480 -0.1711 -0.3420  0.1361
11703TIP3    H156600   0.020   6.726   3.524  0.0608 -0.6334  0.0587
11703TIP3    H256601   0.076   6.761   3.388 -1.0714  0.6213 -0.0987
11704TIP3   OH256602   5.773   3.016   0.071  0.5983 -0.4871  0.4565
11704TIP3    H156603   5.816   2.944   0.027 -0.1022 -0.8776  0.4016
11704TIP3    H256604   5.714   2.974   0.134 -0.8265 -0.0082 -0.5159
11705TIP3   OH256605   6.109   1.958  14.483 -0.2549  0.3886  0.5969
11705TIP3    H156606   6.181   1.896  14.476 -0.2544  0.2792  1.5416
11705TIP3    H256607   6.034   1.911  14.445  0.0860  0.3826 -0.0806
11706TIP3   OH256608   3.287   4.810   0.270 -0.1325  0.4012 -0.7479
11706TIP3    H156609   3.196   4.820   0.242 -0.9912 -1.8679  0.9848
11706TIP3    H256610   3.302   4.881   0.332 -1.0945  0.1401 -0.2120
11707TIP3   OH256611   0.632   3.324   5.839 -0.8915 -0.6852  0.0723
11707TIP3    H156612   0.624   3.328   5.934  2.1031 -1.5408  0.4184
11707TIP3    H256613   0.640   3.415   5.811  1.9378 -0.5931  1.0580
11708TIP3   OH256614   4.222   1.306   5.892 -0.3330 -0.0485 -0.6684
11708TIP3    H156615   4.314   1.296   5.915 -0.4847  0.2929  0.1144
11708TIP3    H256616   4.217   1.283   5.800  0.7561  1.1421 -1.0338
11709TIP3   OH256617   1.849   4.910   2.570 -0.6445  0.0994 -0.2792
11709TIP3    H156618   1.878   4.827   2.609  0.0510  1.0204  1.1968
11709TIP3    H256619   1.930   4.952   2.542 -1.0680 -0.1063 -1.8663
11710TIP3   OH256620   0.788   4.310   0.483  0.2436 -0.0675  0.5291
11710TIP3    H156621   0.793   4.339   0.392  0.3859  0.9988  0.8764
11710TIP3    H256622   0.774   4.390   0.534 -3.0937 -0.9618  1.1813
11711TIP3   OH256623   1.428   6.466   4.820  0.5887  0.0771 -0.0634
11711TIP3    H156624   1.455   6.413   4.895  1.8639  1.1409  0.2556
11711TIP3    H256625   1.334   6.479   4.831  0.7409  0.1116  1.2834
11712TIP3   OH256626   5.037   3.781  12.638  0.2610  0.2506 -0.2848
11712TIP3    H156627   5.094   3.750  12.708  0.3228  0.1457 -0.3810
11712TIP3    H256628   5.067   3.870  12.621  1.1677 -0.2056 -1.1421
11713TIP3   OH256629   5.702   2.580  13.618 -0.2744  0.1903 -0.3466
11713TIP3    H156630   5.773   2.519  13.638 -0.3589  0.0418 -0.5028
11713TIP3    H256631   5.682   2.565  13.526 -0.7717 -0.0414 -0.1981
11714TIP3   OH256632   0.213   2.869   3.738 -0.9560 -0.0210  0.2991
11714TIP3    H156633   0.160   2.948   3.724 -1.4123 -0.0828  1.6636
11714TIP3    H256634   0.203   2.849   3.831  0.2855 -0.8887  0.2569
11715TIP3   OH256635   6.615   6.647   0.435  0.0467  0.7102  0.3041
11715TIP3    H156636   6.530   6.604   0.443 -0.1607  1.3667  1.7983
11715TIP3    H256637   6.596   6.740   0.445  0.6208  1.0878 -1.8677
11716TIP3   OH256638   2.190   3.204  17.281 -0.1346 -0.9296 -0.4374
11716TIP3    H156639   2.148   3.290  17.270  0.3001 -0.7821 -0.9795
11716TIP3    H256640   2.265   3.222  17.337  1.4280 -0.4727 -2.6050
11717TIP3   OH256641   5.213   0.790  10.957  0.2133 -0.4975  0.0528
11717TIP3    H156642   5.132   0.838  10.940  0.8726  0.0802 -1.4990
11717TIP3    H256643   5.265   0.849  11.011 -0.4302 -0.9102  1.1408
11718TIP3   OH256644   6.377   5.176  12.888 -0.1559  0.3765  0.4362
11718TIP3    H156645   6.437   5.107  12.860  0.4729  0.3260  1.9105
11718TIP3    H256646   6.323   5.193  12.810  1.8031  0.4785 -0.9258
11719TIP3   OH256647   5.326   2.984   3.434 -0.3565 -0.3559 -0.5443
11719TIP3    H156648   5.334   2.928   3.357 -0.8791  0.8738 -1.5033
11719TIP3    H256649   5.303   3.070   3.399  0.1539  0.3958  0.9295
11720TIP3   OH256650   2.118   6.611  12.646  0.4862  0.1719  0.0236
11720TIP3    H156651   2.190   6.659  12.604  0.6557 -0.6743 -0.6731
11720TIP3    H256652   2.162   6.555  12.711  0.3731  0.3618  0.2589
11721TIP3   OH256653   4.219   5.347   2.880 -0.1854 -0.6140  0.2731
11721TIP3    H156654   4.220   5.437   2.848 -3.9757 -0.2370  0.9476
11721TIP3    H256655   4.214   5.355   2.975  4.3509 -1.6825  0.7329
11722TIP3   OH256656   2.241   4.648  14.401 -0.1097  0.4907  0.2622
11722TIP3    H156657   2.253   4.734  14.360 -2.1009  0.2580 -0.8878
11722TIP3    H256658   2.233   4.588  14.327 -0.1520 -0.4640  1.0457
11723TIP3   OH256659   3.597   0.525  15.665  0.3059  1.5569  0.1179
11723TIP3    H156660   3.596   0.600  15.607  1.2922  0.5834 -1.1978
11723TIP3    H256661   3.688   0.493  15.662 -0.3059 -0.2425 -0.0884
11724TIP3   OH256662   3.372   6.502   4.345  0.0094  0.1771 -0.2468
11724TIP3    H156663   3.279   6.486   4.334 -0.5415  0.4060  3.3839
11724TIP3    H256664   3.377   6.574   4.407  2.6055  0.0423 -0.2379
11725TIP3   OH256665   0.189   0.876   4.927 -0.2730 -0.1151  0.5540
11725TIP3    H156666   0.237   0.824   4.990 -0.7165 -0.1387  0.8764
11725TIP3    H256667   0.115   0.912   4.976  0.2222  1.1151  0.4240
11726TIP3   OH256668   0.979   2.209   2.291  0.1533  0.0175  0.6087
11726TIP3    H156669   1.018   2.271   2.229  0.6385  0.9343  1.8031
11726TIP3    H256670   0.977   2.126   2.244  2.3652  0.2413  0.0613
11727TIP3   OH256671   4.382   3.326  11.430 -0.2633  0.1696  0.0565
11727TIP3    H156672   4.390   3.257  11.495 -2.5153  0.1943  0.4183
11727TIP3    H256673   4.377   3.279  11.346 -0.0939 -0.0228  0.1549
11728TIP3   OH256674   4.484   6.087   0.443 -0.2164 -0.4214 -0.1387
11728TIP3    H156675   4.527   6.056   0.364 -1.4431 -0.9424 -0.6168
11728TIP3    H256676   4.426   6.157   0.413 -0.4643 -0.4208  0.3320
11729TIP3   OH256677   0.904   5.487  11.255 -0.4173  0.6154  0.3054
11729TIP3    H156678   0.816   5.460  11.281  0.5305  0.1104  3.1996
11729TIP3    H256679   0.955   5.482  11.336  2.7973 -1.1833 -1.7576
11730TIP3   OH256680   0.777   4.494   3.686 -0.2050  0.3766 -0.5824
11730TIP3    H156681   0.802   4.577   3.645  0.7203  0.5634  0.3043
11730TIP3    H256682   0.791   4.428   3.618  2.6893  0.5001 -0.1723
11731TIP3   OH256683   3.059   3.881   3.386  0.0471 -0.0586  0.1871
11731TIP3    H156684   3.082   3.907   3.475 -1.4410 -0.3508  0.6681
11731TIP3    H256685   3.046   3.964   3.340 -1.8151  0.0990  0.9541
11732TIP3   OH256686   2.946   0.523   3.647 -0.5107  0.0225 -0.0802
11732TIP3    H156687   2.877   0.469   3.684 -1.0756 -0.7758 -2.2414
11732TIP3    H256688   2.924   0.612   3.675  0.0217 -0.7418  2.8626
11733TIP3   OH256689   2.026   4.523   2.014  0.1498  0.3541  0.5961
11733TIP3    H156690   1.981   4.595   2.059 -0.7297 -1.0768  2.0828
11733TIP3    H256691   2.039   4.555   1.925 -0.8087  2.1022  1.0467
11734TIP3   OH256692   1.082   1.214   3.995  0.2379  0.0235  0.1297
11734TIP3    H156693   1.004   1.215   3.940 -0.1029  0.2911  0.6171
11734TIP3    H256694   1.113   1.124   3.990 -1.3255 -0.6398  1.6310
11735TIP3   OH256695   1.520   0.075  13.714  0.5701  0.1177 -0.5600
11735TIP3    H156696   1.434   0.080  13.757  1.4949 -2.0533  1.6486
11735TIP3    H256697   1.516  -0.005  13.662  1.6599 -0.6571  0.5222
11736TIP3   OH256698   6.719   0.059  13.965 -0.3201 -0.2035 -0.1169
11736TIP3    H156699   6.793   0.021  13.919 -0.2804 -0.9443  0.5608
11736TIP3    H256700   6.756   0.133  14.014 -0.1612 -0.1374 -0.3355
11737TIP3   OH256701   1.025   3.416   0.583 -0.2105  0.6244  0.4276
11737TIP3    H156702   0.956   3.476   0.556  1.5811  2.3916 -0.3545
11737TIP3    H256703   1.098   3.434   0.524  1.3227 -0.3807  1.9484
11738TIP3   OH256704   6.660   1.117  15.298  0.4488  0.3027 -0.1471
11738TIP3    H156705   6.600   1.044  15.282 -0.7061  1.0656  0.6435
11738TIP3    H256706   6.605   1.195  15.293  1.3372  1.0037  0.7523
11739TIP3   OH256707   3.060   4.886  14.133 -0.2229 -0.1682 -0.6054
11739TIP3    H156708   3.021   4.802  14.110 -0.8011 -0.5674  1.7094
11739TIP3    H256709   3.148   4.883  14.093  0.1238 -2.2628  0.2320
11740TIP3   OH256710   1.115   5.988   1.867  0.2702 -0.2154 -0.4496
11740TIP3    H156711   1.155   5.901   1.869  0.0639 -0.3664 -1.7588
11740TIP3    H256712   1.175   6.040   1.813 -0.0960  0.1853 -0.4678
11741TIP3   OH256713   3.983   5.995   4.033  0.6862  0.4211  0.1834
11741TIP3    H156714   4.074   5.964   4.039  0.6435  0.3215  0.3021
11741TIP3    H256715   3.934   5.920   4.000  0.8503  0.8381 -1.0331
11742TIP3   OH256716   6.410   5.388   4.704 -0.4942 -0.4117  0.4261
11742TIP3    H156717   6.423   5.385   4.609 -0.8322  0.6516  0.3480
11742TIP3    H256718   6.495   5.413   4.740 -0.5715 -0.0556  0.3576
11743TIP3   OH256719   3.048   2.645   4.002 -0.1495  0.2706  0.1428
11743TIP3    H156720   3.127   2.649   3.948  0.5967 -1.2936  1.0968
11743TIP3    H256721   2.978   2.626   3.940  0.5841 -0.7369 -0.3835
11744TIP3   OH256722   5.185   3.879  10.619 -0.5952 -0.1290 -0.9838
11744TIP3    H156723   5.123   3.913  10.683 -1.7518 -1.7288 -1.2239
11744TIP3    H256724   5.252   3.835  10.671  0.1347  1.2372 -0.7450
11745TIP3   OH256725   5.249   1.585  11.581  0.2342  0.6873  0.8799
11745TIP3    H156726   5.207   1.500  11.566  0.2018  0.9912 -0.9577
11745TIP3    H256727   5.183   1.637  11.626 -0.3428  0.2590  0.5466
11746TIP3   OH256728   5.963   4.058   5.065 -0.0471 -0.3293  0.0904
11746TIP3    H156729   5.910   4.003   5.123 -1.4248 -0.0967 -0.9548
11746TIP3    H256730   5.901   4.098   5.005  1.2548  0.2983 -0.8640
11747TIP3   OH256731   0.925   4.606  11.685  0.5075 -0.4085 -0.3228
11747TIP3    H156732   0.854   4.661  11.719  0.1858 -0.2972 -1.1389
11747TIP3    H256733   0.980   4.666  11.635 -1.0162 -1.1446 -3.0180
11748TIP3   OH256734   3.169   4.066  15.508 -0.0044 -0.2110 -0.4389
11748TIP3    H156735   3.137   3.983  15.543 -1.0626  0.6341  0.6495
11748TIP3    H256736   3.206   4.044  15.422 -0.5488 -1.7442 -0.2860
11749TIP3   OH256737   5.937   6.544   2.743 -0.2069  0.2671  0.3453
11749TIP3    H156738   5.998   6.500   2.684 -1.6174  0.6711 -1.4534
11749TIP3    H256739   5.880   6.474   2.775  1.0658 -0.0870  1.9159
11750TIP3   OH256740   5.429   3.842   4.348 -0.8333 -0.0636  0.3992
11750TIP3    H156741   5.433   3.836   4.253  0.6772 -0.0095  0.4526
11750TIP3    H256742   5.337   3.824   4.369 -0.8805 -1.6074 -0.9682
11751TIP3   OH256743   2.248   1.742  13.761  0.4681 -0.0539  0.1605
11751TIP3    H156744   2.311   1.703  13.700  0.4291 -2.1700  1.4136
11751TIP3    H256745   2.282   1.830  13.778  0.8983  0.2742 -2.2602
11752TIP3   OH256746   6.094   2.137  14.692 -0.0440 -0.3707 -0.8162
11752TIP3    H156747   6.080   2.066  14.629 -1.0164  1.3744 -2.6042
11752TIP3    H256748   6.171   2.183  14.660  0.5317 -0.5259  0.2943
11753TIP3   OH256749   4.132   5.875  10.279  0.8053  0.6555 -0.5495
11753TIP3    H156750   4.169   5.949  10.326 -0.0461  1.2182 -0.7417
11753TIP3    H256751   4.058   5.913  10.230  1.6755  0.0991 -2.3267
11754TIP3   OH256752   5.582   6.477   5.629 -0.0295 -0.5355 -0.5913
11754TIP3    H156753   5.569   6.400   5.685 -0.4552 -0.4833 -0.6157
11754TIP3    H256754   5.628   6.540   5.685 -0.4511 -0.4824 -0.2977
11755TIP3   OH256755   4.207   1.107   0.511 -0.1366 -0.6073  0.1919
11755TIP3    H156756   4.216   1.154   0.594  1.1558  0.6675 -0.6502
11755TIP3    H256757   4.124   1.060   0.519 -0.7434  0.6784  1.6154
11756TIP3   OH256758   1.033   2.855  15.601 -0.9201 -0.1553 -0.4323
11756TIP3    H156759   1.027   2.776  15.548  0.9042 -0.0278 -0.8699
11756TIP3    H256760   1.058   2.923  15.539  1.4938 -0.0566  0.6216
11757TIP3   OH256761   2.141   0.958   0.447 -0.1098 -0.0737 -0.4869
11757TIP3    H156762   2.098   0.902   0.511 -0.7810 -0.4927 -1.3003
11757TIP3    H256763   2.218   0.909   0.418 -0.7251 -0.5982 -1.2359
11758TIP3   OH256764   3.352   6.490   4.999  0.3191 -0.1692  0.5410
11758TIP3    H156765   3.392   6.464   5.082  0.1414 -1.7035  0.1770
11758TIP3    H256766   3.419   6.471   4.934  0.3733  0.8187  0.2999
11759TIP3   OH256767   0.613   0.456   2.034 -0.3568 -0.0956  0.1060
11759TIP3    H156768   0.583   0.522   2.097 -0.2540 -0.9510  1.0730
11759TIP3    H256769   0.577   0.374   2.067 -0.5957 -0.5071 -1.1656
11760TIP3   OH256770   2.844   6.227   3.049 -0.2438 -0.3853 -0.7089
11760TIP3    H156771   2.895   6.148   3.029  1.2394  0.3255  0.1658
11760TIP3    H256772   2.863   6.286   2.977  0.6925  0.1168 -0.0585
11761TIP3   OH256773   0.637   1.024  12.102 -0.0708 -0.5255  0.1866
11761TIP3    H156774   0.716   1.078  12.101 -1.1512  1.0812 -0.6109
11761TIP3    H256775   0.653   0.957  12.035  0.3279  0.2307 -0.4926
11762TIP3   OH256776   2.875   0.564  16.543  1.2349 -0.1008 -0.1914
11762TIP3    H156777   2.855   0.639  16.487  2.1051 -0.1491 -0.5691
11762TIP3    H256778   2.888   0.491  16.483  0.0143 -0.6440  0.2019
11763TIP3   OH256779   5.610   5.580   1.359  0.2043  0.0450  0.1617
11763TIP3    H156780   5.670   5.655   1.356  0.9140 -0.4749  1.0968
11763TIP3    H256781   5.609   5.546   1.270 -1.0104  1.8564 -0.5452
11764TIP3   OH256782   5.607   1.355   5.247 -0.0801  0.4293  0.1637
11764TIP3    H156783   5.544   1.349   5.318  1.0662 -1.0906  1.0805
11764TIP3    H256784   5.626   1.449   5.240 -0.2489  0.6014  1.8328
11765TIP3   OH256785   1.803   4.178  15.147  0.0273  0.1510  0.4721
11765TIP3    H156786   1.715   4.210  15.126  0.0794 -1.3056 -2.2005
11765TIP3    H256787   1.794   4.136  15.232 -1.6528  0.8016  0.6377
11766TIP3   OH256788   2.081   6.205   3.682  0.0264 -0.5677  0.2543
11766TIP3    H156789   2.011   6.245   3.734 -0.9714 -0.9338 -0.7667
11766TIP3    H256790   2.063   6.233   3.592 -0.2284 -2.6224 -0.3699
11767TIP3   OH256791   0.920   3.234   3.020  0.4661  0.4556  0.3012
11767TIP3    H156792   0.985   3.221   3.088  0.4657  1.1108  0.4303
11767TIP3    H256793   0.842   3.190   3.052  1.1408 -1.2243 -0.3136
11768TIP3   OH256794   6.238   0.404  16.274 -0.3742 -0.0861 -0.3823
11768TIP3    H156795   6.159   0.405  16.220  1.0948 -0.5182 -2.6107
11768TIP3    H256796   6.310   0.399  16.211  1.3398 -2.1457  1.6462
11769TIP3   OH256797   1.902   1.665  12.354  0.3980 -0.1173 -0.3618
11769TIP3    H156798   1.911   1.752  12.314 -0.9184  0.2983  0.2063
11769TIP3    H256799   1.973   1.660  12.417  1.1557  0.1042 -1.1886
11770TIP3   OH256800   5.964   5.265  13.828  0.4052  0.6812  0.1158
11770TIP3    H156801   5.918   5.208  13.890  0.0556  0.7825 -0.0448
11770TIP3    H256802   5.996   5.337  13.881  1.2236  0.1169  0.3893
11771TIP3   OH256803   1.985   1.526  15.413 -0.3444  0.0128 -0.4370
11771TIP3    H156804   1.978   1.621  15.425 -0.9272 -0.2286  1.1968
11771TIP3    H256805   2.074   1.513  15.378  0.0929  1.0701  0.2600
11772TIP3   OH256806   0.860   6.421   0.609 -0.4672  0.3500 -0.3343
11772TIP3    H156807   0.833   6.330   0.612 -1.4499  0.6403 -0.3964
11772TIP3    H256808   0.820   6.461   0.687  1.1189  0.4113  0.4805
11773TIP3   OH256809   6.274   6.431   4.269 -0.1806 -0.5469 -0.1831
11773TIP3    H156810   6.230   6.482   4.201  0.4777 -0.6440 -0.6882
11773TIP3    H256811   6.354   6.480   4.288  0.5946 -1.5438 -0.8794
11774TIP3   OH256812   0.359   4.247  15.927  0.2393 -0.0357 -0.2320
11774TIP3    H156813   0.422   4.254  15.999 -0.4208 -1.9956  0.5642
11774TIP3    H256814   0.317   4.333  15.924  1.9508  0.8359  0.1602
11775TIP3   OH256815   0.194   0.242   6.030 -0.7350 -0.3448 -0.4798
11775TIP3    H156816   0.272   0.275   5.985 -0.9350 -0.1286 -0.6630
11775TIP3    H256817   0.223   0.159   6.069 -0.7241 -0.8322 -1.5034
11776TIP3   OH256818   6.679   2.241  13.018  0.5219  0.5110  0.7767
11776TIP3    H156819   6.614   2.309  13.033  0.4151  0.8379 -1.0836
11776TIP3    H256820   6.650   2.196  12.938  1.3934 -0.7459  1.1475
11777TIP3   OH256821   1.221   0.767   0.319  0.6425  0.3759  0.4766
11777TIP3    H156822   1.298   0.763   0.262  0.5008  1.7269  0.1654
11777TIP3    H256823   1.257   0.762   0.408  0.7927 -2.6427  0.2740
11778TIP3   OH256824   1.705   3.915   2.737  0.1014 -0.5093 -0.2202
11778TIP3    H156825   1.627   3.864   2.717 -0.6297  1.3966 -2.4245
11778TIP3    H256826   1.777   3.866   2.697 -0.4993 -0.2371 -1.6651
11779TIP3   OH256827   2.376   4.933  16.349  0.5146  0.8640  0.3096
11779TIP3    H156828   2.287   4.900  16.346  0.7972  0.0920  0.2394
11779TIP3    H256829   2.367   5.027  16.363 -0.3483  1.0152 -1.1260
11780TIP3   OH256830   1.323   2.319   3.302  0.3929 -0.1841  0.4300
11780TIP3    H156831   1.397   2.259   3.292  1.5026  1.4894 -1.8336
11780TIP3    H256832   1.246   2.267   3.280  1.2368 -1.0874 -0.4117
11781TIP3   OH256833   5.638   3.005  11.863 -0.2686 -0.2069 -0.2452
11781TIP3    H156834   5.596   3.034  11.943  1.0832  0.8486  0.1156
11781TIP3    H256835   5.726   2.979  11.890  0.8421  1.9307 -1.6205
11782TIP3   OH256836   2.320   3.112  14.571 -0.0523  0.3821  0.5906
11782TIP3    H156837   2.368   3.054  14.630 -0.6834 -1.1572 -0.3511
11782TIP3    H256838   2.309   3.060  14.491  0.1131  2.1308 -0.6045
11783TIP3   OH256839   1.431   4.642   4.577  0.6668 -0.6184  0.4437
11783TIP3    H156840   1.387   4.583   4.516 -0.5303  1.1496 -0.4366
11783TIP3    H256841   1.512   4.667   4.531 -0.3173  0.8528 -0.5460
11784TIP3   OH256842   1.757   1.666  14.865 -0.6427  0.0376  0.4825
11784TIP3    H156843   1.812   1.741  14.885  0.3615 -0.9432  1.5008
11784TIP3    H256844   1.805   1.617  14.799 -2.1084  1.1852 -1.4630
11785TIP3   OH256845   0.269   6.597   1.940 -0.5237  0.3917  0.6338
11785TIP3    H156846   0.335   6.566   1.878 -0.0466  0.3057  1.1795
11785TIP3    H256847   0.203   6.641   1.885  0.2153  0.8869  0.1293
11786TIP3   OH256848   4.292   0.442   2.808 -0.4125  0.2429 -0.2498
11786TIP3    H156849   4.303   0.530   2.773 -0.4971  0.1341 -0.5510
11786TIP3    H256850   4.374   0.425   2.856  0.0443  0.0789 -1.0786
11787TIP3   OH256851   5.916   5.213   3.981 -0.4720 -0.2103  0.2796
11787TIP3    H156852   5.844   5.253   3.932  1.1012  0.8812 -1.1853
11787TIP3    H256853   5.950   5.284   4.036  1.2615  0.0496 -1.0926
11788TIP3   OH256854   1.406   4.828   0.250 -0.9440  0.0377 -0.0066
11788TIP3    H156855   1.470   4.786   0.194 -0.4222  1.7614 -0.7559
11788TIP3    H256856   1.321   4.799   0.217 -0.5789 -1.0238 -0.0048
11789TIP3   OH256857   3.039   4.602   3.913  0.5563 -0.5574  0.1717
11789TIP3    H156858   2.962   4.597   3.969 -2.3723  3.2450 -3.2206
11789TIP3    H256859   3.091   4.674   3.950  0.5207 -0.5337  0.1740
11790TIP3   OH256860   1.421   2.374  12.200 -0.1098 -0.0270  0.0372
11790TIP3    H156861   1.404   2.468  12.203  1.3188  0.2595 -0.3672
11790TIP3    H256862   1.377   2.339  12.277 -0.3876  1.0224  0.3669
11791TIP3   OH256863   6.023   4.216   3.884  0.6911  0.1933 -0.4700
11791TIP3    H156864   6.051   4.307   3.885 -1.7096  0.9560 -0.4254
11791TIP3    H256865   6.007   4.196   3.792 -0.6704  0.4313 -0.2960
11792TIP3   OH256866   5.959   1.567   1.255  0.0828 -0.3790  0.0755
11792TIP3    H156867   6.017   1.514   1.310  0.0215 -1.5810 -1.0147
11792TIP3    H256868   5.911   1.622   1.318  0.2126 -1.5311  1.2107
11793TIP3   OH256869   3.983   2.050   1.278 -0.0199 -0.3561 -0.0852
11793TIP3    H156870   4.012   1.962   1.304  0.6629  0.3466  1.5635
11793TIP3    H256871   4.063   2.102   1.277 -0.5699  0.4938 -0.0941
11794TIP3   OH256872   0.409   3.319   3.440 -0.2716  0.3837  0.2804
11794TIP3    H156873   0.379   3.253   3.378  1.8563 -0.1790 -0.1990
11794TIP3    H256874   0.390   3.282   3.526 -1.8343  0.4986  0.0074
11795TIP3   OH256875   2.786   6.218   3.946 -0.0928 -0.5232  0.1369
11795TIP3    H156876   2.699   6.181   3.963 -0.3374 -0.2867 -0.5733
11795TIP3    H256877   2.768   6.308   3.918  0.4234 -0.2583  0.6583
11796TIP3   OH256878   2.662   3.671   4.561 -0.2205 -0.7093 -0.4792
11796TIP3    H156879   2.705   3.642   4.480  2.0094  0.2869  0.3183
11796TIP3    H256880   2.671   3.596   4.620  1.9071  0.0785  0.2256
11797TIP3   OH256881   6.117   3.456  14.283  0.3294 -0.5575  1.1582
11797TIP3    H156882   6.122   3.408  14.366  2.0319 -1.3443  0.6192
11797TIP3    H256883   6.044   3.414  14.236  1.6679 -2.5409  0.7754
11798TIP3   OH256884   4.475   1.113  14.982  0.4909 -0.5156  0.5557
11798TIP3    H156885   4.529   1.074  15.051  0.2960 -1.7307  0.0266
11798TIP3    H256886   4.531   1.114  14.905  0.2586 -0.3908  0.3882
11799TIP3   OH256887   5.432   2.766   0.963 -0.1654  0.2128  0.4904
11799TIP3    H156888   5.349   2.777   1.009 -0.4583  3.6178 -0.6804
11799TIP3    H256889   5.411   2.713   0.887 -0.6440 -1.4281  1.7458
11800TIP3   OH256890   1.852   2.957   1.280  1.0254  0.4707  0.1019
11800TIP3    H156891   1.801   2.974   1.359 -0.5595  0.5951 -0.9343
11800TIP3    H256892   1.930   2.912   1.312 -0.3233 -0.8984  1.5798
11801TIP3   OH256893   2.271   3.211   4.481  1.3085 -0.0163 -0.2718
11801TIP3    H156894   2.185   3.169   4.489  1.4153  0.1258  1.9778
11801TIP3    H256895   2.277   3.236   4.388 -1.6149  1.1170 -0.2167
11802TIP3   OH256896   0.136   6.018  10.976 -0.6389  0.1199  0.0785
11802TIP3    H156897   0.139   5.943  10.917 -0.7055 -0.6392  1.0399
11802TIP3    H256898   0.223   6.058  10.968 -0.3596 -0.4811  0.1230
11803TIP3   OH256899   6.005   2.681  13.463  0.2437 -0.3142  0.7502
11803TIP3    H156900   6.099   2.673  13.448  0.0595 -0.0167 -0.6126
11803TIP3    H256901   5.968   2.601  13.426 -0.2780  0.7237 -1.0454
11804TIP3   OH256902   3.709   0.925  11.670 -0.0779  0.3784  0.1033
11804TIP3    H156903   3.683   0.972  11.750 -2.6696 -0.5158 -0.1476
11804TIP3    H256904   3.741   0.994  11.611  1.1525  1.1392  1.6132
11805TIP3   OH256905   0.606   2.630  13.448 -0.3191  0.7223 -0.2234
11805TIP3    H156906   0.575   2.720  13.460 -0.3689  0.2981  3.3256
11805TIP3    H256907   0.532   2.576  13.474  0.0740 -0.3602 -1.3149
11806TIP3   OH256908   1.995   2.015   2.940  0.6526 -0.2700  0.3905
11806TIP3    H156909   1.939   2.086   2.972  1.5914  0.5339  0.2985
11806TIP3    H256910   2.073   2.018   2.996  1.3016 -0.3312 -0.4892
11807TIP3   OH256911   3.617   3.486  15.939  0.0184  0.1200 -0.1044
11807TIP3    H156912   3.683   3.428  15.978 -0.3079 -0.2385 -0.0770
11807TIP3    H256913   3.664   3.530  15.868  0.1866 -0.4241 -0.3385
11808TIP3   OH256914   1.295   3.814  16.841  0.2921 -0.2820 -0.1132
11808TIP3    H156915   1.255   3.859  16.916  0.1922 -0.0187 -0.3219
11808TIP3    H256916   1.388   3.830  16.851  0.2818 -0.2805 -0.0191
11809TIP3   OH256917   4.288   4.764  12.993  0.7861 -0.4681 -0.1429
11809TIP3    H156918   4.371   4.717  13.003 -0.1330 -2.0854  0.1014
11809TIP3    H256919   4.284   4.822  13.069  2.6092  1.0983 -1.2004
11810TIP3   OH256920   5.663   2.468  13.332  0.1971 -0.0381  0.1561
11810TIP3    H156921   5.662   2.562  13.311  2.0115 -0.0034  0.2106
11810TIP3    H256922   5.591   2.432  13.280 -1.9245  1.7224  1.7792
11811TIP3   OH256923   3.167   5.139   0.730  0.1847  0.2086  0.2293
11811TIP3    H156924   3.114   5.212   0.760 -0.1935  0.7484 -1.6700
11811TIP3    H256925   3.169   5.079   0.804 -0.6973  1.4896  1.3155
11812TIP3   OH256926   3.863   2.343  12.017 -0.4088  0.2127  0.5045
11812TIP3    H156927   3.835   2.256  11.987 -0.3196  0.1243  0.6737
11812TIP3    H256928   3.932   2.324  12.081  0.0847  0.4341  0.0322
11813TIP3   OH256929   3.052   3.704  15.065 -0.3579  0.3751 -0.2490
11813TIP3    H156930   3.023   3.614  15.077  1.5881 -0.6112 -2.6715
11813TIP3    H256931   3.146   3.701  15.085 -0.4926  2.1251  0.7617
11814TIP3   OH256932   4.700   0.655   4.540 -0.0661 -0.3004  0.4765
11814TIP3    H156933   4.735   0.585   4.595  0.8820 -0.1479  0.0770
11814TIP3    H256934   4.613   0.624   4.514 -0.7517 -0.1512  2.4730
11815TIP3   OH256935   2.530   1.707  13.035  0.4118  0.1934 -0.1284
11815TIP3    H156936   2.443   1.739  13.061  0.0747 -0.2716 -0.6707
11815TIP3    H256937   2.591   1.768  13.077 -0.1788  0.6356  0.1058
11816TIP3   OH256938   1.071   3.690   2.337 -0.5172  0.2470  0.2184
11816TIP3    H156939   1.113   3.610   2.367 -0.1720  0.0128 -0.8463
11816TIP3    H256940   0.983   3.664   2.312  0.2807 -0.2918 -2.2397
11817TIP3   OH256941   1.763   1.291   2.266  0.0509 -0.2772 -0.0286
11817TIP3    H156942   1.669   1.282   2.250 -0.2884  1.3515  0.8783
11817TIP3    H256943   1.802   1.297   2.179 -0.7049 -0.7829 -0.4051
11818TIP3   OH256944   4.890   0.104   3.562  0.7355  0.4496  0.4420
11818TIP3    H156945   4.854   0.021   3.530  4.1691 -0.7241 -0.5697
11818TIP3    H256946   4.878   0.100   3.657 -0.8891 -0.3300  0.2141
11819TIP3   OH256947   3.156   6.044  15.957  0.2706 -0.1503  0.2123
11819TIP3    H156948   3.238   6.093  15.965  0.3156 -0.2167  0.1572
11819TIP3    H256949   3.097   6.103  15.910  1.5442 -1.6250 -3.3727
11820TIP3   OH256950   5.264   4.615  12.087  0.2998  0.3027  0.2535
11820TIP3    H156951   5.318   4.569  12.023  1.5390 -0.2861  1.6753
11820TIP3    H256952   5.264   4.706  12.058  0.8198  0.0311 -0.6015
11821TIP3   OH256953   3.199   5.780  12.284  0.7308  0.0580 -1.1035
11821TIP3    H156954   3.159   5.829  12.212 -3.1673 -0.9478  0.2573
11821TIP3    H256955   3.197   5.689  12.254 -0.9771 -0.3719  0.2505
11822TIP3   OH256956   1.857   2.843  13.584  0.5090 -0.0224 -0.8836
11822TIP3    H156957   1.812   2.832  13.667  0.3957 -0.9283 -1.0525
11822TIP3    H256958   1.825   2.925  13.549 -0.2270 -0.1534 -0.5197
11823TIP3   OH256959   3.805   0.689   4.503  0.1055 -0.7822 -0.1273
11823TIP3    H156960   3.743   0.621   4.530 -0.7079  0.2971  0.7829
11823TIP3    H256961   3.872   0.689   4.571  0.0470 -0.6088 -0.0678
11824TIP3   OH256962   0.508   6.429  17.121  0.0237 -0.2646  0.1367
11824TIP3    H156963   0.493   6.339  17.152  0.5227 -0.1706  0.6667
11824TIP3    H256964   0.604   6.436  17.115 -0.0122  0.2820  0.2431
11825TIP3   OH256965   3.838   5.640   0.408  0.4443  0.1827 -0.2180
11825TIP3    H156966   3.795   5.726   0.400  1.8337  0.7093 -2.5082
11825TIP3    H256967   3.844   5.609   0.318  2.4742 -1.0730  0.3346
11826TIP3   OH256968   6.670   2.141   0.285  0.0188  0.3249 -0.2441
11826TIP3    H156969   6.663   2.045   0.283 -1.6755  0.4406 -0.5365
11826TIP3    H256970   6.750   2.160   0.237  1.2890 -1.0360  1.2671
11827TIP3   OH256971   0.279   2.757   5.213  0.7690 -0.8423  0.6338
11827TIP3    H156972   0.295   2.847   5.241 -2.1185  0.4270 -1.5293
11827TIP3    H256973   0.361   2.730   5.172  1.9880  0.4383  2.1349
11828TIP3   OH256974   3.126   6.270  15.591  0.5957 -0.3832  0.0523
11828TIP3    H156975   3.163   6.328  15.658  0.3873  0.0778 -0.2308
11828TIP3    H256976   3.037   6.251  15.622 -0.1302  1.2751 -0.9906
11829TIP3   OH256977   3.860   5.217  14.154 -0.5811  0.4921  0.0960
11829TIP3    H156978   3.942   5.261  14.135 -0.5735  0.9799  1.2690
11829TIP3    H256979   3.825   5.194  14.067  0.2741  1.2100 -0.4458
11830TIP3   OH256980   0.107   4.242  16.197  0.2239  0.0085  0.3919
11830TIP3    H156981   0.054   4.171  16.234  1.5049 -0.9091  0.4876
11830TIP3    H256982   0.197   4.216  16.215  0.7673  0.7745 -1.1896
11831TIP3   OH256983   3.735   4.400   3.198 -0.1493 -0.5821  0.3617
11831TIP3    H156984   3.759   4.342   3.270 -0.8049  0.9357  1.8331
11831TIP3    H256985   3.651   4.439   3.225 -1.1818 -1.1462 -1.9145
11832TIP3   OH256986   2.687   4.572  14.099  0.0483  1.1513 -0.0336
11832TIP3    H156987   2.769   4.619  14.083  0.8024  0.2662  1.1648
11832TIP3    H256988   2.620   4.640  14.097  0.7012  1.7545 -1.8985
11833TIP3   OH256989   4.565   0.921   2.964  0.7365  0.3626  0.1941
11833TIP3    H156990   4.478   0.959   2.971 -0.5149 -2.8035  3.0945
11833TIP3    H256991   4.611   0.949   3.043  0.7323 -1.7064  0.9737
11834TIP3   OH256992   3.789   5.253  11.738  0.1594 -0.6037  0.1362
11834TIP3    H156993   3.815   5.345  11.750  1.3740 -0.9897  0.4951
11834TIP3    H256994   3.725   5.256  11.667  0.1610  0.5281  0.1685
11835TIP3   OH256995   6.509   3.794   2.806 -0.2310 -0.0030 -0.0575
11835TIP3    H156996   6.603   3.797   2.828 -0.2653 -0.5545  0.1719
11835TIP3    H256997   6.498   3.712   2.758 -0.9581 -0.9453  1.6546
11836TIP3   OH256998   5.563   3.701  15.314  0.2297  0.3501 -0.1128
11836TIP3    H156999   5.478   3.686  15.357  0.0229 -0.0219 -0.6411
11836TIP3    H257000   5.565   3.795  15.298 -0.2813  0.2934 -0.5090
11837TIP3   OH257001   6.584   5.629  11.578 -0.3313 -0.5904  0.0443
11837TIP3    H157002   6.512   5.684  11.549 -0.0412  0.0983  0.6281
11837TIP3    H257003   6.620   5.592  11.497 -1.3582 -0.9710 -0.2487
11838TIP3   OH257004   5.327   6.558  10.996  0.2483  0.1574  0.4756
11838TIP3    H157005   5.308   6.596  10.910  1.9194 -1.8479 -0.8358
11838TIP3    H257006   5.255   6.497  11.012  0.8132 -0.7147 -0.2879
11839TIP3   OH257007   0.489   4.804  16.137 -0.2902  0.0964  0.8201
11839TIP3    H157008   0.396   4.791  16.121 -0.4759  0.1300  1.8864
11839TIP3    H257009   0.532   4.732  16.091 -0.8581 -0.1678  0.7046
11840TIP3   OH257010   1.162   0.299  11.617 -0.4367  0.1975  0.1401
11840TIP3    H157011   1.173   0.231  11.551  1.0188  0.6508 -0.1021
11840TIP3    H257012   1.156   0.252  11.700 -2.9267 -0.4112 -0.3570
11841TIP3   OH257013   5.411   4.363  13.268 -0.3986 -0.3123  0.3272
11841TIP3    H157014   5.382   4.321  13.187  0.0867 -2.4687  1.2314
11841TIP3    H257015   5.486   4.417  13.242 -1.4560  0.5589 -0.9744
11842TIP3   OH257016   2.799   0.728  12.569 -0.1340 -0.0486  0.4559
11842TIP3    H157017   2.831   0.771  12.649  0.2186  1.6165 -0.5563
11842TIP3    H257018   2.863   0.751  12.502 -0.5708 -1.2199 -0.3706
11843TIP3   OH257019   3.097   3.708  12.505 -0.0032 -0.3054 -0.7426
11843TIP3    H157020   3.168   3.660  12.549 -0.1458 -0.8699 -1.1183
11843TIP3    H257021   3.139   3.751  12.431  0.1767  0.3853 -0.2494
11844TIP3   OH257022   4.594   5.664   1.047  0.0862  0.0427  0.6272
11844TIP3    H157023   4.614   5.754   1.075 -2.2121  0.1592  2.0179
11844TIP3    H257024   4.566   5.674   0.956  0.5368  0.6639  0.5518
11845TIP3   OH257025   4.918   0.272   1.442 -0.0145  0.1698 -0.4836
11845TIP3    H157026   5.003   0.248   1.477 -0.1107  1.8780  0.9777
11845TIP3    H257027   4.858   0.204   1.474  0.3552  0.3328  0.5485
11846TIP3   OH257028   1.487   0.371   6.301 -0.1263 -0.2326  0.8123
11846TIP3    H157029   1.556   0.429   6.332 -0.0740 -0.1916  0.6171
11846TIP3    H257030   1.427   0.363   6.376  0.3461 -0.6673  1.1472
11847TIP3   OH257031   6.511   5.407   1.894 -0.2183  0.0774 -0.2827
11847TIP3    H157032   6.549   5.398   1.807  2.0557 -0.6019  0.7358
11847TIP3    H257033   6.506   5.501   1.909 -2.6813  0.2541 -1.9817
11848TIP3   OH257034   4.965   3.000  15.892  0.0395  0.1002  0.0514
11848TIP3    H157035   5.019   2.997  15.971  1.8134 -2.6590 -1.2118
11848TIP3    H257036   5.022   3.037  15.825 -0.8019  0.5311 -0.4416
11849TIP3   OH257037   1.904   6.283  15.098  0.0453 -0.0300  0.3621
11849TIP3    H157038   1.891   6.239  15.014 -0.5222  0.8437 -0.0104
11849TIP3    H257039   1.976   6.343  15.083 -0.5233  0.6405  0.2972
11850TIP3   OH257040   3.668   6.302   1.467 -0.1575 -0.3573 -0.2864
11850TIP3    H157041   3.685   6.386   1.508  1.5534 -1.1964  0.8269
11850TIP3    H257042   3.687   6.238   1.536 -1.7416 -1.6334 -1.0137
11851TIP3   OH257043   3.651   5.554  15.640 -0.0274 -0.2784  0.4733
11851TIP3    H157044   3.666   5.498  15.564 -1.2746  0.5993 -0.4465
11851TIP3    H257045   3.612   5.495  15.705  1.9556 -1.2574  0.8300
11852TIP3   OH257046   5.868   5.678   3.620  0.0015 -0.0720 -0.2099
11852TIP3    H157047   5.945   5.722   3.656  0.3114  0.0245 -0.9939
11852TIP3    H257048   5.898   5.590   3.599 -1.3855 -1.7991  4.3248
11853TIP3   OH257049   5.180   2.831   0.804 -0.5936  0.0981 -0.1547
11853TIP3    H157050   5.125   2.849   0.880  0.3766  2.3466  0.0396
11853TIP3    H257051   5.163   2.739   0.783 -1.0760 -0.4607  2.6022
11854TIP3   OH257052   3.341   4.530  16.508 -0.3023  0.0503 -0.2045
11854TIP3    H157053   3.344   4.531  16.604  0.7320  0.2534 -0.2299
11854TIP3    H257054   3.323   4.621  16.484  0.2109  0.1570 -0.2082
11855TIP3   OH257055   6.701   1.874   4.709 -0.1373 -0.2332 -0.0523
11855TIP3    H157056   6.634   1.863   4.641  0.5471 -0.0776 -0.7494
11855TIP3    H257057   6.664   1.829   4.785 -0.3040 -1.6201 -0.9242
11856TIP3   OH257058   0.014   3.063   3.837 -0.2361  0.1670  0.0648
11856TIP3    H157059   0.032   3.021   3.921  1.2162  0.0394 -0.3107
11856TIP3    H257060  -0.007   3.154   3.860 -0.4855 -0.0249  0.6110
11857TIP3   OH257061   4.904   3.563   1.579 -0.2855  0.1743 -0.1110
11857TIP3    H157062   4.833   3.625   1.563 -0.4741 -0.2391 -0.8621
11857TIP3    H257063   4.965   3.577   1.507 -0.5354 -0.8067 -0.5186
11858TIP3   OH257064   3.379   3.223   0.571  0.0206 -0.1922  0.7154
11858TIP3    H157065   3.431   3.219   0.490 -1.1800  0.8388 -0.1221
11858TIP3    H257066   3.423   3.289   0.624  0.6833 -0.7081  0.8081
11859TIP3   OH257067   5.881   6.229  12.885 -0.2839 -0.2344 -0.0034
11859TIP3    H157068   5.881   6.216  12.790  2.6520 -1.2098  0.0676
11859TIP3    H257069   5.889   6.323  12.897  1.4471 -0.2660 -0.7707
11860TIP3   OH257070   2.318   4.861  12.600  0.2208  0.1551 -0.1056
11860TIP3    H157071   2.255   4.811  12.548  0.1024 -0.2012  0.3812
11860TIP3    H257072   2.387   4.798  12.621  1.3818  0.8588 -1.7110
11861TIP3   OH257073   6.715   1.552  11.344 -0.4964 -0.2402  0.2224
11861TIP3    H157074   6.704   1.462  11.376 -2.4464  0.6713  2.1976
11861TIP3    H257075   6.689   1.607  11.417  0.0626  1.9653 -1.1968
11862TIP3   OH257076   1.057   3.231  13.566  0.2361 -0.1643  0.0071
11862TIP3    H157077   1.017   3.311  13.599 -0.8840 -0.9128  0.4760
11862TIP3    H257078   1.115   3.261  13.496  1.0496  1.2172  1.2319
11863TIP3   OH257079   3.181   2.809  13.688  0.3547  0.1979 -0.3986
11863TIP3    H157080   3.270   2.846  13.691  0.0201  1.2152 -2.2892
11863TIP3    H257081   3.134   2.865  13.626 -0.8244 -2.0024 -1.5424
11864TIP3   OH257082   6.461   4.345   3.136 -0.0558  0.1899  0.6486
11864TIP3    H157083   6.527   4.414   3.135  0.7045 -0.5419 -0.0122
11864TIP3    H257084   6.507   4.267   3.106 -1.0830 -0.4497  0.7185
11865TIP3   OH257085   0.326   0.422  16.080 -0.0905  0.5865  0.0360
11865TIP3    H157086   0.264   0.484  16.117 -0.4041  0.4123 -0.1977
11865TIP3    H257087   0.272   0.355  16.037  0.2457  0.1764  0.2420
11866TIP3   OH257088   0.302   3.303   5.882  0.4074 -0.5700  0.7329
11866TIP3    H157089   0.332   3.342   5.801  1.3220 -0.0423  1.3222
11866TIP3    H257090   0.377   3.307   5.941 -0.8964  1.1893  2.3724
11867TIP3   OH257091   5.987   3.685  12.514  0.0982  0.2747 -0.6656
11867TIP3    H157092   5.900   3.688  12.473 -0.4256  0.2770  0.4284
11867TIP3    H257093   6.038   3.628  12.456 -0.3512  1.0360 -1.8278
11868TIP3   OH257094   6.260   3.257  15.086  0.3182  0.8217  0.1840
11868TIP3    H157095   6.317   3.330  15.113  0.2520  0.7804  0.4388
11868TIP3    H257096   6.223   3.225  15.168  1.0580 -0.0949  0.1674
11869TIP3   OH257097   2.279   0.612   2.167 -0.4184 -0.4445  0.1392
11869TIP3    H157098   2.255   0.642   2.080  1.7792  1.4741  0.1403
11869TIP3    H257099   2.196   0.603   2.213 -1.4134  1.6562 -1.1811
11870TIP3   OH257100   4.229   1.208   4.808  0.0607  0.4817  0.7007
11870TIP3    H157101   4.230   1.299   4.777 -1.0967  0.6727  1.1790
11870TIP3    H257102   4.250   1.214   4.901 -0.0246  0.2645  0.7343
11871TIP3   OH257103   2.054   6.638  15.233 -0.0788 -0.0668 -0.2438
11871TIP3    H157104   1.964   6.612  15.212  0.2917 -2.9088  1.3793
11871TIP3    H257105   2.045   6.704  15.301 -0.9431 -0.0528 -0.3670
11872TIP3   OH257106   4.689   1.681  16.168 -0.0979  0.5835 -0.3933
11872TIP3    H157107   4.774   1.719  16.187  0.4353 -0.5622 -0.4411
11872TIP3    H257108   4.682   1.683  16.072 -0.4439  1.3402 -0.3585
11873TIP3   OH257109   3.677   4.234   4.004 -1.1593 -0.2008  0.2900
11873TIP3    H157110   3.602   4.242   4.062  0.8599  0.5767  2.8896
11873TIP3    H257111   3.745   4.194   4.058  0.1207 -1.5179 -2.2039
11874TIP3   OH257112   1.970   5.969  16.724  0.1072 -0.2210 -0.6885
11874TIP3    H157113   1.932   5.916  16.653  2.9519  0.2834 -2.6777
11874TIP3    H257114   2.008   6.044  16.679  3.5618 -0.7955  1.1538
11875TIP3   OH257115   2.894   3.763   4.265  0.0019  0.0873  0.3459
11875TIP3    H157116   2.916   3.734   4.354  0.0622  0.4285  0.4433
11875TIP3    H257117   2.962   3.724   4.210  0.1054  0.0722  0.4830
11876TIP3   OH257118   0.612   2.027  13.913 -0.4867  0.1367  0.4368
11876TIP3    H157119   0.643   2.109  13.950  2.5259 -1.0056  0.5398
11876TIP3    H257120   0.585   1.975  13.989  1.3265 -0.4412  0.7075
11877TIP3   OH257121   1.858   6.655  11.192 -0.3209  0.4266 -0.0575
11877TIP3    H157122   1.857   6.742  11.153 -0.8491  0.9148  1.0202
11877TIP3    H257123   1.899   6.599  11.126 -1.8327  1.0956 -1.5981
11878TIP3   OH257124   2.931   5.758   4.842  0.0273 -0.4669  1.3110
11878TIP3    H157125   2.872   5.691   4.875 -2.1439  1.4717  1.5443
11878TIP3    H257126   2.874   5.833   4.825  2.6243  1.9472  2.8340
11879TIP3   OH257127   1.706   1.775   2.396 -0.2363  0.2197  0.0535
11879TIP3    H157128   1.670   1.780   2.484 -0.9167  0.1511 -0.2241
11879TIP3    H257129   1.715   1.681   2.379 -2.2381  0.1783 -0.8271
11880TIP3   OH257130   1.379   1.498   4.259 -0.2397  0.1617  0.2251
11880TIP3    H157131   1.373   1.431   4.191  1.5055 -1.0969  1.2551
11880TIP3    H257132   1.373   1.581   4.212 -2.5435 -0.6908 -1.0586
11881TIP3   OH257133   2.536   3.986   3.237  0.0486 -0.0041  0.3911
11881TIP3    H157134   2.444   3.998   3.210 -0.0336  2.0137  1.4745
11881TIP3    H257135   2.573   3.929   3.170 -1.8184 -0.2480 -0.4670
11882TIP3   OH257136   2.244   1.596  11.261  0.1296 -0.0363  0.2396
11882TIP3    H157137   2.233   1.687  11.232  2.9300  0.5854  0.9568
11882TIP3    H257138   2.158   1.556  11.248 -0.6935  2.2404 -1.7310
11883TIP3   OH257139   6.097   5.490   5.137 -0.0899 -0.6317 -0.4811
11883TIP3    H157140   6.076   5.514   5.047 -2.2196 -2.5126 -0.5387
11883TIP3    H257141   6.012   5.466   5.175  0.9448 -0.9026  1.6857
11884TIP3   OH257142   3.151   2.220   2.771  0.5380  0.3206 -0.5112
11884TIP3    H157143   3.174   2.153   2.835 -1.2447  0.2882  0.1276
11884TIP3    H257144   3.198   2.195   2.692  0.7594 -1.0563  0.0418
11885TIP3   OH257145   3.138   6.622  13.914  0.2899 -0.6225 -0.0093
11885TIP3    H157146   3.125   6.678  13.991 -0.3488  1.1555 -1.3560
11885TIP3    H257147   3.221   6.578  13.930  1.4874  1.7224  0.5536
11886TIP3   OH257148   6.454   4.568  12.440  0.4749 -0.3469  0.7343
11886TIP3    H157149   6.452   4.500  12.373 -0.8921  0.6887 -0.3099
11886TIP3    H257150   6.532   4.619  12.421 -0.9588  1.1549 -1.3428
11887TIP3   OH257151   2.186   5.984  13.139 -0.1137 -0.3531 -0.0983
11887TIP3    H157152   2.175   6.078  13.152  1.0801 -0.2257  0.1000
11887TIP3    H257153   2.277   5.974  13.111  0.0372 -1.5300  0.7478
11888TIP3   OH257154   6.456   4.528  13.251  0.4410  0.1766  0.7122
11888TIP3    H157155   6.422   4.464  13.313 -0.7142  0.0596 -0.0439
11888TIP3    H257156   6.380   4.559  13.203  0.6413  3.6276  2.4375
11889TIP3   OH257157   2.786   3.244   2.859  0.1434 -0.7747 -0.6043
11889TIP3    H157158   2.806   3.252   2.952  0.2500 -1.2357 -0.5875
11889TIP3    H257159   2.691   3.252   2.854  0.1211 -0.9205 -0.4360
11890TIP3   OH257160   1.010   4.505  14.257 -0.4800  0.2995 -0.2041
11890TIP3    H157161   1.026   4.457  14.338 -2.0234  1.2935  0.7188
11890TIP3    H257162   1.004   4.596  14.284 -0.7864  0.6660 -1.4743
11891TIP3   OH257163   1.504   4.243  13.205  0.2685  0.3111  0.4469
11891TIP3    H157164   1.532   4.315  13.261 -1.8070  2.0804 -0.7058
11891TIP3    H257165   1.563   4.248  13.130  0.6762  0.2715  0.7623
11892TIP3   OH257166   3.102   1.180   6.371  0.5358  0.2565 -0.0974
11892TIP3    H157167   3.048   1.117   6.418  1.7333 -0.7333 -0.0452
11892TIP3    H257168   3.153   1.224   6.440 -0.1302  1.1431 -0.1538
11893TIP3   OH257169   1.489   1.773   1.572  0.4915  0.0674 -0.7263
11893TIP3    H157170   1.477   1.739   1.661  1.6590 -0.9043 -0.9346
11893TIP3    H257171   1.526   1.860   1.584 -0.0376  0.2294 -0.2471
11894TIP3   OH257172   1.769   2.034   0.465  0.8453 -0.3777  0.3809
11894TIP3    H157173   1.773   2.105   0.530 -0.8495 -1.0105  1.2005
11894TIP3    H257174   1.675   2.019   0.451  1.1799 -0.7914 -1.6426
11895TIP3   OH257175   2.758   5.031  16.136  0.2506  0.0039 -0.8551
11895TIP3    H157176   2.844   4.996  16.160 -0.4738 -0.9813  0.4245
11895TIP3    H257177   2.701   4.953  16.134 -0.9921  0.8621  0.1472
11896TIP3   OH257178   2.526   2.568  17.010 -0.1287 -0.4043 -0.5753
11896TIP3    H157179   2.590   2.624  17.053 -1.2110 -0.0202  0.5628
11896TIP3    H257180   2.483   2.625  16.946 -0.5206 -0.2012 -0.1327
11897TIP3   OH257181   4.608   4.269  16.828  0.2680 -0.1849  0.6524
11897TIP3    H157182   4.704   4.273  16.825  0.3619  0.0046  3.0864
11897TIP3    H257183   4.580   4.359  16.813  0.4259 -0.2944 -0.3897
11898TIP3   OH257184   6.698   6.073   0.062  0.1447  0.0266 -0.2874
11898TIP3    H157185   6.680   6.151   0.010 -0.0442  0.3350  0.2412
11898TIP3    H257186   6.768   6.028   0.014  1.0533  1.1067  0.0045
11899TIP3   OH257187   6.454   3.815   4.782 -0.4542 -0.2164 -0.0904
11899TIP3    H157188   6.437   3.727   4.751 -2.0148 -0.6118  1.7890
11899TIP3    H257189   6.368   3.848   4.811  0.6294  0.6839  2.2662
11900TIP3   OH257190   2.190   4.685  11.871 -0.4840  0.0495 -0.0884
11900TIP3    H157191   2.196   4.616  11.937  0.0608 -0.2208 -0.4206
11900TIP3    H257192   2.246   4.755  11.903  0.1900 -0.2904 -0.5154
11901TIP3   OH257193   6.516   2.288   1.488 -0.3663  0.2349  0.2671
11901TIP3    H157194   6.567   2.306   1.567 -1.1649  0.1856  0.7955
11901TIP3    H257195   6.534   2.362   1.430  0.2744  0.2355  0.4641
11902TIP3   OH257196   0.329   4.880   1.978  0.1008  0.2503  0.6368
11902TIP3    H157197   0.402   4.844   2.028 -0.1992 -1.2747 -0.0123
11902TIP3    H257198   0.255   4.823   1.999 -0.1543 -0.0984 -1.1328
11903TIP3   OH257199   4.312   3.904  15.487 -0.4863 -0.2567 -0.5368
11903TIP3    H157200   4.367   3.956  15.429 -0.6966 -0.1749 -0.6660
11903TIP3    H257201   4.230   3.953  15.491 -0.1265  0.2528  0.6165
11904TIP3   OH257202   2.414   5.865   3.273 -0.4469  0.7052  0.2773
11904TIP3    H157203   2.382   5.792   3.326 -1.2379  1.5483  0.9816
11904TIP3    H257204   2.364   5.940   3.304  0.3756  1.5512 -0.4304
11905TIP3   OH257205   2.887   5.862   3.523 -0.0125  0.2922 -0.0155
11905TIP3    H157206   2.810   5.908   3.489  0.7308  1.2021 -0.4942
11905TIP3    H257207   2.886   5.881   3.617 -0.3338  0.3728 -0.0348
11906TIP3   OH257208   2.329   2.317   5.481 -0.3042  0.2205  0.0881
11906TIP3    H157209   2.257   2.376   5.457  0.8095  0.5865 -2.6154
11906TIP3    H257210   2.402   2.376   5.502 -0.1822 -0.1530  0.6862
11907TIP3   OH257211   3.165   4.413  15.858  0.3345  0.1836  0.1395
11907TIP3    H157212   3.189   4.426  15.766 -0.6438 -0.3334 -0.2109
11907TIP3    H257213   3.094   4.348  15.854 -0.1080  0.5918  1.2156
11908TIP3   OH257214   1.342   4.526   2.940  0.1971 -0.0198  0.2915
11908TIP3    H157215   1.376   4.524   3.029 -0.2485 -1.0935  0.4505
11908TIP3    H257216   1.260   4.574   2.947  0.0292 -0.3371  0.5096
11909TIP3   OH257217   2.197   0.799   3.258  0.1349 -0.1497 -0.2105
11909TIP3    H157218   2.199   0.876   3.201  1.9338 -0.0514 -0.0559
11909TIP3    H257219   2.129   0.819   3.323 -2.2155 -0.4312 -2.5103
11910TIP3   OH257220   6.059   4.154   3.310  0.2175  0.4093 -0.2087
11910TIP3    H157221   5.985   4.106   3.273 -0.8896  1.8457  0.0795
11910TIP3    H257222   6.126   4.088   3.324 -1.7116 -1.2617  1.3664
11911TIP3   OH257223   3.717   6.306   4.911  0.5077  0.4164 -0.0952
11911TIP3    H157224   3.754   6.350   4.987 -1.4904  0.2467  1.0171
11911TIP3    H257225   3.789   6.253   4.876  1.0439 -0.7935  2.6781
11912TIP3   OH257226   4.442   6.582   5.185  0.3501  0.0339  0.2681
11912TIP3    H157227   4.503   6.546   5.120 -0.4654  0.6924 -0.8698
11912TIP3    H257228   4.423   6.508   5.243  0.6236 -0.7156 -0.5885
11913TIP3   OH257229   4.933   4.364   4.479  0.0191 -0.0668  0.5026
11913TIP3    H157230   4.983   4.445   4.488 -0.8789  0.4000  1.4266
11913TIP3    H257231   4.895   4.350   4.566  1.2456 -2.1940  0.7216
11914TIP3   OH257232   3.271   4.395   1.327 -0.0062  0.0493 -0.3114
11914TIP3    H157233   3.281   4.469   1.267  0.5143  1.1985  1.1721
11914TIP3    H257234   3.359   4.359   1.335  0.1062  0.4939  0.5024
11915TIP3   OH257235   4.145   4.839   2.701  0.2518  0.4048  0.3198
11915TIP3    H157236   4.167   4.878   2.785  2.1841 -0.6886  0.3626
11915TIP3    H257237   4.096   4.907   2.655  2.0956  2.2587  1.0296
11916TIP3   OH257238   6.433   6.082   0.208  1.0552  0.1853 -0.2685
11916TIP3    H157239   6.461   6.111   0.295  0.6030 -3.8416  1.3334
11916TIP3    H257240   6.492   6.010   0.187 -0.3604 -0.4234 -2.2789
11917TIP3   OH257241   5.738   3.154   4.082 -0.4808 -0.0122 -0.2676
11917TIP3    H157242   5.682   3.113   4.016 -0.6801  1.1039 -0.8157
11917TIP3    H257243   5.753   3.243   4.048 -0.2197  0.4252  0.9753
11918TIP3   OH257244   5.908   0.340  14.266 -0.1758 -0.3639 -0.1063
11918TIP3    H157245   5.974   0.325  14.334 -1.0535  1.0550  1.0789
11918TIP3    H257246   5.846   0.267  14.276 -0.0532 -0.4096  0.3244
11919TIP3   OH257247   3.070   5.071   1.914  0.1691 -0.4585 -0.2809
11919TIP3    H157248   3.065   5.154   1.868 -0.5660  0.2168  0.9978
11919TIP3    H257249   3.162   5.062   1.939  0.4665 -0.5737 -1.3700
11920TIP3   OH257250   3.197   5.171  17.057 -0.4155 -0.5146 -0.4426
11920TIP3    H157251   3.128   5.227  17.024 -1.0072 -0.1253  1.4090
11920TIP3    H257252   3.273   5.191  17.002 -1.0452  0.9614 -0.7907
11921TIP3   OH257253   0.609   5.996   5.460 -0.5406 -0.0331 -0.6300
11921TIP3    H157254   0.583   5.933   5.527 -1.4903  1.3845  0.3593
11921TIP3    H257255   0.566   6.077   5.485  0.6787  1.0304 -1.8763
11922TIP3   OH257256   1.205   3.393   2.436 -0.0410  0.1450  0.2899
11922TIP3    H157257   1.243   3.438   2.512  0.6725 -0.5569  0.3551
11922TIP3    H257258   1.117   3.368   2.464 -0.1159  0.7098  0.5614
11923TIP3   OH257259   2.932   2.602  16.133 -0.3706  0.0010  0.3385
11923TIP3    H157260   2.878   2.593  16.055 -2.0422  2.1352  1.1944
11923TIP3    H257261   2.973   2.688  16.124 -0.8829  0.4423  1.9711
11924TIP3   OH257262   2.292   4.783   4.188 -0.7266  0.5993  0.0428
11924TIP3    H157263   2.294   4.854   4.124 -1.4412 -0.0707 -0.7342
11924TIP3    H257264   2.305   4.704   4.136  2.7549  0.3271  1.1944
11925TIP3   OH257265   1.143   4.522  12.624  0.2169 -0.0868  0.3954
11925TIP3    H157266   1.097   4.602  12.597  0.3259 -0.5182 -1.1153
11925TIP3    H257267   1.235   4.539  12.604  0.0660 -1.1043 -1.2449
11926TIP3   OH257268   5.798   2.857   0.904 -0.6672 -0.5423  0.0734
11926TIP3    H157269   5.848   2.937   0.915  1.5957 -1.8904 -0.1684
11926TIP3    H257270   5.768   2.834   0.992  0.5766 -0.6326  0.4727
11927TIP3   OH257271   4.937   1.269  13.322  0.0894  1.1023  0.2016
11927TIP3    H157272   4.843   1.284  13.310 -0.2647  1.8633  3.3584
11927TIP3    H257273   4.967   1.344  13.372  1.7490 -0.6123  1.8602
11928TIP3   OH257274   1.780   0.198   0.404 -0.1219 -0.4995  0.4050
11928TIP3    H157275   1.762   0.254   0.329 -0.7974 -0.5850  0.4968
11928TIP3    H257276   1.718   0.228   0.471  0.3458 -0.5483  0.8607
11929TIP3   OH257277   6.071   5.434   5.657  0.1995 -0.2717 -0.2845
11929TIP3    H157278   6.071   5.464   5.566 -3.3352  0.2046 -0.1973
11929TIP3    H257279   6.094   5.512   5.708 -0.0717  0.0516 -0.6470
11930TIP3   OH257280   5.602   0.559  14.970  0.1487  0.2836 -0.0318
11930TIP3    H157281   5.667   0.584  14.905  1.7479  1.5500  1.9711
11930TIP3    H257282   5.636   0.478  15.008  1.5659  1.8708  2.2479
11931TIP3   OH257283   2.990   6.514   5.060  0.0725 -0.0192  0.3702
11931TIP3    H157284   3.033   6.503   5.145 -1.5212  0.0104  1.1929
11931TIP3    H257285   2.933   6.438   5.053  0.9298 -0.5421 -1.1420
11932TIP3   OH257286   5.903   6.797  14.954  0.1188  0.1197 -0.4908
11932TIP3    H157287   5.947   6.880  14.972  1.9295 -1.0740  0.7055
11932TIP3    H257288   5.869   6.806  14.865  1.3221  1.6761 -0.8021
11933TIP3   OH257289   1.384   0.648   5.629  0.1181 -1.1800 -0.1946
11933TIP3    H157290   1.323   0.698   5.684  0.5571 -2.3442  1.4040
11933TIP3    H257291   1.469   0.690   5.642 -0.0537 -0.5001 -1.2206
11934TIP3   OH257292   5.902   2.650  11.358 -0.0147  0.0618  0.0738
11934TIP3    H157293   5.952   2.684  11.283 -0.9249 -0.4734 -0.7845
11934TIP3    H257294   5.969   2.610  11.414  0.5886 -0.2596 -0.8479
11935TIP3   OH257295   3.313   1.551   3.093  0.1099 -0.1585 -0.2112
11935TIP3    H157296   3.257   1.519   3.163 -0.0243 -1.4614 -0.9045
11935TIP3    H257297   3.259   1.545   3.014  1.1980 -1.4072 -0.8820
11936TIP3   OH257298   5.047   3.980  15.404  0.6374  0.3573 -0.2478
11936TIP3    H157299   4.964   3.932  15.415  0.9597  0.0887  1.1059
11936TIP3    H257300   5.022   4.072  15.407  0.4636  0.2833  0.9317
11937TIP3   OH257301   0.489   4.054   1.994 -0.4519  0.6322 -0.0281
11937TIP3    H157302   0.482   4.006   1.912  0.4767  0.0820  0.1986
11937TIP3    H257303   0.490   3.986   2.062  2.5303  0.8079  0.2019
11938TIP3   OH257304   2.677   6.596  10.789 -0.6280 -0.0263  0.2570
11938TIP3    H157305   2.737   6.600  10.714 -1.1880  0.0787 -0.1956
11938TIP3    H257306   2.591   6.612  10.750 -1.0017 -0.6925  0.8234
11939TIP3   OH257307   0.683   6.187   1.518 -0.0214  0.2856 -0.2539
11939TIP3    H157308   0.675   6.273   1.559 -1.2464 -0.4732  1.1637
11939TIP3    H257309   0.767   6.153   1.548  0.2059  0.7620 -0.3590
11940TIP3   OH257310   0.964   3.223   2.228 -0.2568  0.6779  0.5948
11940TIP3    H157311   0.935   3.294   2.171 -1.7269 -0.9560 -0.7488
11940TIP3    H257312   1.005   3.159   2.169 -1.2621 -0.7648  1.4254
11941TIP3   OH257313   6.289   4.907   1.488  0.1726 -0.2642 -0.3466
11941TIP3    H157314   6.320   4.823   1.456  2.0841  0.5572 -0.7505
11941TIP3    H257315   6.326   4.914   1.576 -1.3381 -0.5491  0.3269
11942TIP3   OH257316   2.667   5.250  16.310 -0.3525  0.0531 -0.0022
11942TIP3    H157317   2.614   5.213  16.381 -1.6098 -0.4665 -1.1969
11942TIP3    H257318   2.664   5.184  16.241  0.1082  0.9587 -0.8883
11943TIP3   OH257319   1.509   4.274   2.894 -0.2887  0.6142  0.7126
11943TIP3    H157320   1.545   4.243   2.811 -2.0580  0.9091 -0.1816
11943TIP3    H257321   1.529   4.367   2.896  2.7411 -0.0071  2.2089
11944TIP3   OH257322   4.158   5.652   1.139 -0.1311  0.2317  0.0622
11944TIP3    H157323   4.096   5.613   1.077  1.5024 -1.1367 -0.7417
11944TIP3    H257324   4.208   5.577   1.173  0.6645  1.2504  1.1751
11945TIP3   OH257325   2.864   3.471  12.024  0.0123  0.1500  0.0131
11945TIP3    H157326   2.865   3.563  12.049 -1.2553 -0.1217  1.1547
11945TIP3    H257327   2.780   3.458  11.981  1.5095  0.2345 -3.1015
11946TIP3   OH257328   6.238   4.227   2.638  0.2017 -0.1860 -0.2514
11946TIP3    H157329   6.313   4.240   2.697 -0.3076 -0.2429  0.4154
11946TIP3    H257330   6.180   4.169   2.686  0.8319 -2.1152 -1.7804
11947TIP3   OH257331   0.258   2.443  15.463 -0.7052 -0.5927 -0.3665
11947TIP3    H157332   0.338   2.398  15.435 -1.1561 -2.0984  0.6928
11947TIP3    H257333   0.191   2.375  15.463 -1.5965  0.2726  0.4190
11948TIP3   OH257334   1.702   6.718   4.912 -0.3733  0.5608  0.3216
11948TIP3    H157335   1.688   6.639   4.964  2.7999  0.6182  1.3918
11948TIP3    H257336   1.745   6.687   4.832 -0.2740  1.0724  0.1760
11949TIP3   OH257337   6.330   5.888  14.960 -0.2795  0.7136  0.6740
11949TIP3    H157338   6.275   5.935  14.898 -2.9694  1.6545  3.6155
11949TIP3    H257339   6.300   5.797  14.955  1.1361  0.3329 -1.0699
11950TIP3   OH257340   1.563   1.470   0.981 -0.6543  0.4030  0.1459
11950TIP3    H157341   1.547   1.561   1.007 -1.8712 -0.1898  1.5753
11950TIP3    H257342   1.646   1.447   1.024 -1.6859  0.0390  2.0277
11951TIP3   OH257343   3.743   0.680  11.798 -0.2230 -0.6692 -0.2565
11951TIP3    H157344   3.812   0.627  11.758  0.1995 -0.0085 -0.4115
11951TIP3    H257345   3.748   0.764  11.753 -0.9261 -0.5158 -0.0517
11952TIP3   OH257346   2.386   6.062   2.138 -0.1660 -0.3462  0.1097
11952TIP3    H157347   2.467   6.110   2.155 -0.3247 -0.2131  0.5142
11952TIP3    H257348   2.411   5.970   2.143 -0.2890 -0.3222  1.5636
11953TIP3   OH257349   1.643   2.350  16.778  0.0920  0.5713 -0.6253
11953TIP3    H157350   1.698   2.422  16.747  0.3101  0.0854 -1.3679
11953TIP3    H257351   1.666   2.276  16.722 -0.9577  0.2302 -0.6076
11954TIP3   OH257352   0.164   2.387   3.524 -0.1561  0.2606  0.2976
11954TIP3    H157353   0.199   2.420   3.607 -1.3640  0.4523  0.7472
11954TIP3    H257354   0.118   2.462   3.486  0.8943  0.3381 -0.8392
11955TIP3   OH257355   1.302   4.569   0.938 -0.2949  0.5430 -0.3233
11955TIP3    H157356   1.273   4.505   0.872 -0.8108  0.5815 -0.1414
11955TIP3    H257357   1.353   4.517   1.000  0.3120  0.5333 -0.8285
11956TIP3   OH257358   4.503   6.629   2.888  0.1238 -0.1697 -0.2115
11956TIP3    H157359   4.569   6.693   2.862  0.9529 -0.7403  0.4934
11956TIP3    H257360   4.442   6.679   2.943  0.5984  0.0807  0.0881
11957TIP3   OH257361   3.851   0.844   5.387  0.1757 -0.0341 -0.3521
11957TIP3    H157362   3.777   0.895   5.418  0.4059 -1.0630  2.0496
11957TIP3    H257363   3.851   0.766   5.443  1.9840 -0.8946 -1.5080
11958TIP3   OH257364   0.943   5.979   3.069 -0.2485 -0.2710 -0.0751
11958TIP3    H157365   0.996   5.954   2.993  1.7953  1.1912  0.8261
11958TIP3    H257366   0.967   5.915   3.137 -0.2074 -0.0590  0.1109
11959TIP3   OH257367   1.207   0.011  12.065  0.4440  0.2092 -0.5360
11959TIP3    H157368   1.278  -0.042  12.100 -0.5946 -0.2544  0.9510
11959TIP3    H257369   1.146  -0.053  12.028  0.2278  0.5224 -0.7228
11960TIP3   OH257370   1.786   0.485  14.475  0.2974  0.1904 -0.2138
11960TIP3    H157371   1.793   0.525  14.389  0.4461 -0.4835 -0.5232
11960TIP3    H257372   1.803   0.392  14.460  0.0788  0.0246  0.5030
11961TIP3   OH257373   2.592   4.372   0.560  0.5650  0.1244 -0.3959
11961TIP3    H157374   2.547   4.447   0.598 -1.1846 -0.4562 -1.2888
11961TIP3    H257375   2.554   4.363   0.472  3.3931  0.4652 -1.7211
11962TIP3   OH257376   3.149   2.464  12.540  0.0469  0.4917 -0.2299
11962TIP3    H157377   3.180   2.446  12.451 -1.7843 -1.1232 -0.5653
11962TIP3    H257378   3.199   2.404  12.595 -0.3964 -0.0705 -0.4344
11963TIP3   OH257379   5.607   4.966   3.563  0.2138 -0.6411  0.1490
11963TIP3    H157380   5.667   4.977   3.489  0.2241 -0.4504  0.1841
11963TIP3    H257381   5.557   4.888   3.542 -0.2801 -0.1777 -0.4094
11964TIP3   OH257382   4.168   6.022   3.725 -0.2482 -0.9885  0.5298
11964TIP3    H157383   4.195   6.016   3.817 -2.6200 -1.0551  1.2684
11964TIP3    H257384   4.188   5.935   3.689  1.6450 -0.6299  0.6969
11965TIP3   OH257385   0.833   2.730  13.325  0.0678  0.0545  0.0871
11965TIP3    H157386   0.756   2.693  13.369 -0.3144  0.9018  0.1218
11965TIP3    H257387   0.855   2.665  13.258 -0.8562 -0.0350 -0.1281
11966TIP3   OH257388   4.314   4.316   0.896  0.8224 -0.7172  0.2330
11966TIP3    H157389   4.282   4.398   0.858  0.0243  0.1157  2.6265
11966TIP3    H257390   4.408   4.316   0.878  0.3416 -0.7639 -2.4486
11967TIP3   OH257391   0.683   1.695   2.625 -0.2811 -0.4159  0.3422
11967TIP3    H157392   0.745   1.731   2.563 -1.1807 -0.4970 -0.6192
11967TIP3    H257393   0.732   1.687   2.707  0.3731  1.4746  0.1590
11968TIP3   OH257394   4.622   3.583  14.090 -0.1536  0.0378  0.5572
11968TIP3    H157395   4.713   3.594  14.060 -0.4503  1.7663  0.2697
11968TIP3    H257396   4.601   3.492  14.069  1.3616 -0.2432  0.2014
11969TIP3   OH257397   0.869   2.032   5.372 -0.0794  0.4763 -0.1846
11969TIP3    H157398   0.885   1.998   5.460 -2.3778 -0.8336 -0.2257
11969TIP3    H257399   0.948   2.012   5.323  0.5437 -0.3103  1.1297
11970TIP3   OH257400   4.034   2.378   1.645  0.6054 -0.3640  0.0099
11970TIP3    H157401   4.006   2.439   1.578  0.9052 -0.2859 -0.0465
11970TIP3    H257402   4.037   2.430   1.726  1.0099 -0.2655 -0.0675
11971TIP3   OH257403   2.166   1.789   3.414  0.8956  0.2269 -0.1173
11971TIP3    H157404   2.092   1.817   3.360  0.0108  0.2368  1.0693
11971TIP3    H257405   2.155   1.837   3.496  2.0280 -0.0354  0.1970
11972TIP3   OH257406   6.085   0.088   3.755 -0.0023 -0.1570  0.4600
11972TIP3    H157407   6.171   0.063   3.722  0.2257 -0.3219  1.1865
11972TIP3    H257408   6.080   0.183   3.740  0.7704  0.0487  1.4987
11973TIP3   OH257409   4.228   3.830   3.126 -0.0142 -0.0790  0.1015
11973TIP3    H157410   4.143   3.831   3.082 -0.8356  2.0708  1.6605
11973TIP3    H257411   4.291   3.847   3.057 -0.9375 -0.5781 -0.8801
11974TIP3   OH257412   6.621   3.910   2.411 -0.2145 -0.2360  0.0168
11974TIP3    H157413   6.602   3.912   2.317  1.1013 -1.3508 -0.2920
11974TIP3    H257414   6.535   3.912   2.453 -0.7929  0.7932 -1.2003
11975TIP3   OH257415   2.486   1.641  12.784 -0.1139 -0.4325 -0.5229
11975TIP3    H157416   2.507   1.717  12.730 -1.1106 -1.4995 -2.4720
11975TIP3    H257417   2.509   1.668  12.873 -0.8220  2.3084 -1.0985
11976TIP3   OH257418   6.128   0.562   1.840  0.1122 -0.2797 -0.0334
11976TIP3    H157419   6.179   0.529   1.914 -0.2232 -0.1890  0.2336
11976TIP3    H257420   6.098   0.648   1.867  0.5216  0.0184 -0.5195
11977TIP3   OH257421   1.333   2.861   3.939 -0.2478 -0.0643 -0.0641
11977TIP3    H157422   1.305   2.945   3.977  0.4332 -0.5469  1.5336
11977TIP3    H257423   1.283   2.854   3.857  0.9971  2.7506 -1.1292
11978TIP3   OH257424   3.388   0.679  17.152 -0.5927 -0.9221  0.0790
11978TIP3    H157425   3.385   0.686  17.247 -1.0909  2.4738 -0.1465
11978TIP3    H257426   3.481   0.670  17.131 -0.4331 -1.0241  0.8245
11979TIP3   OH257427   2.982   3.872   2.272 -0.0683 -0.1489 -0.1023
11979TIP3    H157428   2.988   3.800   2.209  0.5704 -2.2063  2.2108
11979TIP3    H257429   3.073   3.895   2.291 -0.2656  1.5847 -1.0984
11980TIP3   OH257430   1.312   1.922   6.687 -0.5700  0.6091 -0.0781
11980TIP3    H157431   1.250   1.868   6.637 -0.8545  0.8722 -0.0090
11980TIP3    H257432   1.372   1.957   6.621  0.8062 -1.3506  0.0828
11981TIP3   OH257433   2.198   6.125   1.891  0.3023 -0.2684  1.0527
11981TIP3    H157434   2.245   6.113   1.974  0.4099 -2.4614  0.7109
11981TIP3    H257435   2.232   6.207   1.856  1.5392 -0.2057  2.3542
11982TIP3   OH257436   5.630   4.330   2.406  0.1326 -0.4824  0.3330
11982TIP3    H157437   5.539   4.301   2.415  0.1299  0.1207  2.5296
11982TIP3    H257438   5.678   4.252   2.378 -0.9616 -0.9447 -0.2519
11983TIP3   OH257439   0.921   6.576   4.915 -0.4645 -0.3079 -0.4464
11983TIP3    H157440   0.853   6.535   4.968  0.8771 -0.2727  1.3697
11983TIP3    H257441   0.954   6.647   4.970  0.4402  0.2220 -1.6585
11984TIP3   OH257442   6.471   2.022  17.162  0.0758  0.6191 -0.1205
11984TIP3    H157443   6.548   2.071  17.190  0.7514  0.4819 -1.6708
11984TIP3    H257444   6.404   2.043  17.226  1.0929  1.5859  0.6429
11985TIP3   OH257445   5.415   6.811   4.817 -0.0139 -0.3076 -0.4006
11985TIP3    H157446   5.357   6.775   4.884 -0.4529 -0.5197 -0.8899
11985TIP3    H257447   5.486   6.851   4.866 -0.7706  0.2960  0.2179
11986TIP3   OH257448   4.608   4.354  15.354 -0.1659  0.9667  0.5051
11986TIP3    H157449   4.684   4.352  15.295 -0.6303  0.6190 -0.0855
11986TIP3    H257450   4.644   4.329  15.439  0.7702  2.7942  0.6836
11987TIP3   OH257451   1.876   2.458   1.269  0.0830 -0.5689 -0.1148
11987TIP3    H157452   1.867   2.547   1.301  1.2054 -0.8836  1.1104
11987TIP3    H257453   1.787   2.431   1.248 -0.6289 -0.1429  2.2142
11988TIP3   OH257454   5.435   2.046   6.144 -0.0064 -0.1650 -0.0264
11988TIP3    H157455   5.394   1.973   6.191  0.2185 -0.1685  0.1629
11988TIP3    H257456   5.455   2.010   6.058  1.7510 -0.8685  0.6600
11989TIP3   OH257457   1.836   1.826  15.243 -0.3940 -0.1093 -0.1745
11989TIP3    H157458   1.903   1.892  15.223 -0.6186  1.2680  3.3438
11989TIP3    H257459   1.753   1.870  15.221 -0.3732 -0.3994 -0.8457
11990TIP3   OH257460   4.862   5.101  12.604 -0.3471  0.2938  0.1816
11990TIP3    H157461   4.840   5.192  12.624 -0.1020  0.2459  0.6757
11990TIP3    H257462   4.938   5.082  12.659  0.9583  0.4732 -1.5263
11991TIP3   OH257463   5.984   0.929   2.536 -0.0110  0.3805  0.1861
11991TIP3    H157464   6.001   0.836   2.519  0.3430  0.4362  0.2318
11991TIP3    H257465   6.066   0.962   2.571 -0.1975  0.6692  0.3515
11992TIP3   OH257466   4.927   1.714   3.659 -0.4135  0.9364 -0.0574
11992TIP3    H157467   4.855   1.762   3.617  0.5127  1.1457 -1.4100
11992TIP3    H257468   5.005   1.739   3.609  0.3865 -0.3810  0.5294
11993TIP3   OH257469   3.705   1.909   0.478 -0.5293 -0.8473  0.1481
11993TIP3    H157470   3.745   1.883   0.561 -0.4719 -1.4237 -0.0577
11993TIP3    H257471   3.752   1.988   0.453  0.9539 -1.8935 -0.4246
11994TIP3   OH257472   2.844   3.216  12.173 -0.5401 -0.6877  0.0777
11994TIP3    H157473   2.918   3.158  12.161 -0.5087 -0.6580  0.1285
11994TIP3    H257474   2.862   3.291  12.116 -0.2830 -0.4451  0.4798
11995TIP3   OH257475   5.605   6.542   3.245  0.2610 -0.0075 -0.2624
11995TIP3    H157476   5.681   6.518   3.193 -0.7240 -0.3012 -1.5829
11995TIP3    H257477   5.559   6.459   3.260 -0.4276  0.3374 -0.4632
11996TIP3   OH257478   2.466   6.102  16.112 -0.0828 -0.4306 -0.2953
11996TIP3    H157479   2.390   6.159  16.097 -0.7615 -1.0598  0.6852
11996TIP3    H257480   2.445   6.021  16.066 -0.1701 -0.7310  0.2662
11997TIP3   OH257481   3.940   1.138  12.237 -0.0416  0.0329 -0.3469
11997TIP3    H157482   3.858   1.153  12.189 -1.1428 -0.3213  1.3730
11997TIP3    H257483   3.972   1.054  12.204 -0.9243 -0.3289 -0.3017
11998TIP3   OH257484   1.706   1.838   5.905  0.6059  0.0709 -0.5979
11998TIP3    H157485   1.613   1.820   5.921  0.8709  0.6422  1.8004
11998TIP3    H257486   1.750   1.757   5.930  0.8654  0.2804 -0.3783
11999TIP3   OH257487   6.511   6.660   3.291 -0.2878  0.4883  0.2094
11999TIP3    H157488   6.459   6.628   3.364 -0.5212 -0.1715 -0.2433
11999TIP3    H257489   6.596   6.618   3.302 -0.3859  0.2322 -0.0112
12000TIP3   OH257490   3.352   4.064  12.774  0.7772  0.4596 -0.2082
12000TIP3    H157491   3.337   4.069  12.869 -0.0731 -3.9991 -0.0149
12000TIP3    H257492   3.436   4.109  12.761  1.5273  0.0732  2.8250
12001TIP3   OH257493   5.615   0.079  10.333 -0.4961  0.0678 -0.2533
12001TIP3    H157494   5.641   0.020  10.403  0.5241  0.8113  0.0106
12001TIP3    H257495   5.634   0.032  10.252  0.9680  0.2927 -0.0530
12002TIP3   OH257496   2.934   1.843  12.570  0.4607 -0.0411  0.4258
12002TIP3    H157497   2.906   1.817  12.658  0.0008  3.8533  1.5579
12002TIP3    H257498   3.027   1.865  12.580  0.3473  0.6324  0.0138
12003TIP3   OH257499   3.640   5.513  16.715 -0.3210 -0.4749  0.4923
12003TIP3    H157500   3.708   5.524  16.782  0.1838  0.5375 -0.1731
12003TIP3    H257501   3.687   5.514  16.632 -1.1407  0.2828  0.0193
12004TIP3   OH257502   3.845   1.498  15.662 -0.6079  0.0782 -0.0131
12004TIP3    H157503   3.750   1.500  15.674 -0.6675 -0.5494 -0.3933
12004TIP3    H257504   3.880   1.510  15.750 -1.0327  1.5299 -0.0307
12005TIP3   OH257505   5.650   6.173  11.728  0.7895 -0.2000 -0.2033
12005TIP3    H157506   5.586   6.200  11.794 -1.3814 -1.7450 -1.6268
12005TIP3    H257507   5.660   6.250  11.672 -1.5484 -0.6210 -1.2736
12006TIP3   OH257508   1.760   6.244  12.110 -0.3259 -0.4091 -0.2140
12006TIP3    H157509   1.719   6.307  12.171 -0.6579 -1.2566  0.4526
12006TIP3    H257510   1.823   6.197  12.164 -0.1772 -0.7418 -0.6838
12007TIP3   OH257511   3.551   5.608   5.894  0.1312  0.3804 -0.5180
12007TIP3    H157512   3.469   5.568   5.865  0.6933 -0.6965 -0.6678
12007TIP3    H257513   3.533   5.639   5.982 -0.2356 -0.4886 -0.2836
12008TIP3   OH257514   3.518   4.195  14.664  0.2696  0.8466  0.5440
12008TIP3    H157515   3.486   4.107  14.682  2.0828 -0.3721 -1.9858
12008TIP3    H257516   3.558   4.190  14.577  1.1204  3.9666  0.6699
12009TIP3   OH257517   0.392   4.121  16.953  0.1252  0.0511 -0.7289
12009TIP3    H157518   0.461   4.186  16.944 -0.2503  0.3802 -1.2487
12009TIP3    H257519   0.359   4.134  17.042 -0.4181  1.0443 -1.0640
12010TIP3   OH257520   5.665   0.193   0.390 -0.6831  0.6899  0.0798
12010TIP3    H157521   5.605   0.122   0.367 -0.7112  0.3259  1.2688
12010TIP3    H257522   5.738   0.184   0.329 -1.7385  1.0241 -1.2635
12011TIP3   OH257523   3.141   6.577  13.213  0.1054  0.4656 -0.4544
12011TIP3    H157524   3.175   6.491  13.189 -2.2324 -0.8524  0.8310
12011TIP3    H257525   3.204   6.610  13.277  2.0859  0.6109 -2.4114
12012TIP3   OH257526   1.465   5.941   2.649 -0.0153  0.4093  0.5140
12012TIP3    H157527   1.373   5.949   2.627  0.3358  0.0829 -1.2154
12012TIP3    H257528   1.472   5.860   2.699 -0.1880 -1.4948 -2.4357
12013TIP3   OH257529   2.117   4.400   1.456 -0.0068 -0.4209 -0.2164
12013TIP3    H157530   2.137   4.356   1.373  0.4379  1.1931 -0.9857
12013TIP3    H257531   2.069   4.335   1.506  2.9283 -2.7295 -0.2477
12014TIP3   OH257532   6.204   3.626   2.163  0.4083  0.4564 -0.0366
12014TIP3    H157533   6.291   3.663   2.153  0.8410  0.2107  2.6305
12014TIP3    H257534   6.169   3.666   2.242 -0.6233 -1.8614  0.7455
12015TIP3   OH257535   2.071   6.595   5.504  0.3914 -0.0983 -0.7193
12015TIP3    H157536   2.008   6.653   5.463 -1.4653 -0.8143  1.0445
12015TIP3    H257537   2.145   6.651   5.525 -0.0550  0.9534 -1.9168
12016TIP3   OH257538   4.573   0.166  13.549 -0.4917 -0.0450  0.7696
12016TIP3    H157539   4.646   0.130  13.499  0.0195  0.1400  1.3836
12016TIP3    H257540   4.605   0.251  13.581 -0.2663 -0.8598  2.7246
12017TIP3   OH257541   1.546   3.076  14.709 -0.5050 -0.5664  0.1886
12017TIP3    H157542   1.580   3.077  14.620 -0.0847 -0.7457  0.3464
12017TIP3    H257543   1.472   3.137  14.708  1.4542  1.8685  0.5092
12018TIP3   OH257544   4.766   2.024  13.801  0.5157 -0.1659 -0.1995
12018TIP3    H157545   4.815   1.953  13.759  0.1999 -0.9816  0.7856
12018TIP3    H257546   4.834   2.078  13.841  0.8176  0.6165 -1.7351
12019TIP3   OH257547   1.739   4.481  16.342  0.5216 -0.0322 -0.4206
12019TIP3    H157548   1.729   4.509  16.433  1.4646  1.5317 -0.7803
12019TIP3    H257549   1.819   4.428  16.342  0.4558 -0.1329 -0.3274
12020TIP3   OH257550   2.719   5.059   2.309  0.5366  0.4812 -0.3652
12020TIP3    H157551   2.793   5.031   2.255 -0.1708  1.1214 -1.6920
12020TIP3    H257552   2.662   4.983   2.314  0.3938  0.5584 -0.8764
12021TIP3   OH257553   0.109   1.485   5.491  0.2559 -0.9402 -0.3599
12021TIP3    H157554   0.178   1.427   5.460  0.0003 -0.7000 -1.4037
12021TIP3    H257555   0.051   1.496   5.415  1.2435  2.0791 -0.7663
12022TIP3   OH257556   6.582   0.342  10.268 -0.5032  0.3754 -0.3510
12022TIP3    H157557   6.491   0.352  10.295 -1.0023 -0.4575 -1.6840
12022TIP3    H257558   6.623   0.425  10.292 -1.3407  0.3495  1.2677
12023TIP3   OH257559   3.019   2.836   3.009 -0.1540 -0.5724 -0.2804
12023TIP3    H157560   3.016   2.924   3.045  3.8522  0.9817 -3.3511
12023TIP3    H257561   3.038   2.780   3.084  1.7727  1.7461  1.0301
12024TIP3   OH257562   5.102   0.649  14.558  0.1211 -0.2745  0.0164
12024TIP3    H157563   5.110   0.554  14.562  0.0183 -0.2565  0.6383
12024TIP3    H257564   5.192   0.680  14.556  0.1656 -0.4543 -2.0265
12025TIP3   OH257565   1.123   0.053  14.417 -0.6984  0.2365 -0.2095
12025TIP3    H157566   1.053   0.117  14.406 -0.0335  0.8816 -0.7612
12025TIP3    H257567   1.165   0.078  14.500 -0.5585  0.3976 -0.3291
12026TIP3   OH257568   6.056   1.654   4.703 -0.2809 -0.1791 -0.9161
12026TIP3    H157569   5.984   1.674   4.643 -2.2939 -1.1802  1.0861
12026TIP3    H257570   6.099   1.738   4.718 -1.7433  0.6574 -1.2797
12027TIP3   OH257571   0.352   5.668  12.498 -0.2370  0.0706 -0.4870
12027TIP3    H157572   0.364   5.577  12.526 -0.2266 -0.1620 -1.2373
12027TIP3    H257573   0.336   5.716  12.579 -0.8543 -0.7042 -0.1425
12028TIP3   OH257574   0.258   5.580   2.805 -0.0288 -0.2333 -0.4932
12028TIP3    H157575   0.188   5.634   2.770  0.9441  0.2271 -1.7919
12028TIP3    H257576   0.235   5.566   2.897 -0.8883  1.4140 -0.4485
12029TIP3   OH257577   3.184   3.747  17.110  0.7697  0.4268  0.4722
12029TIP3    H157578   3.164   3.840  17.120 -0.6259  0.2474 -0.4863
12029TIP3    H257579   3.273   3.745  17.075  0.6674  1.4077  0.1328
12030TIP3   OH257580   1.946   2.894  16.125 -0.4104 -0.5095 -0.4111
12030TIP3    H157581   1.944   2.886  16.030  0.4067 -3.1757 -0.2609
12030TIP3    H257582   2.025   2.946  16.143 -1.1802  0.9553 -1.2086
12031TIP3   OH257583   3.423   5.597   5.525 -0.2103  0.3472 -0.1777
12031TIP3    H157584   3.366   5.551   5.587 -0.2166  2.2730  1.3211
12031TIP3    H257585   3.364   5.634   5.460 -0.3009 -0.8649 -0.7884
12032TIP3   OH257586   4.355   3.156  13.543  0.9122  0.5464  0.0861
12032TIP3    H157587   4.283   3.172  13.481  0.2120 -0.1202  0.7051
12032TIP3    H257588   4.431   3.139  13.488  0.4215  0.5308 -0.5947
12033TIP3   OH257589   5.871   0.423   3.531 -0.2620 -0.5065 -0.6698
12033TIP3    H157590   5.822   0.478   3.470  0.4293  0.1885 -0.5970
12033TIP3    H257591   5.933   0.375   3.476  2.5779  2.4495 -0.2252
12034TIP3   OH257592   0.119   5.945   4.544 -0.1018 -0.0427 -0.2748
12034TIP3    H157593   0.052   6.002   4.583 -0.3490 -0.2349 -0.4207
12034TIP3    H257594   0.110   5.958   4.450 -1.1370 -1.4278 -0.3809
12035TIP3   OH257595   6.236   2.006  15.639  0.8681 -0.3908 -0.0926
12035TIP3    H157596   6.169   2.032  15.702  0.5153  1.2675 -1.1259
12035TIP3    H257597   6.243   1.911  15.649 -1.7060 -0.6031 -0.0169
12036TIP3   OH257598   3.723   0.708  15.268  0.3602 -0.2864  0.6951
12036TIP3    H157599   3.764   0.649  15.204 -1.1050  0.1972 -0.7319
12036TIP3    H257600   3.724   0.794  15.226  1.5609  0.5479  2.3508
12037TIP3   OH257601   6.708   5.611  11.010 -0.3017 -0.2584 -0.4734
12037TIP3    H157602   6.707   5.672  10.936  0.2134  0.6300  0.2308
12037TIP3    H257603   6.799   5.612  11.040 -0.6294 -0.1472  0.5399
12038TIP3   OH257604   1.374   1.169  12.741 -0.4593  0.2348  0.2211
12038TIP3    H157605   1.288   1.139  12.711 -0.2132 -0.0860 -0.1753
12038TIP3    H257606   1.435   1.136  12.674 -0.2972  2.4474 -0.7518
12039TIP3   OH257607   6.347   1.788  14.536  0.4194 -0.3738  0.3968
12039TIP3    H157608   6.351   1.881  14.558  0.2891  0.1567 -1.6987
12039TIP3    H257609   6.439   1.761  14.532  0.4586 -0.3314  0.9649
12040TIP3   OH257610   4.783   5.226   3.598 -0.3369 -0.5201  0.6872
12040TIP3    H157611   4.795   5.248   3.691  1.0038  0.0195  0.4023
12040TIP3    H257612   4.793   5.309   3.552 -0.1887 -0.9187 -0.0041
12041TIP3   OH257613   3.504   3.825  16.756 -0.2478  0.2079 -0.1273
12041TIP3    H157614   3.414   3.802  16.729  0.8880 -1.8476 -2.3781
12041TIP3    H257615   3.498   3.835  16.851 -2.7706 -0.4180 -0.1714
12042TIP3   OH257616   3.091   2.668  12.880 -0.0754 -0.0172 -0.2488
12042TIP3    H157617   3.021   2.734  12.885 -0.4368 -0.4009 -0.2376
12042TIP3    H257618   3.111   2.648  12.971 -1.6687 -1.7223 -0.2534
12043TIP3   OH257619   4.141   5.428  11.653 -0.7911 -0.0841 -0.1354
12043TIP3    H157620   4.065   5.484  11.668 -0.0505  1.4889 -2.1397
12043TIP3    H257621   4.206   5.457  11.716 -1.1491 -0.1317  0.2602
12044TIP3   OH257622   5.383   3.227  10.795  0.7369 -0.4989  0.0369
12044TIP3    H157623   5.370   3.320  10.777  0.1365 -0.5369  0.2717
12044TIP3    H257624   5.326   3.209  10.870  1.5076 -0.8542  0.5456
12045TIP3   OH257625   5.812   5.644  11.201  0.5385 -0.2294  0.2019
12045TIP3    H157626   5.905   5.635  11.222  0.6226  0.4396  0.1501
12045TIP3    H257627   5.768   5.643  11.286  0.5009 -1.4440  0.1781
12046TIP3   OH257628   0.888   6.575  10.885 -0.1488 -0.0935 -0.2933
12046TIP3    H157629   0.882   6.591  10.791  0.1303 -1.1556 -0.5033
12046TIP3    H257630   0.954   6.637  10.917  0.8358 -0.7474 -1.0536
12047TIP3   OH257631   6.685   6.338   0.011 -0.0456  0.3180 -0.6338
12047TIP3    H157632   6.750   6.408   0.015  0.3653 -0.1282  0.7295
12047TIP3    H257633   6.621   6.360   0.078 -1.8685  1.2815 -2.6422
12048TIP3   OH257634   5.940   1.797   1.946  0.4571  0.3938  0.7769
12048TIP3    H157635   5.893   1.718   1.974 -0.0834 -0.0093 -1.1829
12048TIP3    H257636   5.932   1.857   2.019  0.9653 -1.4042  2.3536
12049TIP3   OH257637   3.100   4.671  12.143 -0.3255  0.1803 -0.6342
12049TIP3    H157638   3.190   4.637  12.148 -0.0143  1.0255 -0.3021
12049TIP3    H257639   3.094   4.731  12.218 -1.3863 -0.3770 -0.2651
12050TIP3   OH257640   0.348   4.018  12.241 -0.0935 -0.0539  0.4709
12050TIP3    H157641   0.378   4.003  12.151 -1.4007  1.2262 -0.1859
12050TIP3    H257642   0.421   3.988  12.295  1.5643  1.0766 -1.0709
12051TIP3   OH257643   5.704   5.989  13.794  0.1970  0.0921  0.1407
12051TIP3    H157644   5.725   5.912  13.847  0.1619  0.4935  0.7429
12051TIP3    H257645   5.611   5.981  13.775  0.4939 -0.7580 -1.0167
12052TIP3   OH257646   6.765   4.028  10.853 -0.1628 -0.0243 -0.1913
12052TIP3    H157647   6.849   4.072  10.837  0.6077 -1.4806 -0.2345
12052TIP3    H257648   6.710   4.095  10.893  0.9398  1.0256 -0.4162
12053TIP3   OH257649   6.662   4.040   1.570 -0.7426  0.1241  0.1281
12053TIP3    H157650   6.569   4.021   1.582 -1.5186  1.8317 -2.7828
12053TIP3    H257651   6.680   4.017   1.479  1.4415  0.7669  0.3730
12054TIP3   OH257652   1.439   6.492  16.251 -0.5112 -0.2640 -0.0020
12054TIP3    H157653   1.408   6.564  16.307  0.3928  1.3786 -1.5331
12054TIP3    H257654   1.502   6.445  16.305 -1.4627 -0.1917  1.1888
12055TIP3   OH257655   5.470   4.752   4.353  0.4195 -0.4654 -0.3399
12055TIP3    H157656   5.490   4.659   4.363 -2.7313 -0.9959  1.7224
12055TIP3    H257657   5.502   4.792   4.434  0.7131  0.0595 -0.7145
12056TIP3   OH257658   6.631   3.131  12.525 -0.3261 -0.1594 -0.1810
12056TIP3    H157659   6.678   3.093  12.599 -0.0157  0.0119 -0.2913
12056TIP3    H257660   6.645   3.225  12.533 -1.9369  0.0207  0.6666
12057TIP3   OH257661   2.263   0.950  16.891 -0.4996  0.3512  0.0257
12057TIP3    H157662   2.240   1.032  16.846  0.2452  1.0412  0.8872
12057TIP3    H257663   2.261   0.972  16.984 -0.9721 -0.7947  0.2943
12058TIP3   OH257664   2.991   0.716  13.079 -0.4023 -0.0932 -0.4881
12058TIP3    H157665   2.931   0.790  13.090  0.0316  0.5210 -2.1381
12058TIP3    H257666   2.958   0.670  13.001  0.9936 -0.0084 -1.1413
12059TIP3   OH257667   0.715   0.032  12.078 -0.1368  0.3786  0.2249
12059TIP3    H157668   0.775   0.061  12.146  2.6158 -1.1282 -1.4734
12059TIP3    H257669   0.680  -0.052  12.110 -0.0333  0.4281  0.4630
12060TIP3   OH257670   2.194   6.406  12.811  0.1726  0.1638  0.0725
12060TIP3    H157671   2.270   6.419  12.867 -0.1880  1.8769  0.1848
12060TIP3    H257672   2.229   6.371  12.729  1.3665  3.0419 -0.7075
12061TIP3   OH257673   1.317   5.290   0.836 -0.1879  0.4539  0.2332
12061TIP3    H157674   1.377   5.220   0.859 -0.7310 -1.0644 -2.7216
12061TIP3    H257675   1.373   5.359   0.801 -0.0340 -0.3723 -1.1647
12062TIP3   OH257676   6.012   5.886   3.372  0.7506  0.4106  0.1424
12062TIP3    H157677   5.992   5.825   3.443 -0.1459 -0.0220 -0.4715
12062TIP3    H257678   6.065   5.833   3.311  1.2514  0.6914  0.3279
12063TIP3   OH257679   2.178   0.936  15.860 -0.0921  0.2775 -0.0928
12063TIP3    H157680   2.171   1.027  15.831  2.9698  2.0502  4.2241
12063TIP3    H257681   2.114   0.929  15.932 -1.2726 -1.4116 -1.2720
12064TIP3   OH257682   3.222   0.261  16.123 -0.0529 -0.6013 -0.3606
12064TIP3    H157683   3.134   0.286  16.093  0.3954  3.6828  1.5434
12064TIP3    H257684   3.279   0.284  16.050 -0.0340  0.7631  0.0804
12065TIP3   OH257685   0.362   2.151   6.564 -0.6158 -0.3944  0.2210
12065TIP3    H157686   0.436   2.179   6.618 -0.0710  0.1367 -0.7865
12065TIP3    H257687   0.368   2.055   6.563 -0.3690 -0.3869  0.7357
12066TIP3   OH257688   2.678   1.890   6.367  0.5859  0.4007  0.2260
12066TIP3    H157689   2.726   1.968   6.338 -0.7845  1.3866  0.5468
12066TIP3    H257690   2.669   1.902   6.462 -0.2038  0.1871  0.1806
12067TIP3   OH257691   4.042   5.038   4.512 -0.1194  0.1216  0.0655
12067TIP3    H157692   4.100   5.050   4.587  0.3416 -1.0978 -0.0793
12067TIP3    H257693   3.972   5.102   4.525  0.6989  0.8861  0.7880
12068TIP3   OH257694   2.016   4.072   2.505 -0.5363 -0.4361  0.3938
12068TIP3    H157695   1.980   3.993   2.465  1.0447  0.4222 -2.8726
12068TIP3    H257696   2.099   4.087   2.459  0.3074  1.8602  2.5351
12069TIP3   OH257697   3.533   0.877  13.700 -0.3822 -0.4786  0.5961
12069TIP3    H157698   3.489   0.958  13.677  0.4124 -0.5549 -1.3218
12069TIP3    H257699   3.476   0.808  13.665 -0.2229 -0.6771  0.7279
12070TIP3   OH257700   6.655   2.768   3.411 -0.2763  0.0878  0.1977
12070TIP3    H157701   6.577   2.729   3.449  0.1004 -1.9336 -0.9953
12070TIP3    H257702   6.727   2.736   3.466 -0.2515  1.7726  1.1709
12071TIP3   OH257703   4.539   5.694   2.621  0.3583 -0.0629 -0.1756
12071TIP3    H157704   4.523   5.645   2.541 -2.5636  2.2987 -1.1224
12071TIP3    H257705   4.602   5.762   2.596  0.0949  0.1465 -0.2761
12072TIP3   OH257706   1.281   2.769   6.129  0.0257 -0.0939  0.2854
12072TIP3    H157707   1.326   2.835   6.076 -1.3696  0.7260  0.0951
12072TIP3    H257708   1.196   2.809   6.150  0.1235 -0.8714  2.1993
12073TIP3   OH257709   6.514   3.172  14.966 -0.1096 -0.1744 -0.1524
12073TIP3    H157710   6.437   3.207  15.009  0.6895  0.4216  0.8094
12073TIP3    H257711   6.581   3.240  14.977 -0.2218  0.5252 -3.3356
12074TIP3   OH257712   2.974   4.353   1.025 -0.4093  0.1479  0.2755
12074TIP3    H157713   2.956   4.387   0.937 -2.6567 -0.7257  0.3727
12074TIP3    H257714   2.930   4.414   1.084  0.6550  0.4367  0.7855
12075TIP3   OH257715   3.063   6.298  14.843 -0.0727  0.0306 -0.3135
12075TIP3    H157716   3.108   6.213  14.842  2.0016  1.0785 -0.0773
12075TIP3    H257717   3.036   6.313  14.753 -1.2348 -1.2696 -0.1950
12076TIP3   OH257718   1.878   5.173   6.257  0.7556  0.1775  0.3592
12076TIP3    H157719   1.923   5.131   6.330 -1.7811  0.2663  2.0186
12076TIP3    H257720   1.829   5.102   6.215 -2.6046  1.1125  2.4629
12077TIP3   OH257721   2.169   4.149   4.035  0.3660  0.2404 -0.5883
12077TIP3    H157722   2.253   4.106   4.023 -0.3374 -1.7738  1.3168
12077TIP3    H257723   2.141   4.124   4.123 -2.0375  1.1980 -1.0202
12078TIP3   OH257724   4.610   0.759   2.066 -0.1789  0.4037 -0.1980
12078TIP3    H157725   4.515   0.746   2.067  0.0777 -1.6035 -0.4829
12078TIP3    H257726   4.643   0.688   2.010  1.6409 -0.0573  1.4336
12079TIP3   OH257727   2.212   0.522  13.808 -0.0969 -0.8061  0.6128
12079TIP3    H157728   2.240   0.435  13.778  0.6586 -0.1129 -0.7486
12079TIP3    H257729   2.291   0.576  13.798 -1.5157  0.8680 -1.9545
12080TIP3   OH257730   0.750   4.389  17.097 -0.1734 -0.1146  0.0618
12080TIP3    H157731   0.824   4.434  17.055  0.5209  0.1825  1.5881
12080TIP3    H257732   0.679   4.395  17.033 -0.0087  2.8507  0.1192
12081TIP3   OH257733   3.329   4.587   2.198 -0.2470  0.3660 -0.0764
12081TIP3    H157734   3.400   4.647   2.175 -0.2130  0.2527 -0.2729
12081TIP3    H257735   3.366   4.500   2.182 -0.2556  0.2889  0.3239
12082TIP3   OH257736   2.499   1.847   2.539  0.1061 -0.0230  0.4242
12082TIP3    H157737   2.544   1.887   2.613 -1.5773  0.6568  1.0947
12082TIP3    H257738   2.437   1.786   2.579 -0.9570  0.4977 -0.4029
12083TIP3   OH257739   5.897   2.699  12.233  0.3932 -0.1264  0.2608
12083TIP3    H157740   5.883   2.765  12.300  0.7703 -0.7723  0.9820
12083TIP3    H257741   5.893   2.615  12.279  0.4371 -0.5874 -0.5507
12084TIP3   OH257742   4.354   2.418  16.059  0.4165 -0.2741  0.0575
12084TIP3    H157743   4.388   2.495  16.104 -2.6811  0.3072  1.5235
12084TIP3    H257744   4.357   2.348  16.124 -1.1754 -0.1973  0.2353
12085TIP3   OH257745   4.380   6.463   4.196 -0.4608 -0.4441 -0.0898
12085TIP3    H157746   4.395   6.430   4.285  0.2855  0.4033  0.1061
12085TIP3    H257747   4.289   6.439   4.177  1.1603 -6.1654 -1.5103
12086TIP3   OH257748   4.650   2.423   4.669 -0.4514 -0.4304 -0.0887
12086TIP3    H157749   4.630   2.439   4.761  0.6521 -0.5544  0.1795
12086TIP3    H257750   4.647   2.328   4.661 -0.2386 -0.4358 -0.1070
12087TIP3   OH257751   1.243   4.638   5.009  0.2371  0.0992  0.0080
12087TIP3    H157752   1.171   4.618   5.069  0.2019  2.8442  0.9454
12087TIP3    H257753   1.254   4.557   4.958 -0.3266 -2.0075  3.0505
12088TIP3   OH257754   1.150   1.093   3.047 -0.3988 -0.5415 -0.0294
12088TIP3    H157755   1.193   1.099   2.962 -0.0834 -1.5588  0.0503
12088TIP3    H257756   1.220   1.111   3.110 -0.7718  0.8401 -0.0042
12089TIP3   OH257757   4.596   6.512  11.632 -0.4123 -0.0696  0.4269
12089TIP3    H157758   4.560   6.551  11.712  0.3065 -1.2089  1.3233
12089TIP3    H257759   4.555   6.426  11.627  0.7999 -0.6541  0.4732
12090TIP3   OH257760   3.284   4.385   4.335  0.6249 -0.7224 -0.5279
12090TIP3    H157761   3.190   4.405   4.338  0.1846 -2.6868 -0.8600
12090TIP3    H257762   3.321   4.438   4.406 -1.0014 -1.3070  0.7919
12091TIP3   OH257763   1.614   3.549  12.116  0.2001  0.1820 -0.2457
12091TIP3    H157764   1.621   3.497  12.036 -1.8342 -0.7722  0.1710
12091TIP3    H257765   1.576   3.632  12.087 -0.9929 -0.3429 -0.2205
12092TIP3   OH257766   4.900   6.664   4.613 -0.6923  0.1223  0.2657
12092TIP3    H157767   4.871   6.690   4.526 -2.5446 -0.0666  0.8069
12092TIP3    H257768   4.977   6.718   4.629  1.1256 -1.5328 -2.4381
12093TIP3   OH257769   5.613   6.279   4.327  0.2241 -0.2228 -0.4255
12093TIP3    H157770   5.553   6.344   4.364  1.9634  1.7519 -0.9544
12093TIP3    H257771   5.608   6.205   4.388 -1.7685  0.3925  0.2187
12094TIP3   OH257772   0.817   1.787  14.719  0.4600  0.1512  0.1563
12094TIP3    H157773   0.845   1.697  14.703  1.0732  0.4219 -0.2852
12094TIP3    H257774   0.889   1.841  14.687 -0.3229  0.8272 -0.4789
12095TIP3   OH257775   0.820   5.523  14.889  0.1642  0.7274 -0.0972
12095TIP3    H157776   0.882   5.583  14.847 -0.6788  1.9268  0.3184
12095TIP3    H257777   0.843   5.437  14.856  0.9149  1.3824 -1.3123
12096TIP3   OH257778   4.931   6.381  16.345 -0.3548  0.2904  0.4504
12096TIP3    H157779   4.905   6.310  16.286  0.4360 -0.4725  1.0101
12096TIP3    H257780   4.859   6.388  16.408 -0.4324 -0.0097  0.3925
12097TIP3   OH257781   2.538   2.735  12.478  0.2533  0.0022 -0.1054
12097TIP3    H157782   2.605   2.673  12.507 -0.4338 -0.9924 -0.5813
12097TIP3    H257783   2.500   2.694  12.400 -0.5831  0.7640 -0.1094
12098TIP3   OH257784   3.049   4.019  17.209 -0.0530 -1.0612 -0.3344
12098TIP3    H157785   3.138   4.052  17.220  0.4919 -2.8340  0.7332
12098TIP3    H257786   3.005   4.086  17.157  1.4519  0.6050  0.4852
12099TIP3   OH257787   2.277   1.698   2.576  0.5040  0.0175  0.1959
12099TIP3    H157788   2.249   1.684   2.485  1.0948  0.8821 -0.1276
12099TIP3    H257789   2.221   1.640   2.627  0.1481 -0.4647 -0.7204
12100TIP3   OH257790   4.585   2.635  12.133 -0.3078  0.6168 -0.4459
12100TIP3    H157791   4.490   2.637  12.145 -0.2218  0.2222  0.3132
12100TIP3    H257792   4.620   2.692  12.201  0.0664 -0.1014 -0.0331
12101TIP3   OH257793   0.820   6.429  15.707 -0.2419  0.1943 -0.1323
12101TIP3    H157794   0.878   6.354  15.725 -0.2586  0.6173  1.8124
12101TIP3    H257795   0.778   6.407  15.623  0.0868 -1.7717  0.1804
12102TIP3   OH257796   4.277   5.502  12.290 -0.1824 -0.3203  0.0085
12102TIP3    H157797   4.326   5.531  12.213 -0.4482  2.1224  0.7141
12102TIP3    H257798   4.203   5.453  12.254 -0.4609  1.0333 -1.3253
12103TIP3   OH257799   0.253   4.594  16.412 -0.4600  0.2344 -0.1033
12103TIP3    H157800   0.200   4.612  16.334  0.7523  1.0635 -0.7605
12103TIP3    H257801   0.198   4.619  16.486 -1.6143 -0.5298 -0.6951
12104TIP3   OH257802   3.843   1.576  15.286  0.6469 -0.2056 -0.1549
12104TIP3    H157803   3.884   1.661  15.267  0.9027 -0.4781 -0.8220
12104TIP3    H257804   3.901   1.535  15.350 -0.7076  1.1135  2.0192
12105TIP3   OH257805   5.989   1.432  12.948 -0.1700  0.1404 -0.1065
12105TIP3    H157806   6.063   1.449  12.889 -1.0830  1.5700 -0.8694
12105TIP3    H257807   5.952   1.349  12.917  0.8643 -0.3769  0.0300
12106TIP3   OH257808   2.003   4.930   4.284 -0.5035  0.1476 -0.2860
12106TIP3    H157809   1.994   4.899   4.374 -0.7378 -0.0456 -0.3753
12106TIP3    H257810   2.010   4.850   4.232 -0.9260  0.2487 -0.4974
12107TIP3   OH257811   6.346   3.013   1.082 -0.0725  0.6244  0.5387
12107TIP3    H157812   6.332   3.025   0.988  0.2911  2.6562  0.7182
12107TIP3    H257813   6.268   3.051   1.123 -0.3364 -0.4562  1.0456
12108TIP3   OH257814   4.374   1.194  14.436 -0.5439  0.3108  0.1930
12108TIP3    H157815   4.428   1.263  14.398 -0.9234  1.6987  2.0643
12108TIP3    H257816   4.293   1.238  14.461  0.1465 -0.1919  3.6616
12109TIP3   OH257817   2.763   0.545   4.440  0.6639 -0.0061  0.3110
12109TIP3    H157818   2.717   0.464   4.464 -0.9385  0.4369 -1.1439
12109TIP3    H257819   2.777   0.538   4.346 -0.5693  1.9165 -0.0503
12110TIP3   OH257820   1.423   2.784  13.318 -0.3231  0.0036 -0.1671
12110TIP3    H157821   1.425   2.817  13.228  1.8939  2.7935  0.8180
12110TIP3    H257822   1.453   2.694  13.312  0.0760  0.2562 -2.1759
12111TIP3   OH257823   2.245   5.848   5.070  0.2765  0.1439 -0.1817
12111TIP3    H157824   2.226   5.925   5.123 -2.3002 -0.1500 -0.6124
12111TIP3    H257825   2.212   5.775   5.122  0.8092 -0.4644 -0.6930
12112TIP3   OH257826   3.840   6.113   0.642 -0.5885  0.0072  0.3638
12112TIP3    H157827   3.837   6.124   0.546 -1.4074  0.1514  0.4072
12112TIP3    H257828   3.862   6.021   0.654 -2.0423 -0.3848  0.0423
12113TIP3   OH257829   4.644   5.655   1.481 -0.0277  0.2320  0.2909
12113TIP3    H157830   4.728   5.612   1.495 -0.2257  0.0710  0.9961
12113TIP3    H257831   4.602   5.605   1.411  0.1494 -0.1368  0.4500
12114TIP3   OH257832   2.348   5.373  12.937  0.3857  0.3339  0.1621
12114TIP3    H157833   2.363   5.388  13.030  1.2171 -0.0651  0.0998
12114TIP3    H257834   2.277   5.309  12.934 -0.8324  1.6493  0.4842
12115TIP3   OH257835   4.581   6.809   5.211 -0.2614  0.1183  0.0520
12115TIP3    H157836   4.513   6.752   5.247 -0.1877  0.2669  0.4234
12115TIP3    H257837   4.640   6.749   5.164 -1.1050  0.0855 -0.9803
12116TIP3   OH257838   0.376   1.615   1.187 -0.2458  0.6129  0.2750
12116TIP3    H157839   0.306   1.638   1.125 -0.1387  1.8213  0.5743
12116TIP3    H257840   0.366   1.521   1.201 -1.9070  0.7792  0.4012
12117TIP3   OH257841   0.718   3.284   2.687 -0.6627 -0.0940 -0.1952
12117TIP3    H157842   0.647   3.259   2.627  0.4316 -1.3154 -1.0167
12117TIP3    H257843   0.681   3.355   2.739 -1.3405  1.6405 -2.9377
12118TIP3   OH257844   4.022   1.015   4.117  0.3657  0.6074  0.1181
12118TIP3    H157845   4.062   1.057   4.041  2.0654  1.1734  1.2956
12118TIP3    H257846   4.089   0.954   4.148  0.2018  1.3083  1.9119
12119TIP3   OH257847   5.880   0.428   4.945 -0.1511 -0.0430 -0.7606
12119TIP3    H157848   5.883   0.379   5.027 -0.9904  0.6454 -0.3197
12119TIP3    H257849   5.872   0.520   4.972  0.6196  0.2802 -1.5938
12120TIP3   OH257850   3.938   3.414  13.288 -0.2984  0.1857  0.0769
12120TIP3    H157851   3.872   3.417  13.218  0.0610  0.3681 -0.2573
12120TIP3    H257852   3.998   3.485  13.267 -1.1797  1.3984  1.5802
12121TIP3   OH257853   4.390   4.684   1.094 -0.1073 -0.2366 -0.8421
12121TIP3    H157854   4.366   4.637   1.014 -2.8707 -0.0784 -0.1537
12121TIP3    H257855   4.357   4.772   1.081 -1.1087 -0.3649  0.7198
12122TIP3   OH257856   1.412   3.793   5.505  0.4023  0.0469  0.9753
12122TIP3    H157857   1.472   3.850   5.554  0.0826  1.7328 -0.5404
12122TIP3    H257858   1.464   3.716   5.483  2.2588  1.7873 -0.9011
12123TIP3   OH257859   1.285   1.930   3.220 -0.0561  0.6707 -0.0167
12123TIP3    H157860   1.277   1.964   3.130  0.0219  1.3154  0.2218
12123TIP3    H257861   1.201   1.951   3.261 -0.6430 -0.9184 -0.3774
12124TIP3   OH257862   4.593   6.013  15.465  0.0575  0.1547 -0.4524
12124TIP3    H157863   4.682   6.004  15.500 -0.3207  2.7451  1.3078
12124TIP3    H257864   4.602   6.077  15.394 -0.2583 -0.3282 -0.9353
12125TIP3   OH257865   1.734   5.851  14.378 -0.1971 -0.3337 -0.1335
12125TIP3    H157866   1.795   5.777  14.376 -1.7901 -1.7790  1.7317
12125TIP3    H257867   1.693   5.850  14.291  1.1067 -0.4800 -0.7635
12126TIP3   OH257868   5.984   5.024  14.999  0.4546 -0.2552  0.0500
12126TIP3    H157869   5.981   4.963  15.072 -0.5544  1.8664  1.8284
12126TIP3    H257870   6.065   5.073  15.012 -0.5292  1.2308  0.6914
12127TIP3   OH257871   4.633   5.570  14.283  0.3034 -0.1027  0.4670
12127TIP3    H157872   4.542   5.540  14.285 -0.0431  0.8588 -0.3405
12127TIP3    H257873   4.640   5.622  14.203  1.8108 -0.9323  0.0413
12128TIP3   OH257874   4.650   0.621  16.016  0.2649 -0.7816  0.9162
12128TIP3    H157875   4.602   0.538  16.014 -0.1430 -0.5295 -0.9281
12128TIP3    H257876   4.710   0.615  15.942 -0.6213  1.0418  0.0048
12129TIP3   OH257877   0.000   4.435   2.079 -0.5946  0.4677  0.0095
12129TIP3    H157878  -0.004   4.385   1.997  0.5985  1.0229 -0.3994
12129TIP3    H257879   0.073   4.396   2.127 -1.5830 -0.1681  1.0409
12130TIP3   OH257880   3.824   0.617   5.523 -0.3557 -0.2080  0.0505
12130TIP3    H157881   3.915   0.591   5.538  0.7197  1.6803 -2.6868
12130TIP3    H257882   3.790   0.552   5.462 -0.9273 -1.0287  1.2306
12131TIP3   OH257883   3.188   0.802  10.746 -0.0052  0.1259 -0.9069
12131TIP3    H157884   3.095   0.824  10.735 -0.2323 -0.4853 -0.2125
12131TIP3    H257885   3.191   0.707  10.750  0.8564  0.0522 -2.6610
12132TIP3   OH257886   0.605   4.838  15.143  0.2235  0.3482  0.3349
12132TIP3    H157887   0.610   4.893  15.221  2.6233  1.7564 -0.7579
12132TIP3    H257888   0.557   4.760  15.171 -1.2647  1.9771  2.5102
12133TIP3   OH257889   3.699   5.456   6.134  0.4264  0.7378  0.5695
12133TIP3    H157890   3.635   5.525   6.154 -0.3413  0.1476  0.2171
12133TIP3    H257891   3.649   5.392   6.083  0.8058 -0.6930  1.9701
12134TIP3   OH257892   3.161   3.435   3.887 -0.2357 -0.5643  0.3037
12134TIP3    H157893   3.183   3.481   3.805  0.3501  1.1130  1.3833
12134TIP3    H257894   3.189   3.345   3.871  1.2582  0.0635 -0.8253
12135TIP3   OH257895   2.021   3.835  12.661  0.3022 -0.4107 -0.6937
12135TIP3    H157896   2.073   3.803  12.587  2.0037  0.3002  0.1635
12135TIP3    H257897   1.990   3.921  12.634  1.8501  0.3345 -0.2003
12136TIP3   OH257898   5.566   3.472   2.288 -0.0625  0.0238  0.2534
12136TIP3    H157899   5.505   3.400   2.300 -1.7238  1.3251 -0.2531
12136TIP3    H257900   5.543   3.536   2.356  1.8307 -0.1903  1.1347
12137TIP3   OH257901   6.065   5.663   3.967 -0.1167 -0.4522 -0.2873
12137TIP3    H157902   6.052   5.602   3.894 -0.8100 -0.0634 -0.4978
12137TIP3    H257903   6.154   5.697   3.955  0.3447 -1.5671 -0.0507
12138TIP3   OH257904   3.425   1.592  13.313  0.3587 -0.0625 -0.0802
12138TIP3    H157905   3.402   1.523  13.375  0.2919 -0.4821 -0.5693
12138TIP3    H257906   3.342   1.635  13.292  0.4969  0.6692  0.8026
12139TIP3   OH257907   1.015   1.844  14.518 -0.3692  0.1782 -0.1269
12139TIP3    H157908   1.094   1.818  14.470 -1.0322 -0.6057 -0.8003
12139TIP3    H257909   1.002   1.936  14.495  0.5704  0.4258  0.3016
12140TIP3   OH257910   1.777   0.630  14.240 -0.0518  0.4667  0.6467
12140TIP3    H157911   1.828   0.686  14.180  0.0538 -0.1066  0.1944
12140TIP3    H257912   1.754   0.554  14.187 -0.7355  0.3691  1.0762
12141TIP3   OH257913   5.401   5.200  12.022 -0.0840 -0.3577 -0.0731
12141TIP3    H157914   5.406   5.105  12.039  1.7697 -0.2336  0.1267
12141TIP3    H257915   5.436   5.211  11.934  1.8225  0.3856  0.7597
12142TIP3   OH257916   5.683   5.215  10.535 -0.7570  0.0695 -0.7071
12142TIP3    H157917   5.736   5.143  10.570 -1.5327 -0.2032 -0.0983
12142TIP3    H257918   5.748   5.283  10.512 -0.1282 -0.3219 -0.1154
12143TIP3   OH257919   6.686   0.123  16.617 -0.2582  0.1879  0.2513
12143TIP3    H157920   6.731   0.097  16.537 -0.4651  1.2914 -0.2238
12143TIP3    H257921   6.595   0.095  16.604 -0.3542  0.6274 -0.0168
12144TIP3   OH257922   1.544   3.501  17.083  0.6941  0.3700 -0.1091
12144TIP3    H157923   1.482   3.443  17.039  0.5917 -0.3460  0.9472
12144TIP3    H257924   1.566   3.567  17.018 -1.6131  0.9543 -0.3279
12145TIP3   OH257925   5.058   0.301  10.250 -0.5916  0.0881  0.6609
12145TIP3    H157926   5.024   0.271  10.165 -0.6772 -1.9718  1.3948
12145TIP3    H257927   5.044   0.395  10.249 -0.1820  0.1578 -1.8065
12146TIP3   OH257928   2.062   2.278  13.973  0.6109  0.1105  0.3167
12146TIP3    H157929   2.006   2.264  14.050  0.6574 -0.7562  0.2020
12146TIP3    H257930   2.003   2.312  13.906  0.1750 -0.9613  0.1437
12147TIP3   OH257931   2.721   0.787   0.536 -0.0712  0.0793 -0.4820
12147TIP3    H157932   2.730   0.779   0.631 -1.9514 -1.7150 -0.4129
12147TIP3    H257933   2.758   0.705   0.502 -2.0353 -0.5728 -1.0945
12148TIP3   OH257934   1.411   5.358   2.355  0.5553 -0.0355 -0.1601
12148TIP3    H157935   1.318   5.355   2.336  0.7882 -1.0809 -1.1974
12148TIP3    H257936   1.424   5.440   2.402 -0.6774  0.7052 -1.0949
12149TIP3   OH257937   1.187   1.035   3.488  0.5377 -0.4427 -0.0087
12149TIP3    H157938   1.241   0.994   3.555  1.4624 -1.9906 -1.6577
12149TIP3    H257939   1.098   1.032   3.523  0.7170 -3.0854  0.3077
12150TIP3   OH257940   6.716   0.870  14.736 -0.1727 -0.2408  0.1704
12150TIP3    H157941   6.807   0.840  14.733 -0.8279 -2.1389 -0.6083
12150TIP3    H257942   6.702   0.891  14.829  1.1679  0.4792  0.2336
12151TIP3   OH257943   4.324   0.282   5.370 -0.2136  0.0958 -0.3975
12151TIP3    H157944   4.418   0.290   5.354 -0.0815 -1.4899 -0.4763
12151TIP3    H257945   4.293   0.373   5.377  1.1471  0.6453 -1.3359
12152TIP3   OH257946   2.755   2.381   4.677 -0.3553 -0.3275  0.0521
12152TIP3    H157947   2.781   2.371   4.769  0.6290 -1.5477 -0.3537
12152TIP3    H257948   2.807   2.455   4.645  0.6591 -1.0597 -0.0171
12153TIP3   OH257949   2.680   4.501   5.878  0.6636  0.0943  0.0669
12153TIP3    H157950   2.593   4.460   5.881  0.6291  0.0336 -1.3911
12153TIP3    H257951   2.738   4.436   5.918  0.2167 -0.3523 -0.0038
12154TIP3   OH257952   0.842   4.053   1.878  0.0550  0.3159  0.7199
12154TIP3    H157953   0.905   4.004   1.825 -0.9916  0.6343 -0.8827
12154TIP3    H257954   0.869   4.144   1.869 -1.6062  0.6521 -1.4431
12155TIP3   OH257955   5.578   4.127   1.027  0.1273 -0.2824  0.0500
12155TIP3    H157956   5.585   4.038   0.992 -1.1954 -0.5885  0.5447
12155TIP3    H257957   5.586   4.183   0.950  0.9480 -0.8220 -0.2672
12156TIP3   OH257958   2.467   3.522  13.193  0.4249  0.2681  0.4839
12156TIP3    H157959   2.387   3.491  13.236  0.7140 -1.3388 -0.1042
12156TIP3    H257960   2.437   3.565  13.113  0.0823  0.7154  0.8501
12157TIP3   OH257961   6.299   2.625   3.569 -0.0279 -0.1665  0.5070
12157TIP3    H157962   6.259   2.612   3.483 -0.2333  1.5909  0.3170
12157TIP3    H257963   6.231   2.668   3.621  1.3963  2.4093  0.3258
12158TIP3   OH257964   2.232   2.910   0.472  0.0544  0.1234  0.1482
12158TIP3    H157965   2.292   2.949   0.535  0.9783 -0.2940 -0.4737
12158TIP3    H257966   2.156   2.968   0.473  0.0322  0.0910  1.6838
12159TIP3   OH257967   5.675   2.458  15.464 -0.1997  0.7864  0.0335
12159TIP3    H157968   5.594   2.498  15.497 -1.2447 -3.1059  2.4874
12159TIP3    H257969   5.645   2.398  15.396  0.5673 -0.9172  1.1816
12160TIP3   OH257970   6.309   1.403   0.231 -0.1215  0.0541 -0.1564
12160TIP3    H157971   6.214   1.396   0.228 -0.2009  0.9993  0.1767
12160TIP3    H257972   6.333   1.447   0.149  0.2634 -2.5713 -1.5271
12161TIP3   OH257973   4.520   6.678  13.945  0.1818  0.3099 -1.0286
12161TIP3    H157974   4.579   6.615  13.987 -0.8766  0.5213  0.8610
12161TIP3    H257975   4.577   6.729  13.887  1.9243  0.5949  0.8333
12162TIP3   OH257976   0.015   0.262   0.671 -0.3528  0.6073  0.3842
12162TIP3    H157977   0.060   0.324   0.614  1.4547 -0.2739  0.8424
12162TIP3    H257978   0.081   0.199   0.696 -1.6944 -0.3709  1.5707
12163TIP3   OH257979   5.156   2.935   2.011  0.0625  0.0505 -0.1893
12163TIP3    H157980   5.231   2.988   2.036  0.8768 -0.9964 -0.4098
12163TIP3    H257981   5.181   2.895   1.928  0.0617 -1.8765  0.7226
12164TIP3   OH257982   4.656   6.498   3.391  0.0882  0.2346 -0.2140
12164TIP3    H157983   4.743   6.535   3.402 -0.1370  1.1641 -1.4667
12164TIP3    H257984   4.597   6.573   3.397 -0.4573 -0.0716 -1.6035
12165TIP3   OH257985   6.375   5.807  15.958  0.2850  0.2716 -0.3924
12165TIP3    H157986   6.447   5.793  15.897 -0.1653  1.2913 -1.1804
12165TIP3    H257987   6.297   5.775  15.911  0.0965  0.0037  0.0951
12166TIP3   OH257988   1.035   0.305   5.574 -0.0025 -0.0894  0.2816
12166TIP3    H157989   0.948   0.344   5.575 -0.4212 -0.9521 -1.2387
12166TIP3    H257990   1.027   0.231   5.514  2.0817  0.5274 -0.7844
12167TIP3   OH257991   6.757   2.459  17.080  0.4816 -0.3773  0.7015
12167TIP3    H157992   6.729   2.425  16.996  3.7822 -1.0123 -0.2353
12167TIP3    H257993   6.695   2.529  17.100 -0.9948 -0.9420 -1.7199
12168TIP3   OH257994   5.311   4.665   1.979  0.1007 -1.3213  0.0308
12168TIP3    H157995   5.391   4.613   1.990  0.5719 -0.5702  0.1192
12168TIP3    H257996   5.280   4.641   1.891  0.8260 -1.0631 -0.3075
12169TIP3   OH257997   6.367   1.744   0.685  0.1586 -0.1387 -0.8849
12169TIP3    H157998   6.388   1.652   0.670 -1.7256 -0.6243 -0.6381
12169TIP3    H257999   6.397   1.761   0.774  1.8352 -0.1019 -1.4408
12170TIP3   OH258000   5.830   4.909   3.416 -0.0785 -0.4359  0.6485
12170TIP3    H158001   5.898   4.976   3.412 -0.0417 -0.3766  2.0458
12170TIP3    H258002   5.869   4.833   3.373  0.3848  0.0023  0.2828
12171TIP3   OH258003   1.266   0.065  15.520 -0.0532 -0.3170 -0.2792
12171TIP3    H158004   1.235   0.111  15.442  1.3982 -1.2394 -1.4472
12171TIP3    H258005   1.186   0.030  15.560 -0.6981 -1.4174 -2.4012
12172TIP3   OH258006   4.875   5.517   3.154 -0.0365  0.0053 -0.0401
12172TIP3    H158007   4.899   5.434   3.195 -1.9108 -0.1190  0.8590
12172TIP3    H258008   4.936   5.580   3.192 -0.2987 -0.5090  1.2884
12173TIP3   OH258009   2.963   2.862   1.215  0.4592  0.1760 -0.4128
12173TIP3    H158010   2.874   2.893   1.227  0.3747  0.0059 -0.5947
12173TIP3    H258011   2.954   2.769   1.194  0.5922  0.4556 -1.7875
12174TIP3   OH258012   3.259   1.714   3.735 -1.0252 -0.1119 -0.2518
12174TIP3    H158013   3.241   1.660   3.658 -0.0822 -0.8965  0.0650
12174TIP3    H258014   3.353   1.731   3.731 -0.6116 -1.7852  1.7478
12175TIP3   OH258015   0.365   6.064   2.373 -0.6941 -0.2797  0.1678
12175TIP3    H158016   0.292   6.020   2.330 -0.3676 -1.8198  1.1610
12175TIP3    H258017   0.438   6.055   2.311 -0.5938 -1.2595  0.4217
12176TIP3   OH258018   0.172   5.371  12.703 -0.1387 -0.5505 -0.2360
12176TIP3    H158019   0.133   5.382  12.616 -1.9987 -1.0189  0.5116
12176TIP3    H258020   0.120   5.428  12.760  0.5847 -0.8212  0.7088
12177TIP3   OH258021   3.755   0.116   1.568  0.1274  0.3858  0.0402
12177TIP3    H158022   3.816   0.085   1.501  0.2740  1.2195 -0.2210
12177TIP3    H258023   3.773   0.062   1.644  1.4433  0.8665  0.0766
12178TIP3   OH258024   4.902   3.153   0.682 -0.2425  0.0651 -0.0915
12178TIP3    H158025   4.950   3.227   0.646  1.7455 -1.0585  0.1809
12178TIP3    H258026   4.848   3.191   0.752 -1.1807  1.6320 -1.6380
12179TIP3   OH258027   5.381   3.777   1.608 -0.2636  0.7339 -0.1844
12179TIP3    H158028   5.381   3.872   1.596  1.5337  1.0414  1.8680
12179TIP3    H258029   5.458   3.760   1.664  0.1516 -2.0428 -1.5060
12180TIP3   OH258030   2.829   2.712  14.876  0.2036 -0.3744 -0.1246
12180TIP3    H158031   2.862   2.625  14.854 -0.9451 -0.0372 -3.3476
12180TIP3    H258032   2.737   2.698  14.899  0.4164 -0.1884  0.8985
12181TIP3   OH258033   4.439   1.982   2.160 -0.0927  0.2766  0.4499
12181TIP3    H158034   4.364   2.040   2.172 -1.9407 -2.0515  0.5450
12181TIP3    H258035   4.510   2.023   2.210 -1.2345  2.6126  0.1966
12182TIP3   OH258036   2.554   5.816   3.859 -0.9767  0.0543 -0.1227
12182TIP3    H158037   2.526   5.743   3.914 -1.5332  1.6760  1.8183
12182TIP3    H258038   2.477   5.839   3.808 -0.9024 -0.4766 -0.4806
12183TIP3   OH258039   4.323   0.547  14.105  0.0694  0.0791  0.9304
12183TIP3    H158040   4.343   0.548  14.012 -0.6345 -0.5489  0.7762
12183TIP3    H258041   4.407   0.526  14.147 -0.0916 -1.8509  0.3171
12184TIP3   OH258042   5.962   3.075   2.636  0.2554  0.1058 -0.1920
12184TIP3    H158043   5.930   2.985   2.639 -0.6883  0.3178 -2.7501
12184TIP3    H258044   5.892   3.126   2.676  0.1716 -0.1408 -0.0201
12185TIP3   OH258045   4.841   0.709  14.219  0.5406 -0.4336  0.1030
12185TIP3    H158046   4.925   0.754  14.228  0.1615  0.5061 -0.7910
12185TIP3    H258047   4.811   0.695  14.309  0.4231  1.6443  0.4334
12186TIP3   OH258048   3.539   4.393   2.530 -0.1939  0.2630 -0.3652
12186TIP3    H158049   3.611   4.450   2.558 -1.7120  1.8409  0.4667
12186TIP3    H258050   3.467   4.453   2.510 -1.7510 -1.3296  0.2301
12187TIP3   OH258051   0.664   3.171   3.135  0.3984  0.0082  0.2537
12187TIP3    H158052   0.622   3.245   3.092  0.0390 -0.1242  0.3737
12187TIP3    H258053   0.612   3.095   3.108  0.4937 -0.1423  0.4940
12188TIP3   OH258054   0.975   6.548   2.810  0.1576  0.5039 -0.3785
12188TIP3    H158055   0.907   6.481   2.811  0.1941  0.4338 -1.4871
12188TIP3    H258056   1.056   6.501   2.830  0.0684  0.3520 -0.3771
12189TIP3   OH258057   0.334   1.546   0.526 -0.2260  0.5367 -0.1209
12189TIP3    H158058   0.386   1.554   0.447  2.8784 -1.9578  1.5347
12189TIP3    H258059   0.281   1.467   0.512 -0.5659  0.7832 -0.2145
12190TIP3   OH258060   2.206   2.975   5.558 -0.1146  0.2956 -0.1128
12190TIP3    H158061   2.118   2.995   5.590 -0.1784  0.9296 -0.6781
12190TIP3    H258062   2.259   3.050   5.586  0.2055  0.0187  0.0332
12191TIP3   OH258063   0.425   4.895  11.420 -0.3405 -0.1492 -0.5222
12191TIP3    H158064   0.501   4.923  11.470 -2.0749  0.8010  1.7094
12191TIP3    H258065   0.393   4.975  11.378 -0.5451 -0.3859 -0.8216
12192TIP3   OH258066   4.459   0.685   3.394  0.3196  0.3664 -0.2453
12192TIP3    H158067   4.498   0.767   3.426 -0.2135  0.4751  0.1291
12192TIP3    H258068   4.393   0.663   3.460  0.2939 -0.2374 -0.4730
12193TIP3   OH258069   4.019   5.789   2.321  0.4039 -0.0979 -0.1387
12193TIP3    H158070   3.967   5.818   2.396 -0.7076 -0.5532 -0.7272
12193TIP3    H258071   4.014   5.861   2.259  0.2787 -0.2442 -0.2972
12194TIP3   OH258072   0.007   5.621   2.496  0.0481  0.3666 -0.1373
12194TIP3    H158073   0.050   5.694   2.451  0.6289  0.3257  0.3451
12194TIP3    H258074  -0.043   5.662   2.566 -2.6566  0.6514 -2.1234
12195TIP3   OH258075   1.972   2.913   2.800  0.2430 -0.4877 -0.2714
12195TIP3    H158076   1.922   2.834   2.782 -0.7494  0.2235 -0.7261
12195TIP3    H258077   2.062   2.883   2.812 -0.0729 -1.6432 -0.7459
12196TIP3   OH258078   1.343   4.050   0.573  0.6236 -0.4473 -0.1012
12196TIP3    H158079   1.258   4.091   0.593  0.7252  0.4302 -1.4297
12196TIP3    H258080   1.357   3.990   0.645  0.6675  2.1571  2.1406
12197TIP3   OH258081   5.143   4.075   4.207 -0.5984  0.8124 -0.2895
12197TIP3    H158082   5.128   4.169   4.195 -0.8571  0.9511  1.0264
12197TIP3    H258083   5.106   4.056   4.294 -0.9604 -0.5926 -0.7381
12198TIP3   OH258084   1.444   4.567   0.619  0.5409 -0.1322  0.0350
12198TIP3    H158085   1.498   4.621   0.563 -0.0363  0.0639 -0.3409
12198TIP3    H258086   1.438   4.483   0.574 -1.0955  0.4703 -0.9328
12199TIP3   OH258087   3.175   5.912  12.034  0.3280 -0.1335 -0.1036
12199TIP3    H158088   3.218   5.997  12.023 -0.2181  0.0999 -0.4486
12199TIP3    H258089   3.245   5.852  12.059  0.4253  0.7975  1.8963
12200TIP3   OH258090   3.942   3.707   4.806 -0.6922 -0.1827 -0.0306
12200TIP3    H158091   3.945   3.714   4.902 -0.1835 -1.1996  0.0363
12200TIP3    H258092   4.028   3.739   4.777  0.3031 -2.6114  0.0622
12201TIP3   OH258093   6.601   4.260  11.324  0.3431  0.3290 -0.6154
12201TIP3    H158094   6.677   4.235  11.271  1.6084  1.6224  0.5238
12201TIP3    H258095   6.558   4.329  11.273  1.3287  1.2906 -0.1725
12202TIP3   OH258096   5.655   2.429   3.729 -0.7037  0.0865 -0.1291
12202TIP3    H158097   5.702   2.368   3.786 -0.5221  0.0750 -0.2916
12202TIP3    H258098   5.598   2.375   3.675 -1.3123  0.1443  0.4497
12203TIP3   OH258099   5.043   3.662   0.223 -0.0480  0.1395  0.1728
12203TIP3    H158100   4.971   3.704   0.271  1.5843  1.9294  1.1488
12203TIP3    H258101   5.052   3.714   0.143 -1.4044 -1.5814 -1.1396
12204TIP3   OH258102   6.601   3.862  12.377  0.4851 -0.1888  0.1846
12204TIP3    H158103   6.683   3.814  12.388  0.6545  0.0684  0.0286
12204TIP3    H258104   6.552   3.843  12.457  0.7808 -0.1747  0.3705
12205TIP3   OH258105   5.502   4.705   3.990  0.4050 -0.1853  0.2101
12205TIP3    H158106   5.588   4.669   4.011 -0.2052 -1.7216  0.1612
12205TIP3    H258107   5.460   4.637   3.936 -1.3361 -0.0449  1.3470
12206TIP3   OH258108   0.325   4.253  13.480 -0.1731  0.8429 -0.3087
12206TIP3    H158109   0.336   4.301  13.398 -1.7641 -0.0398 -1.0628
12206TIP3    H258110   0.371   4.305  13.545 -1.1890  2.9654 -1.2593
12207TIP3   OH258111   5.434   4.453  15.216  0.7947  0.6907 -0.1921
12207TIP3    H158112   5.452   4.521  15.281 -0.1187  0.7633 -0.0111
12207TIP3    H258113   5.516   4.444  15.168  1.6698  0.1811  1.3791
12208TIP3   OH258114   4.835   3.973   2.827  0.1484  0.1788  0.1761
12208TIP3    H158115   4.922   3.932   2.832  1.4910  3.1056  2.2664
12208TIP3    H258116   4.804   3.975   2.918 -0.9224  1.5921 -0.2065
12209TIP3   OH258117   0.582   3.200  14.157  0.0757 -0.2399 -0.4422
12209TIP3    H158118   0.552   3.288  14.182  1.6432 -0.0072  0.7353
12209TIP3    H258119   0.633   3.214  14.078 -2.3500 -0.5588 -2.1197
12210TIP3   OH258120   3.226   1.798  11.947  0.2523  0.2150  0.2007
12210TIP3    H158121   3.320   1.817  11.957  0.3336 -0.3468  0.5329
12210TIP3    H258122   3.182   1.865  11.999  0.5169 -0.2099  0.9792
12211TIP3   OH258123   3.563   3.212  17.085 -0.2965 -0.7320  0.0149
12211TIP3    H158124   3.499   3.280  17.066  1.2954  1.1745  1.2909
12211TIP3    H258125   3.629   3.219  17.016  1.5632  1.2534  1.8799
12212TIP3   OH258126   4.004   4.983  14.726 -0.8200 -0.7459 -0.4698
12212TIP3    H158127   3.996   4.964  14.633  0.2125 -1.8666 -0.3416
12212TIP3    H258128   4.090   5.023  14.736 -0.0991 -2.4202  0.2603
12213TIP3   OH258129   6.604   0.944   2.459 -0.5468 -0.1524  0.5769
12213TIP3    H158130   6.632   0.872   2.516 -2.7137 -2.2358 -0.9059
12213TIP3    H258131   6.528   0.982   2.504  0.6636  1.3667  1.4177
12214TIP3   OH258132   6.025   1.402   0.194  0.6003  0.8095 -0.0626
12214TIP3    H158133   5.994   1.489   0.166  0.5794  0.8793  0.1763
12214TIP3    H258134   5.952   1.364   0.242  1.4438  1.6643  1.9931
12215TIP3   OH258135   4.502   1.380  12.201  0.0327 -0.3422  0.2353
12215TIP3    H158136   4.590   1.415  12.218 -0.3569  2.6543 -3.3853
12215TIP3    H258137   4.507   1.343  12.113 -2.4865  0.4007 -0.2655
12216TIP3   OH258138   4.574   3.136  14.247  0.0387  0.0128 -0.1236
12216TIP3    H158139   4.596   3.055  14.202 -1.6781  0.4592 -1.8418
12216TIP3    H258140   4.540   3.194  14.178 -1.1865  1.2615  1.4682
12217TIP3   OH258141   4.155   2.328  13.262 -0.4400  0.0188  0.0068
12217TIP3    H158142   4.189   2.279  13.336  1.9057  0.6081 -0.6392
12217TIP3    H258143   4.061   2.311  13.263  0.2506 -4.3313 -0.0849
12218TIP3   OH258144   6.408   3.729   3.315 -0.5813  0.1054 -0.2441
12218TIP3    H158145   6.341   3.765   3.373 -0.2608 -1.1476  0.9307
12218TIP3    H258146   6.379   3.639   3.299  0.7854 -0.4166  0.1956
12219TIP3   OH258147   0.235   6.249   6.871  0.3641  0.5839 -0.1767
12219TIP3    H158148   0.282   6.281   6.794 -0.2854  1.3928 -0.2435
12219TIP3    H258149   0.183   6.175   6.838 -0.1619  1.1319 -0.5940
12220TIP3   OH258150   4.162   3.161   5.259  0.8165  0.0959  0.3885
12220TIP3    H158151   4.210   3.221   5.316  1.3264  1.0853 -1.0443
12220TIP3    H258152   4.115   3.219   5.198 -1.9779 -0.8489  1.5643
12221TIP3   OH258153   0.556   1.710   1.379  0.0039 -0.4571  0.1116
12221TIP3    H158154   0.500   1.693   1.303 -0.9720  0.4215  0.6246
12221TIP3    H258155   0.519   1.788   1.420 -0.2621 -1.6494  2.2324
12222TIP3   OH258156   4.570   4.405  13.050  0.1814 -0.1974  0.0579
12222TIP3    H158157   4.567   4.375  13.141  0.0373  1.8532  0.7745
12222TIP3    H258158   4.497   4.359  13.007 -1.6133  0.9815  1.7184
12223TIP3   OH258159   5.684   1.329  14.747 -0.0885  0.5301  0.0627
12223TIP3    H158160   5.649   1.317  14.659  0.8920  0.6533 -0.3561
12223TIP3    H258161   5.651   1.415  14.774 -2.0405 -0.3864  0.6232
12224TIP3   OH258162   2.664   2.294   1.899 -0.0669 -1.0752  0.2643
12224TIP3    H158163   2.707   2.269   1.981 -0.8747 -2.4462  0.2909
12224TIP3    H258164   2.635   2.211   1.861  2.2651 -0.7012 -2.5500
12225TIP3   OH258165   2.002   1.173   2.805 -0.3934 -0.6492  0.4222
12225TIP3    H158166   1.977   1.197   2.894  1.6563  2.5893  0.1939
12225TIP3    H258167   2.089   1.134   2.813  0.4030  0.9455 -0.2860
12226TIP3   OH258168   6.535   4.768  15.166  0.0225  0.3444 -0.4260
12226TIP3    H158169   6.599   4.713  15.121 -0.5438 -0.8649  0.2004
12226TIP3    H258170   6.495   4.820  15.096  2.6149  2.1373 -0.6423
12227TIP3   OH258171   5.011   5.261  17.027 -0.6454  0.1702  0.5358
12227TIP3    H158172   5.011   5.301  17.114 -1.1131 -0.5613  0.8827
12227TIP3    H258173   4.922   5.275  16.995 -1.0188 -1.1926  0.9495
12228TIP3   OH258174   3.267   3.675   2.357 -1.0774 -0.2619 -0.5251
12228TIP3    H158175   3.250   3.766   2.333  1.8355  1.0315  1.9610
12228TIP3    H258176   3.258   3.672   2.452  3.0278 -1.5096 -0.0733
12229TIP3   OH258177   1.115   0.595  16.703  0.2537 -0.3296  0.1851
12229TIP3    H158178   1.152   0.508  16.688  0.7546 -0.1328  0.2928
12229TIP3    H258179   1.020   0.580  16.707  0.3745 -0.9467  0.7334
12230TIP3   OH258180   5.102   4.661   2.746  0.2820  0.2997 -0.1301
12230TIP3    H158181   5.193   4.658   2.717 -0.0327 -1.7545 -0.9824
12230TIP3    H258182   5.052   4.623   2.674 -0.9690 -0.9935  1.3917
12231TIP3   OH258183   2.788   2.239  12.313 -0.3848  0.2838  0.2596
12231TIP3    H158184   2.882   2.254  12.328 -0.5685  0.3972  1.3545
12231TIP3    H258185   2.750   2.239  12.401 -1.2106 -1.1626 -0.0869
12232TIP3   OH258186   6.229   6.094   2.625  0.1109  0.1373 -0.0451
12232TIP3    H158187   6.208   6.005   2.653  0.2923 -0.3353 -1.3894
12232TIP3    H258188   6.301   6.084   2.563 -1.2174  1.0267 -1.7874
12233TIP3   OH258189   1.756   5.704   1.449 -0.0453  0.6436  0.2397
12233TIP3    H158190   1.666   5.698   1.482 -0.1025  2.3400  0.4322
12233TIP3    H258191   1.779   5.614   1.427 -0.9688 -0.1591  2.3674
12234TIP3   OH258192   2.378   0.325  12.575 -0.1681  0.2602  0.1146
12234TIP3    H158193   2.288   0.315  12.544  0.5648 -1.9739 -1.3397
12234TIP3    H258194   2.404   0.412  12.545 -1.7469  0.8264  0.3407
12235TIP3   OH258195   5.107   3.371  16.383 -1.1407  0.2716  0.6713
12235TIP3    H158196   5.186   3.423  16.370 -1.4227  0.4887 -0.2627
12235TIP3    H258197   5.139   3.285  16.412 -0.7654  1.4870  3.9794
12236TIP3   OH258198   5.687   4.385  15.478  0.7532 -0.3566  0.3854
12236TIP3    H158199   5.748   4.381  15.552 -0.0260 -1.3810  0.9908
12236TIP3    H258200   5.624   4.315  15.495 -0.0435  0.0702 -0.7234
12237TIP3   OH258201   1.307   6.453   0.887 -0.0076 -0.4044  0.0151
12237TIP3    H158202   1.274   6.367   0.860 -0.2785 -1.1670  2.6284
12237TIP3    H258203   1.272   6.513   0.822  0.1160 -2.2637 -1.8145
12238TIP3   OH258204   6.169   1.570  16.086  0.7074 -0.0273  0.7687
12238TIP3    H158205   6.081   1.604  16.102  1.2434  0.9853  1.6367
12238TIP3    H258206   6.175   1.562  15.991 -0.1063  0.4786  0.6658
12239TIP3   OH258207   4.337   1.676   3.929 -0.2706 -0.0154  0.2652
12239TIP3    H158208   4.415   1.672   3.874  0.0622 -0.2196  0.7520
12239TIP3    H258209   4.302   1.586   3.928 -0.4179  0.0420  0.1665
12240TIP3   OH258210   1.194   0.567   1.562 -0.3892  0.1211  0.5691
12240TIP3    H158211   1.151   0.484   1.540 -0.3704 -0.2993  2.1173
12240TIP3    H258212   1.127   0.618   1.606  0.0358  0.3631  0.9369
12241TIP3   OH258213   6.007   0.106  13.063  0.2045 -0.0163  0.6935
12241TIP3    H158214   6.048   0.155  13.134  1.2295 -1.7409  1.3205
12241TIP3    H258215   5.933   0.060  13.104  0.2125 -0.2582  0.4412
12242TIP3   OH258216   3.883   0.773  15.820  0.2771  0.4064  0.1476
12242TIP3    H158217   3.911   0.687  15.788  1.3788  1.3723 -1.5774
12242TIP3    H258218   3.954   0.801  15.877  0.7056  0.8927 -0.6215
12243TIP3   OH258219   3.705   5.511   3.475 -0.1762  0.2584  0.4722
12243TIP3    H158220   3.760   5.576   3.432 -0.0476 -0.2078 -0.0805
12243TIP3    H258221   3.725   5.429   3.430 -0.5041 -0.1235  1.0071
12244TIP3   OH258222   1.965   1.492  11.273 -0.6309 -0.1138 -0.1548
12244TIP3    H158223   1.992   1.405  11.247 -0.7057  0.3216 -1.7397
12244TIP3    H258224   1.891   1.513  11.216  0.1016  1.4177 -0.5924
12245TIP3   OH258225   3.090   3.127  15.173 -0.0557  0.2470 -0.1391
12245TIP3    H158226   3.032   3.201  15.192  2.1813  1.7526  0.9690
12245TIP3    H258227   3.177   3.157  15.200  1.4073 -1.6333 -2.5874
12246TIP3   OH258228   5.251   3.305  15.458 -0.2141 -0.1717 -0.4507
12246TIP3    H158229   5.328   3.264  15.418  0.9471  1.9810 -0.4598
12246TIP3    H258230   5.195   3.231  15.482  2.3272 -1.8309  0.5545
12247TIP3   OH258231   4.804   0.471  11.077 -0.3745  0.3440 -0.3954
12247TIP3    H158232   4.888   0.494  11.038  0.9585 -2.4122  0.7298
12247TIP3    H258233   4.819   0.474  11.171 -1.6056  0.0414 -0.1743
12248TIP3   OH258234   3.884   1.277  14.031 -0.2132  0.5129 -0.3011
12248TIP3    H158235   3.958   1.333  14.055 -0.4523  0.8949 -0.4372
12248TIP3    H258236   3.860   1.305  13.943 -0.2149  0.0604 -0.4430
12249TIP3   OH258237   6.810   2.841   4.367  0.1740 -0.0367 -0.1515
12249TIP3    H158238   6.858   2.903   4.312  0.9317 -0.1035  0.4165
12249TIP3    H258239   6.762   2.896   4.429  1.0497 -0.0097  0.5189
12250TIP3   OH258240   5.130   5.645  17.128 -0.0194  0.2148  0.7651
12250TIP3    H158241   5.077   5.598  17.193 -0.3992 -0.1129  0.2256
12250TIP3    H258242   5.173   5.575  17.078  1.4281  0.4784  1.5993
12251TIP3   OH258243   3.465   6.085  12.862  0.0761  0.2705 -0.1220
12251TIP3    H158244   3.439   6.054  12.775 -0.9912 -1.2967  0.7199
12251TIP3    H258245   3.518   6.163  12.845  0.7128 -0.5822 -2.2137
12252TIP3   OH258246   2.956   3.042   0.703  0.1098  0.3036  0.1223
12252TIP3    H158247   2.937   3.057   0.796 -1.9607 -1.4179 -0.0079
12252TIP3    H258248   2.878   3.072   0.657  0.8100  0.4094 -1.0308
12253TIP3   OH258249   3.529   1.558   5.810  0.1202 -0.1417  0.2232
12253TIP3    H158250   3.590   1.607   5.865 -0.4096  0.5223  0.2241
12253TIP3    H258251   3.454   1.541   5.867 -0.2600  0.2014 -0.1822
12254TIP3   OH258252   5.227   0.833   3.367 -0.2980  0.1659 -0.0022
12254TIP3    H158253   5.201   0.742   3.375 -1.0976  0.4263  0.3623
12254TIP3    H258254   5.269   0.855   3.451 -0.8697  0.3801  0.2271
12255TIP3   OH258255   2.559   6.634  11.047 -0.6191 -0.1203  0.7030
12255TIP3    H158256   2.466   6.634  11.022 -0.4855  0.0056  0.2153
12255TIP3    H258257   2.606   6.628  10.964 -0.1900 -0.2319  0.9574
12256TIP3   OH258258   1.056   0.793  17.187  0.5974 -0.0837  0.1736
12256TIP3    H158259   1.047   0.739  17.109 -1.7088  1.6054 -0.7975
12256TIP3    H258260   1.018   0.741  17.258 -1.7356  0.2427 -0.7822
12257TIP3   OH258261   3.930   0.044   0.463 -0.0003  0.2258 -0.4192
12257TIP3    H158262   3.843   0.008   0.444 -0.3332  0.1637  1.1124
12257TIP3    H258263   3.939   0.034   0.558  1.1916  1.3310 -0.4060
12258TIP3   OH258264   3.437   2.574   1.398  0.0476  0.0431  0.8854
12258TIP3    H158265   3.347   2.552   1.420 -0.6606  0.7998 -1.0896
12258TIP3    H258266   3.435   2.591   1.303  2.6624 -1.8711  0.4424
12259TIP3   OH258267   1.118   4.592   4.570  0.1888 -0.1594  0.4734
12259TIP3    H158268   1.108   4.687   4.569  0.7036 -0.1038 -0.5980
12259TIP3    H258269   1.199   4.577   4.619  0.9616  0.0581 -0.7045
12260TIP3   OH258270   0.042   0.242  10.996  0.5431  0.3109 -1.0083
12260TIP3    H158271   0.047   0.337  10.984 -0.0157  0.2936 -1.4136
12260TIP3    H258272   0.022   0.208  10.909 -1.2108 -0.0150 -0.4976
12261TIP3   OH258273   0.400   0.808  11.456 -0.5493 -0.2513 -0.0626
12261TIP3    H158274   0.448   0.810  11.539  0.2532  1.7685 -0.5563
12261TIP3    H258275   0.327   0.868  11.469 -0.2193  0.3437 -0.9358
12262TIP3   OH258276   6.237   0.574   0.800  0.2788 -0.0496 -0.3025
12262TIP3    H158277   6.238   0.484   0.766  0.8292  0.6552 -2.1996
12262TIP3    H258278   6.163   0.615   0.755  1.5693  1.1577 -1.3493
12263TIP3   OH258279   3.853   6.219   0.344 -0.3080 -0.0121 -0.2421
12263TIP3    H158280   3.853   6.312   0.320 -0.4099  0.1433  0.3411
12263TIP3    H258281   3.945   6.199   0.364 -0.4409  0.2439  0.6629
12264TIP3   OH258282   4.774   2.953  12.271  0.3219  0.5793 -0.2001
12264TIP3    H158283   4.699   2.998  12.233 -0.0493 -1.6924 -2.3313
12264TIP3    H258284   4.842   2.958  12.203  0.6272 -1.0537 -0.0486
12265TIP3   OH258285   2.410   2.885   0.241  0.1849 -0.0131  0.1351
12265TIP3    H158286   2.350   2.874   0.315 -0.4361  0.7307 -0.2496
12265TIP3    H258287   2.435   2.977   0.244  0.1313  0.0297 -0.5952
12266TIP3   OH258288   6.044   4.586   2.184 -0.1141  0.0433 -0.3407
12266TIP3    H158289   6.126   4.597   2.135  0.4906  0.0909  0.6644
12266TIP3    H258290   6.072   4.571   2.275 -1.1952 -0.9127 -0.1538
12267TIP3   OH258291   2.739   6.538  17.103  0.0305  0.5722 -0.1862
12267TIP3    H158292   2.652   6.508  17.130  0.5237 -1.1270 -0.4324
12267TIP3    H258293   2.761   6.606  17.166  0.1243 -1.6118  2.2492
12268TIP3   OH258294   2.060   4.062  15.497 -0.2114  0.7245  0.2198
12268TIP3    H158295   2.123   4.018  15.554  0.3205  0.9200 -0.2137
12268TIP3    H258296   2.112   4.126  15.448 -0.7702  0.9936 -0.0315
12269TIP3   OH258297   4.789   4.854  16.211  0.0365  0.0790  0.3672
12269TIP3    H158298   4.879   4.824  16.204 -0.4838 -1.8880  2.0022
12269TIP3    H258299   4.749   4.829  16.127  1.3608  2.4038 -1.0481
12270TIP3   OH258300   4.095   1.050  15.487 -0.3361 -0.1970 -0.0421
12270TIP3    H158301   4.162   1.115  15.505 -0.9134  0.4547 -0.2043
12270TIP3    H258302   4.142   0.975  15.451  0.2892  0.2888 -0.2402
12271TIP3   OH258303   1.595   5.433  13.293 -0.1331 -0.0318 -0.5512
12271TIP3    H158304   1.689   5.419  13.282 -0.1905 -0.9291  0.0651
12271TIP3    H258305   1.582   5.440  13.387 -0.5464  1.1855 -0.6802
12272TIP3   OH258306   0.538   0.653   2.199  0.7326  0.4784 -0.0052
12272TIP3    H158307   0.612   0.702   2.234  0.7141  0.5510 -0.0670
12272TIP3    H258308   0.493   0.715   2.141  1.3383  0.0420 -0.9417
12273TIP3   OH258309   5.266   1.339  14.829 -0.3988 -0.0001  0.0196
12273TIP3    H158310   5.182   1.333  14.874  0.5667 -0.3396  1.8348
12273TIP3    H258311   5.275   1.255  14.783 -0.2981 -0.6288  1.1825
12274TIP3   OH258312   0.435   5.122  16.198 -0.0957 -0.0913  0.1566
12274TIP3    H158313   0.403   5.033  16.215 -1.4345  0.2996 -0.2637
12274TIP3    H258314   0.389   5.149  16.119  0.4460  0.9149  0.1814
12275TIP3   OH258315   5.909   2.302   4.694  0.1736  0.1688 -0.1159
12275TIP3    H158316   5.862   2.325   4.613 -0.1343 -0.8871 -0.2513
12275TIP3    H258317   5.839   2.278   4.755  0.3306  2.0504  0.8391
12276TIP3   OH258318   1.670   0.327   4.638 -0.3886  0.6146  0.4196
12276TIP3    H158319   1.612   0.352   4.567  1.7299  1.4065 -1.0935
12276TIP3    H258320   1.630   0.249   4.676 -1.3795 -0.0365 -1.8805
12277TIP3   OH258321   3.425   5.496   2.517 -0.0124 -0.2633 -0.3512
12277TIP3    H158322   3.455   5.458   2.600  1.0133  0.5824 -0.3406
12277TIP3    H258323   3.365   5.566   2.543 -0.2322 -0.4547 -0.3391
12278TIP3   OH258324   2.753   5.575   4.982 -0.5355  0.1655 -0.0994
12278TIP3    H158325   2.676   5.556   4.929  0.3787  0.4534 -1.5576
12278TIP3    H258326   2.740   5.524   5.062 -1.9286 -0.2685 -0.5844
12279TIP3   OH258327   5.516   1.871   3.292 -0.3191  0.1470 -0.3873
12279TIP3    H158328   5.486   1.817   3.219  0.8190  1.1978 -1.6748
12279TIP3    H258329   5.447   1.936   3.305  0.5180  1.4482 -2.1608
12280TIP3   OH258330   4.798   4.711  13.502 -1.1767 -0.0570 -0.6464
12280TIP3    H158331   4.716   4.712  13.452 -1.2612 -0.4117 -0.5165
12280TIP3    H258332   4.854   4.649  13.455  0.3794  2.9237 -2.8691
12281TIP3   OH258333   3.748   0.646   0.819  0.0855 -0.3251  0.2729
12281TIP3    H158334   3.829   0.604   0.849 -0.6283 -1.3878  0.7373
12281TIP3    H258335   3.778   0.722   0.769  1.3620 -0.4394  0.8377
12282TIP3   OH258336   4.981   6.486  11.020  0.2047 -0.1191  0.0003
12282TIP3    H158337   4.946   6.428  11.088 -0.9007  0.4354 -0.0807
12282TIP3    H258338   4.965   6.440  10.938  1.2557 -0.6473  0.0847
12283TIP3   OH258339   1.137   4.094   0.777  0.5080 -0.3346  0.4303
12283TIP3    H158340   1.194   4.144   0.836  3.3998 -1.0482 -1.6388
12283TIP3    H258341   1.138   4.005   0.813  1.9253 -0.6734 -0.4019
12284TIP3   OH258342   1.538   0.009  16.087  0.5155  0.0096  0.4981
12284TIP3    H158343   1.528  -0.065  16.027  0.3587 -0.3123  0.9193
12284TIP3    H258344   1.459   0.008  16.140 -0.9935  2.4631 -1.6555
12285TIP3   OH258345   5.022   0.216  15.772  0.0886  0.3870  0.3396
12285TIP3    H158346   4.969   0.157  15.827 -0.2747  0.3932 -0.0006
12285TIP3    H258347   4.957   0.268  15.724  0.3812 -1.0083 -1.6081
12286TIP3   OH258348   1.774   3.078  15.741  0.1475  0.4595  0.6372
12286TIP3    H158349   1.724   3.156  15.715  1.0300  0.4611 -1.1503
12286TIP3    H258350   1.781   3.026  15.661 -0.1183 -1.2991  1.7309
12287TIP3   OH258351   5.991   3.729  14.732 -0.2520 -0.1678  0.6480
12287TIP3    H158352   5.901   3.695  14.739  0.1272 -1.0805  1.2329
12287TIP3    H258353   6.035   3.666  14.675 -0.1863  0.7240 -0.2993
12288TIP3   OH258354   1.997   1.931  17.016  0.1171  0.2772  0.2898
12288TIP3    H158355   1.998   1.917  17.110  0.4610 -3.5801 -0.2136
12288TIP3    H258356   1.945   1.859  16.981  0.5685  1.2358 -2.5239
12289TIP3   OH258357   1.204   3.341   0.362  0.1903  0.1609  0.0852
12289TIP3    H158358   1.213   3.277   0.291 -0.2006  1.7668 -1.4409
12289TIP3    H258359   1.133   3.398   0.334 -1.1609 -0.2201  2.6182
12290TIP3   OH258360   3.347   0.952   5.383 -0.3991 -0.4211  0.3286
12290TIP3    H158361   3.438   0.963   5.410 -0.2473  0.4386 -0.5100
12290TIP3    H258362   3.342   0.994   5.298 -1.3087 -1.4999 -0.1612
12291TIP3   OH258363   1.466   6.193  11.245 -0.1572  0.2329  0.2547
12291TIP3    H158364   1.401   6.195  11.175 -1.9783  1.2888  1.9269
12291TIP3    H258365   1.547   6.164  11.202 -1.2376  0.8111 -2.2532
12292TIP3   OH258366   1.908   3.865   3.662  0.4424 -0.2577  0.4468
12292TIP3    H158367   1.925   3.771   3.666 -1.5727 -0.5954  2.3575
12292TIP3    H258368   1.876   3.879   3.573 -0.3824 -1.6033  0.5076
12293TIP3   OH258369   3.438   0.596   3.435 -0.3594 -0.2127 -0.3051
12293TIP3    H158370   3.370   0.612   3.500 -1.3052 -0.0803 -1.3044
12293TIP3    H258371   3.483   0.680   3.425 -2.0188  0.5271 -1.8372
12294TIP3   OH258372   5.404   3.612  16.761 -0.2576 -0.4152 -0.3505
12294TIP3    H158373   5.317   3.649  16.776 -0.5192 -1.2075  0.1403
12294TIP3    H258374   5.462   3.659  16.821 -0.3608  0.0814 -0.6460
12295TIP3   OH258375   2.564   3.636   2.780 -0.8155 -0.3585 -0.0790
12295TIP3    H158376   2.594   3.579   2.709 -0.2166 -0.2825  0.1054
12295TIP3    H258377   2.472   3.614   2.792 -0.6911 -0.9932 -0.2881
12296TIP3   OH258378   6.606   3.260   1.989 -1.0187  0.0962 -0.5510
12296TIP3    H158379   6.636   3.317   2.060 -2.7702 -0.3130  0.5394
12296TIP3    H258380   6.609   3.316   1.911 -1.9516  1.4466  0.3631
12297TIP3   OH258381   0.640   6.503   0.427 -0.2817  0.0140 -0.1068
12297TIP3    H158382   0.627   6.574   0.365  1.6535  0.2105 -0.3185
12297TIP3    H258383   0.638   6.546   0.513  0.3388  0.2583 -0.2082
12298TIP3   OH258384   5.458   0.641  12.329  0.3021 -0.1260 -0.4480
12298TIP3    H158385   5.376   0.691  12.324 -0.3167 -1.1386 -0.4774
12298TIP3    H258386   5.498   0.654  12.243 -0.8959 -1.4214 -1.2173
12299TIP3   OH258387   6.110   1.058   2.910  0.1696  0.0142  0.1553
12299TIP3    H158388   6.061   1.039   2.990  0.4242  1.4538  0.6681
12299TIP3    H258389   6.172   0.985   2.903 -0.0237 -0.2544  1.1305
12300TIP3   OH258390   1.188   3.362   6.109  0.2733 -0.6068 -0.3055
12300TIP3    H158391   1.135   3.370   6.188 -1.3440  0.5408 -1.4640
12300TIP3    H258392   1.230   3.447   6.100  0.0327 -0.5531 -0.9610
12301TIP3   OH258393   1.409   1.686   4.535 -0.4895 -0.1366 -0.2651
12301TIP3    H158394   1.500   1.706   4.514 -0.2359 -0.5110  0.4257
12301TIP3    H258395   1.415   1.638   4.618 -1.3088 -0.2450 -0.2710
12302TIP3   OH258396   2.059   3.662   5.703  0.5034  0.7343 -0.5619
12302TIP3    H158397   2.085   3.623   5.620 -0.4732 -0.9869 -0.1015
12302TIP3    H258398   1.966   3.681   5.692  0.1933 -0.1726  0.3544
12303TIP3   OH258399   0.662   3.940  16.107 -0.0992  0.1072  0.3150
12303TIP3    H158400   0.594   3.883  16.070  0.0497  0.6057 -0.7497
12303TIP3    H258401   0.742   3.915  16.060 -0.2790  2.0717 -1.1154
12304TIP3   OH258402   4.427   4.937   0.751  0.0310 -0.1504 -0.4158
12304TIP3    H158403   4.372   4.997   0.801 -0.0668 -0.6398  0.0657
12304TIP3    H258404   4.497   4.912   0.812  0.8311  0.5144 -1.0417
12305TIP3   OH258405   2.124   4.155   6.895  0.3195  0.2747  0.1828
12305TIP3    H158406   2.038   4.169   6.934  0.0161  3.0169 -1.3305
12305TIP3    H258407   2.182   4.214   6.943  1.2998 -1.2234  0.8841
12306TIP3   OH258408   0.060   1.040   3.850  0.1354 -0.1987 -0.1784
12306TIP3    H158409   0.121   1.019   3.779 -0.0311 -2.6464  0.3538
12306TIP3    H258410   0.095   0.994   3.926 -0.4389  1.2904  1.0060
12307TIP3   OH258411   2.628   6.184  16.549  0.0242  0.1393  0.4485
12307TIP3    H158412   2.546   6.138  16.562 -0.3113  0.5511 -0.2080
12307TIP3    H258413   2.607   6.276  16.561  0.5308  0.1952  0.9578
12308TIP3   OH258414   0.892   4.188  16.697 -0.2689  0.2063 -0.2663
12308TIP3    H158415   0.827   4.197  16.768  0.8416 -1.5435  1.0404
12308TIP3    H258416   0.869   4.105  16.655  0.6337 -0.0348 -0.2927
12309TIP3   OH258417   3.329   3.772   6.125 -0.1287 -0.2783 -0.9177
12309TIP3    H158418   3.277   3.846   6.095 -0.1938  0.6194  1.2663
12309TIP3    H258419   3.294   3.754   6.213 -0.9770 -3.7078 -1.8904
12310TIP3   OH258420   3.742   1.126   1.884  0.3736  0.0091 -0.1012
12310TIP3    H158421   3.687   1.177   1.824  0.9490 -0.5128 -1.0819
12310TIP3    H258422   3.832   1.143   1.854  0.6339 -0.6809  0.2850
12311TIP3   OH258423   2.779   2.433  13.756 -0.4844  0.9701 -0.2046
12311TIP3    H158424   2.697   2.482  13.762  0.0911  2.5152 -3.4753
12311TIP3    H258425   2.847   2.496  13.777 -0.0567 -0.0851  1.6596
12312TIP3   OH258426   2.771   6.156   0.307  0.5851 -0.4759  0.2694
12312TIP3    H158427   2.730   6.099   0.371  0.6706 -0.6295  0.1888
12312TIP3    H258428   2.811   6.096   0.244  0.2646 -0.3272 -0.0783
12313TIP3   OH258429   0.370   3.029  16.796  0.1353  0.0923 -0.3706
12313TIP3    H158430   0.399   2.961  16.735  1.1476  0.2194 -0.0412
12313TIP3    H258431   0.426   3.105  16.776  0.9611 -0.0867  1.1792
12314TIP3   OH258432   0.081   3.065   1.137 -0.7844  0.5601  0.1641
12314TIP3    H158433  -0.006   3.081   1.100 -0.7345  0.1257 -0.1575
12314TIP3    H258434   0.064   3.017   1.218 -0.7693 -1.4997 -1.0179
12315TIP3   OH258435   2.963   6.038   1.809 -0.3364  0.3785 -0.1756
12315TIP3    H158436   2.938   6.131   1.811  0.0621  0.4719  2.4993
12315TIP3    H258437   3.058   6.038   1.813 -0.3709 -0.1218  1.1520
12316TIP3   OH258438   5.682   3.351  12.347 -0.4234  0.0492 -0.6377
12316TIP3    H158439   5.617   3.383  12.286 -1.7527 -1.9169 -0.3097
12316TIP3    H258440   5.696   3.259  12.322 -0.2251 -0.4957  1.3346
12317TIP3   OH258441   3.998   0.881   2.939 -0.2314 -0.7887 -0.4796
12317TIP3    H158442   4.093   0.882   2.951 -0.6291 -0.2550  3.2897
12317TIP3    H258443   3.971   0.794   2.967 -1.0310 -0.3404  0.1694
12318TIP3   OH258444   1.121   5.471  15.546  0.2380  0.5150  0.6018
12318TIP3    H158445   1.161   5.386  15.526  0.8508  0.9315  0.0427
12318TIP3    H258446   1.074   5.456  15.629  1.4070 -0.0316  1.1832
12319TIP3   OH258447   5.927   5.190   1.421 -0.8229  0.3384 -0.2737
12319TIP3    H158448   5.954   5.148   1.340 -0.4677 -1.7450  0.8915
12319TIP3    H258449   5.963   5.279   1.416  0.2549 -0.1779 -1.8058
12320TIP3   OH258450   0.356   1.127  11.220  0.5425 -0.4505 -0.3094
12320TIP3    H158451   0.429   1.134  11.281  0.0870  0.4527  0.1416
12320TIP3    H258452   0.313   1.044  11.243 -1.3741  1.2448  2.5903
12321TIP3   OH258453   6.241   6.309  13.517  0.1975  0.1539  0.1686
12321TIP3    H158454   6.254   6.378  13.583  0.6122 -0.5547  0.8331
12321TIP3    H258455   6.228   6.229  13.567 -0.4717 -0.2292 -0.6040
12322TIP3   OH258456   1.098   6.271   1.437  0.3765  0.5381  0.6891
12322TIP3    H158457   1.074   6.359   1.409  2.2896  0.9993  0.3939
12322TIP3    H258458   1.189   6.280   1.467  0.5619 -1.3153  0.7223
12323TIP3   OH258459   1.373   2.327  17.256  0.6034 -0.5278 -0.1737
12323TIP3    H158460   1.303   2.387  17.232  2.0002  0.7622 -1.1129
12323TIP3    H258461   1.406   2.294  17.172  0.4692 -1.9105  0.2954
12324TIP3   OH258462   3.005   4.173   1.768  1.1669  0.6045 -1.0694
12324TIP3    H158463   2.995   4.079   1.756  1.7188  0.3731  0.1578
12324TIP3    H258464   3.023   4.207   1.680  1.1435 -0.4602 -1.4901
12325TIP3   OH258465   1.218   6.240   1.179 -0.0237  0.5801 -0.2259
12325TIP3    H158466   1.293   6.285   1.140  0.1893  0.3643 -0.0624
12325TIP3    H258467   1.186   6.300   1.246  0.2700  0.4820  0.0023
12326TIP3   OH258468   5.150   0.769   2.800  0.3233  0.3863  0.0889
12326TIP3    H158469   5.093   0.715   2.746  0.1996  0.1732  0.4259
12326TIP3    H258470   5.091   0.824   2.852  0.4012 -0.1931  0.8044
12327TIP3   OH258471   6.222   3.957   3.119 -0.5272 -0.5662 -0.1267
12327TIP3    H158472   6.266   3.932   3.038 -0.6096  0.5927 -0.5441
12327TIP3    H258473   6.179   4.040   3.098 -0.7188 -0.3607  1.0397
12328TIP3   OH258474   0.505   3.493  14.281  0.7270  0.2506 -0.6109
12328TIP3    H158475   0.548   3.571  14.244 -1.0995  0.4706 -2.3672
12328TIP3    H258476   0.496   3.513  14.374  1.2751  1.6907 -0.8471
12329TIP3   OH258477   2.420   3.281  11.281 -0.5034 -0.3074  0.3890
12329TIP3    H158478   2.351   3.344  11.260 -0.7732 -0.4985  0.7083
12329TIP3    H258479   2.466   3.268  11.198 -2.5298 -2.2610 -0.5035
12330TIP3   OH258480   6.545   2.141  13.485  0.5244  0.6952  0.2777
12330TIP3    H158481   6.454   2.151  13.459  0.3720  0.3111  0.6809
12330TIP3    H258482   6.590   2.213  13.440  0.3583 -0.2838 -1.5185
12331TIP3   OH258483   5.053   1.806  13.986 -0.2473 -0.1754  0.1226
12331TIP3    H158484   4.960   1.813  14.005 -0.5545  0.0408 -1.3680
12331TIP3    H258485   5.083   1.732  14.038 -0.9435  0.6258  1.6959
12332TIP3   OH258486   2.331   2.806   0.864 -0.0858  0.0711 -0.1149
12332TIP3    H158487   2.284   2.888   0.852 -0.9408 -0.4188 -0.1386
12332TIP3    H258488   2.301   2.773   0.949  1.4126  0.5370  0.6196
12333TIP3   OH258489   6.554   3.433  12.622 -0.4077 -0.4173 -0.3820
12333TIP3    H158490   6.599   3.510  12.588  0.3958 -0.6661  0.1091
12333TIP3    H258491   6.461   3.455  12.615 -0.2141  0.1784 -1.2142
12334TIP3   OH258492   2.153   2.470   0.658  0.1942 -0.7948 -0.0728
12334TIP3    H158493   2.079   2.434   0.609 -0.4957 -1.1970  1.2532
12334TIP3    H258494   2.199   2.525   0.594 -2.9841  1.9992 -0.0759
12335TIP3   OH258495   0.568   4.980  12.537  0.4095 -0.2329 -0.0732
12335TIP3    H158496   0.650   5.028  12.527  1.1060 -1.4011 -0.0730
12335TIP3    H258497   0.528   4.983  12.450  0.8584 -0.3832 -0.2860
12336TIP3   OH258498   6.043   4.497   0.117  0.3456 -0.5237 -0.0600
12336TIP3    H158499   6.002   4.455   0.192  0.9111  0.3929  0.7646
12336TIP3    H258500   5.988   4.472   0.043 -1.3280  0.1518  0.9295
12337TIP3   OH258501   2.655   1.539  14.056  0.9628 -0.1022  0.3201
12337TIP3    H158502   2.605   1.617  14.032  0.6869 -0.3219  0.1737
12337TIP3    H258503   2.670   1.494  13.973 -0.2500 -1.0184  0.5905
12338TIP3   OH258504   1.229   1.564   5.384 -0.0797 -0.6350  0.2804
12338TIP3    H158505   1.251   1.645   5.339 -2.6610  0.0265  0.1457
12338TIP3    H258506   1.257   1.577   5.474  0.1595  0.1191  0.0948
12339TIP3   OH258507   1.664   3.208   6.845  0.1245 -0.2837 -0.0226
12339TIP3    H158508   1.680   3.130   6.792  3.1876  0.1983  0.0940
12339TIP3    H258509   1.610   3.177   6.918  1.0918 -2.2544 -0.1150
12340TIP3   OH258510   0.262   0.657   1.219  0.4739 -0.2525 -0.5701
12340TIP3    H158511   0.295   0.732   1.170  1.9740 -1.0681 -0.8393
12340TIP3    H258512   0.325   0.645   1.290 -0.3591 -0.5877  0.1274
12341TIP3   OH258513   4.411   5.886  15.650  0.3208 -0.2356 -0.4399
12341TIP3    H158514   4.351   5.938  15.704  2.3318  0.3017  1.3824
12341TIP3    H258515   4.464   5.951  15.604 -0.6666 -0.7033 -2.2591
12342TIP3   OH258516   2.138   0.418  16.217 -0.2192 -0.0442 -0.1888
12342TIP3    H158517   2.048   0.412  16.185  0.1395  0.6984 -1.3695
12342TIP3    H258518   2.129   0.425  16.313 -1.5185  1.9494 -0.4184
12343TIP3   OH258519   3.316   1.345  14.930  0.3407 -0.2688  0.0040
12343TIP3    H158520   3.337   1.380  14.843 -1.0482 -1.2645 -0.7591
12343TIP3    H258521   3.361   1.403  14.991  0.0273  1.4077 -1.3271
12344TIP3   OH258522   5.125   2.810   4.724 -0.0503 -0.5793  0.3562
12344TIP3    H158523   5.061   2.881   4.730  0.0942 -0.4140 -0.1004
12344TIP3    H258524   5.111   2.772   4.638  1.7246  0.6402 -0.4883
12345TIP3   OH258525   4.723   4.182   3.079 -0.2591  0.2117  0.6021
12345TIP3    H158526   4.657   4.120   3.047  2.1157 -2.0713  0.0216
12345TIP3    H258527   4.742   4.237   3.003 -1.5413  0.9722  0.8076
12346TIP3   OH258528   2.750   3.331   4.139 -0.3576 -0.3255 -0.4647
12346TIP3    H158529   2.760   3.241   4.169 -1.9575 -1.8849 -4.2221
12346TIP3    H258530   2.656   3.348   4.144 -0.3138  0.3793 -1.7114
12347TIP3   OH258531   0.335   1.525  12.015  0.4232 -0.4970 -0.2038
12347TIP3    H158532   0.296   1.439  11.996 -0.3669  0.0089 -0.9411
12347TIP3    H258533   0.332   1.571  11.931  1.4191  0.0285  0.0439
12348TIP3   OH258534   6.060   1.645  14.916 -0.3221 -0.1733  0.3179
12348TIP3    H158535   6.018   1.591  14.848  0.7776 -0.3064 -0.2698
12348TIP3    H258536   6.132   1.689  14.870  0.2326 -0.0137  1.3308
12349TIP3   OH258537   4.879   0.325   5.662 -0.0310  0.0900  0.4683
12349TIP3    H158538   4.951   0.380   5.695  1.1830 -0.6278 -0.9712
12349TIP3    H258539   4.891   0.324   5.567 -0.6315 -1.8675  0.4037
12350TIP3   OH258540   6.455   6.591  13.642  0.0106 -0.2379 -0.2397
12350TIP3    H158541   6.491   6.659  13.700 -1.4158  0.8729 -0.6089
12350TIP3    H258542   6.497   6.606  13.558  0.3306 -0.3545 -0.1018
12351TIP3   OH258543   5.700   1.035   3.864 -0.4134 -0.0790 -0.6241
12351TIP3    H158544   5.762   0.998   3.801  1.1554 -0.0201  0.8486
12351TIP3    H258545   5.695   1.128   3.840 -0.2078 -0.1555 -0.9698
12352TIP3   OH258546   4.251   6.037  16.858 -0.5144 -0.7636 -0.5113
12352TIP3    H158547   4.215   6.087  16.784  0.6094 -0.1495 -0.6650
12352TIP3    H258548   4.191   6.054  16.930 -0.7299 -0.0356 -0.8578
12353TIP3   OH258549   5.789   1.421   0.323  0.2035 -0.0013 -0.0293
12353TIP3    H158550   5.806   1.425   0.417 -0.7855 -0.7580  0.1884
12353TIP3    H258551   5.761   1.510   0.300  1.7396  0.5321  0.1269
12354TIP3   OH258552   6.408   5.193   0.142  0.0587  0.7706  0.8462
12354TIP3    H158553   6.328   5.168   0.188 -0.9216  1.2502 -0.5621
12354TIP3    H258554   6.434   5.114   0.093  0.2936  0.7009  1.0799
12355TIP3   OH258555   5.721   6.228  10.475 -0.1325  0.0090 -0.1471
12355TIP3    H158556   5.724   6.304  10.418 -0.4075 -2.4730 -3.6397
12355TIP3    H258557   5.812   6.199  10.482 -0.3172 -0.7319 -0.7963
12356TIP3   OH258558   3.148   6.588   6.007 -0.3696 -0.4881  0.0286
12356TIP3    H158559   3.219   6.552   6.059 -0.2536 -1.5563 -0.8470
12356TIP3    H258560   3.187   6.661   5.959 -0.3974  0.2902  1.1546
12357TIP3   OH258561   2.097   6.400   2.679  0.5379  0.7961 -0.8990
12357TIP3    H158562   2.118   6.309   2.659  1.3898  0.8455 -0.2734
12357TIP3    H258563   2.074   6.439   2.595 -3.4141 -0.8769 -0.7188
12358TIP3   OH258564   0.340   3.551   2.934 -0.2820  0.3197  0.2812
12358TIP3    H158565   0.276   3.564   2.864 -2.2547 -0.7358  1.8322
12358TIP3    H258566   0.294   3.495   2.997  2.5644 -1.3915  0.9074
12359TIP3   OH258567   3.583   4.543  16.859  0.0501  0.1503 -0.2630
12359TIP3    H158568   3.578   4.582  16.947  1.0526  0.5600 -0.3714
12359TIP3    H258569   3.656   4.589  16.818  0.5338 -1.0760 -0.7972
12360TIP3   OH258570   0.980   1.943   3.094 -0.6142 -0.1354 -0.5034
12360TIP3    H158571   0.994   1.849   3.105  2.0187  0.2626 -0.0082
12360TIP3    H258572   0.975   1.955   2.999  0.3768 -0.6352 -0.6334
12361TIP3   OH258573   3.259   5.162  13.413 -0.2169  0.6457 -0.3198
12361TIP3    H158574   3.317   5.087  13.425  0.4589  1.2271  0.0626
12361TIP3    H258575   3.312   5.238  13.438 -1.4647  1.0886  1.0601
12362TIP3   OH258576   6.583   6.360  12.419  0.1238  0.0684  0.4360
12362TIP3    H158577   6.503   6.397  12.381  1.0297  2.5542  0.8480
12362TIP3    H258578   6.568   6.361  12.514  0.7733  0.8803  0.5363
12363TIP3   OH258579   2.887   2.947  16.774 -0.0497 -0.4890 -0.3393
12363TIP3    H158580   2.956   2.922  16.712  0.5050 -0.6566  0.3370
12363TIP3    H258581   2.827   2.873  16.774  0.9496 -1.3222  0.7371
12364TIP3   OH258582   1.475   4.110  15.425  0.5580 -0.0261  0.3547
12364TIP3    H158583   1.480   4.096  15.520  0.9700 -0.2153  0.3076
12364TIP3    H258584   1.562   4.144  15.401  0.2758  0.5375  0.1282
12365TIP3   OH258585   1.428   1.546   2.519  0.2478 -0.1334  0.0295
12365TIP3    H158586   1.412   1.556   2.612  0.0010  0.0725 -0.0330
12365TIP3    H258587   1.523   1.549   2.510  0.3314 -1.5639  0.4211
12366TIP3   OH258588   1.889   6.262   0.875  1.2036  0.1262  0.3243
12366TIP3    H158589   1.880   6.185   0.932 -0.1727  0.2102  0.2347
12366TIP3    H258590   1.911   6.226   0.789  1.4622 -0.1172  0.4930
12367TIP3   OH258591   4.755   2.930   0.768 -0.5169 -0.0232  0.0550
12367TIP3    H158592   4.782   3.019   0.748  1.4515 -0.5563  0.1656
12367TIP3    H258593   4.667   2.938   0.803  0.4429  2.1145  2.0850
12368TIP3   OH258594   3.732   2.387   6.158 -0.1213  0.0989  0.1911
12368TIP3    H158595   3.671   2.316   6.179  0.8143 -0.7031  0.2878
12368TIP3    H258596   3.679   2.466   6.158 -1.8800 -1.0126 -3.3374
12369TIP3   OH258597   5.563   3.596   3.795  0.1935 -0.2155 -0.3498
12369TIP3    H158598   5.644   3.573   3.842  0.7982 -0.9503 -1.7371
12369TIP3    H258599   5.575   3.688   3.770  1.2006 -0.7269 -1.7631
12370TIP3   OH258600   5.496   0.496   1.332 -0.1634  0.1325 -0.2882
12370TIP3    H158601   5.437   0.515   1.259 -0.3826  1.4049  0.2099
12370TIP3    H258602   5.571   0.453   1.291 -1.4331 -1.5742 -0.9220
12371TIP3   OH258603   2.009   3.095   4.473 -0.2888  0.2341  0.4309
12371TIP3    H158604   2.010   2.999   4.472  0.3772  0.2448 -2.0658
12371TIP3    H258605   1.923   3.118   4.438 -0.2138  0.5533  0.4542
12372TIP3   OH258606   6.625   0.801   2.922  0.1932  0.3230  0.3438
12372TIP3    H158607   6.633   0.786   2.827 -0.5655  0.2205  0.2905
12372TIP3    H258608   6.690   0.742   2.961  0.7990  0.6692 -0.1327
12373TIP3   OH258609   5.048   3.214   3.698 -0.4479  0.3161  0.0019
12373TIP3    H158610   5.033   3.142   3.760  0.0477  1.1226  1.0634
12373TIP3    H258611   4.982   3.279   3.721  0.7810  1.3121  0.7622
12374TIP3   OH258612   4.114   0.088  12.313  0.4231 -0.0876 -0.6425
12374TIP3    H158613   4.098  -0.004  12.337 -0.0933  0.0423 -0.4841
12374TIP3    H258614   4.028   0.121  12.286  0.5330  0.4535 -0.3398
12375TIP3   OH258615   5.334   2.446  12.395 -0.7758  0.0450  0.2531
12375TIP3    H158616   5.343   2.373  12.456  0.4422 -0.0620 -0.0405
12375TIP3    H258617   5.424   2.466  12.369 -1.0864  1.7300  0.4292
12376TIP3   OH258618   2.849   0.780   2.433  0.1033 -0.1630  0.0928
12376TIP3    H158619   2.763   0.777   2.475 -0.4628  1.0326 -0.9590
12376TIP3    H258620   2.851   0.702   2.377 -0.8836  0.5819 -0.9895
12377TIP3   OH258621   2.627   5.923  15.337  0.3333 -0.0798  0.1683
12377TIP3    H158622   2.624   6.000  15.393 -0.7768  0.2869 -0.3684
12377TIP3    H258623   2.654   5.852  15.395 -0.6477  0.3265  1.1393
12378TIP3   OH258624   3.359   3.523  14.269  0.3831 -0.1185 -0.1150
12378TIP3    H158625   3.298   3.449  14.268  0.7883 -0.4530 -0.8716
12378TIP3    H258626   3.441   3.487  14.302 -0.1650  0.6197  2.1064
12379TIP3   OH258627   4.842   6.320   4.273 -0.2160 -0.2815  0.1659
12379TIP3    H158628   4.749   6.300   4.277 -0.1917 -0.5602 -0.6446
12379TIP3    H258629   4.870   6.325   4.364 -0.5049 -2.5934  0.3957
12380TIP3   OH258630   4.127   3.274  15.891  0.0882 -0.7317 -0.6993
12380TIP3    H158631   4.086   3.361  15.881 -0.2807 -0.8949 -0.6133
12380TIP3    H258632   4.221   3.291  15.880  0.2414  0.0211  1.3357
12381TIP3   OH258633   2.970   1.135   1.317  0.0367 -0.1013  0.4553
12381TIP3    H158634   3.016   1.073   1.260 -0.8366 -1.3118  1.0546
12381TIP3    H258635   3.036   1.201   1.338  0.7619 -0.4052 -0.8125
12382TIP3   OH258636   1.435   4.749   1.330 -0.1214 -0.8806  0.4036
12382TIP3    H158637   1.371   4.726   1.263  0.3633  0.0167 -0.3679
12382TIP3    H258638   1.461   4.665   1.368 -0.0086 -1.4409 -0.8846
12383TIP3   OH258639   1.822   0.763   2.179 -0.5811  0.2408  0.3883
12383TIP3    H158640   1.832   0.735   2.270  1.9227 -1.1146 -0.2423
12383TIP3    H258641   1.728   0.758   2.163 -0.8938 -1.2229  2.3793
12384TIP3   OH258642   1.780   0.833   2.464 -0.6184  0.0723 -0.1283
12384TIP3    H158643   1.779   0.929   2.469  0.4684  0.0518  1.0396
12384TIP3    H258644   1.688   0.807   2.469 -0.7894  0.9725  2.2158
12385TIP3   OH258645   5.370   2.947  14.671 -0.1022 -0.5103  0.0235
12385TIP3    H158646   5.446   2.910  14.715 -0.6738 -1.9720 -0.1759
12385TIP3    H258647   5.313   2.872  14.654 -1.2988  0.4660 -0.4035
12386TIP3   OH258648   5.843   6.647   5.467  0.0323  0.2115  0.0228
12386TIP3    H158649   5.854   6.690   5.551 -0.0797 -0.8455  0.5845
12386TIP3    H258650   5.907   6.690   5.410  1.1524 -0.0849  1.0368
12387TIP3   OH258651   5.102   3.810   3.059 -0.0660 -0.5835 -0.8870
12387TIP3    H158652   5.186   3.766   3.065 -0.5513 -1.4250 -0.1354
12387TIP3    H258653   5.037   3.743   3.082 -0.6870  0.9860  2.2532
12388TIP3   OH258654   3.472   3.315  16.727 -0.3733 -0.1264  0.1374
12388TIP3    H158655   3.477   3.378  16.656  0.6382 -0.5669 -0.2005
12388TIP3    H258656   3.553   3.328  16.777  0.4185 -1.9433 -0.6332
12389TIP3   OH258657   4.004   2.251  12.220  0.3046 -0.6445  0.2778
12389TIP3    H158658   4.085   2.301  12.212 -0.0005 -0.0404  0.8657
12389TIP3    H258659   4.026   2.164  12.187  0.7850 -0.0716 -0.9368
12390TIP3   OH258660   2.483   2.112  12.440  0.3533 -0.1980  0.1458
12390TIP3    H158661   2.507   2.141  12.528  1.2992 -0.7854  0.0873
12390TIP3    H258662   2.529   2.172  12.381 -1.7441  1.3521  0.0459
12391TIP3   OH258663   6.126   0.448  12.942 -0.6390  0.3280 -0.7183
12391TIP3    H158664   6.067   0.405  12.880 -0.3688 -1.6148  0.3328
12391TIP3    H258665   6.075   0.521  12.976 -0.6965  1.6084 -3.3888
12392TIP3   OH258666   0.978   2.781   1.699  0.7690 -0.1815 -0.6516
12392TIP3    H158667   0.940   2.697   1.724  0.4776  0.4956  1.2796
12392TIP3    H258668   1.047   2.797   1.763  1.3545  0.6866 -1.4713
12393TIP3   OH258669   3.050   2.654   2.811 -0.0943  0.2116 -0.4394
12393TIP3    H158670   3.132   2.633   2.767 -0.6764 -1.1480 -0.9127
12393TIP3    H258671   3.075   2.715   2.880  1.4769 -0.9799  0.0849
12394TIP3   OH258672   3.223   4.280   1.927  0.7584  0.4689 -0.0258
12394TIP3    H158673   3.160   4.226   1.879  2.1435 -1.9504  0.8065
12394TIP3    H258674   3.295   4.293   1.866  1.5206 -0.7407  0.5834
12395TIP3   OH258675   5.442   1.466   1.000  0.4411 -0.0169 -0.1540
12395TIP3    H158676   5.492   1.459   1.081 -0.6647  0.5821  0.5928
12395TIP3    H258677   5.477   1.544   0.956 -0.5074  1.0062  0.8611
12396TIP3   OH258678   5.200   6.347  12.216 -0.2118 -0.3017 -0.3995
12396TIP3    H158679   5.213   6.254  12.237  0.2116 -0.4936 -1.4682
12396TIP3    H258680   5.143   6.346  12.140 -0.1182  0.3183 -0.4765
12397TIP3   OH258681   3.086   4.987   5.814 -0.0386  0.2163 -0.3142
12397TIP3    H158682   3.177   4.959   5.807 -0.3547 -0.6401 -1.2063
12397TIP3    H258683   3.089   5.073   5.856  1.1658  0.1364 -0.2426
12398TIP3   OH258684   4.705   3.207   2.161 -0.1677  0.0623 -0.0255
12398TIP3    H158685   4.658   3.143   2.108 -1.9692  0.5356  0.9733
12398TIP3    H258686   4.637   3.250   2.213  1.1756  1.8641  0.2872
12399TIP3   OH258687   3.458   0.602  15.189  0.0928  0.2845 -0.4734
12399TIP3    H158688   3.552   0.618  15.200  0.4851 -1.5296 -0.9400
12399TIP3    H258689   3.454   0.539  15.117 -1.5995  1.6841 -1.6417
12400TIP3   OH258690   1.803   0.710   0.254 -0.7877  0.2378  0.1076
12400TIP3    H158691   1.819   0.792   0.206 -1.4387  0.7380  0.7182
12400TIP3    H258692   1.815   0.641   0.189 -2.4264  0.9437 -0.9929
12401TIP3   OH258693   6.291   6.200  16.057 -0.2548 -0.0757  0.0281
12401TIP3    H158694   6.287   6.270  15.993  0.1130  1.7585  1.9571
12401TIP3    H258695   6.201   6.170  16.067 -0.2977 -0.4391 -1.3765
12402TIP3   OH258696   5.353   4.619   5.425 -0.0388 -0.2439 -0.2333
12402TIP3    H158697   5.344   4.644   5.517  1.3015  1.0531 -0.4540
12402TIP3    H258698   5.298   4.681   5.378  2.1312  1.4098 -0.6397
12403TIP3   OH258699   1.775   2.227  14.439 -0.2908 -0.2115 -0.4921
12403TIP3    H158700   1.759   2.134  14.455 -0.2243  0.0868  1.4962
12403TIP3    H258701   1.689   2.268  14.443 -0.1747 -0.0069  0.0236
12404TIP3   OH258702   1.549   2.387  11.038 -0.6712 -0.2386  0.4270
12404TIP3    H158703   1.524   2.345  10.955 -0.8628  0.9429 -0.1279
12404TIP3    H258704   1.517   2.328  11.106  1.5248 -2.4065 -0.3334
12405TIP3   OH258705   2.544   5.101   0.868  0.3398 -0.6191 -0.0367
12405TIP3    H158706   2.457   5.089   0.904  0.7449 -2.0119  0.5288
12405TIP3    H258707   2.591   5.151   0.934 -0.4111  1.3635 -0.9561
12406TIP3   OH258708   0.282   5.306  13.027  0.5832  0.4578  0.4236
12406TIP3    H158709   0.310   5.276  12.941 -0.6010 -0.6768  0.4195
12406TIP3    H258710   0.252   5.227  13.072 -0.3839  1.2825  1.2567
12407TIP3   OH258711   1.977   0.181   6.354  0.5650  0.0674 -0.7131
12407TIP3    H158712   1.960   0.250   6.290 -0.0138  0.0124 -0.6172
12407TIP3    H258713   1.953   0.220   6.438  1.0053  0.0247 -0.5674
12408TIP3   OH258714   5.482   4.374   4.054  0.3459  0.0568 -0.7129
12408TIP3    H158715   5.395   4.392   4.090  1.2479  0.0785  1.5128
12408TIP3    H258716   5.500   4.284   4.079  1.7165  0.6301  0.4166
12409TIP3   OH258717   4.580   4.744   5.404  0.0845  0.4466 -0.0838
12409TIP3    H158718   4.608   4.704   5.486 -1.2011 -0.5216 -0.0896
12409TIP3    H258719   4.633   4.823   5.396 -0.5582  1.1499  2.2418
12410TIP3   OH258720   3.109   1.299  11.352 -0.0812  0.0897  0.0116
12410TIP3    H158721   3.080   1.264  11.436 -0.1554 -0.0037 -0.0525
12410TIP3    H258722   3.194   1.258  11.336  0.2251  0.5916  0.3404
12411TIP3   OH258723   0.165   3.675  14.732 -0.1745  0.0813 -0.5344
12411TIP3    H158724   0.162   3.659  14.638 -1.5781 -1.4544 -0.2535
12411TIP3    H258725   0.103   3.612  14.769  1.1644 -0.0767  1.5196
12412TIP3   OH258726   1.090   4.144  15.717 -0.1512  0.3787  0.2783
12412TIP3    H158727   1.132   4.185  15.642 -0.3332  1.8252  0.9273
12412TIP3    H258728   1.005   4.116  15.685 -0.3010  1.1573 -0.0124
12413TIP3   OH258729   3.894   2.293   5.207  0.2336  0.0752 -0.4761
12413TIP3    H158730   3.902   2.329   5.296 -2.0023  0.4655 -0.3904
12413TIP3    H258731   3.982   2.295   5.172  1.6457 -2.3602  2.6069
12414TIP3   OH258732   2.790   0.977  11.892  0.3950 -0.3343 -0.2745
12414TIP3    H158733   2.785   1.044  11.960 -1.8800 -0.3420 -0.3965
12414TIP3    H258734   2.742   1.014  11.818 -0.2738 -1.8041 -0.5959
12415TIP3   OH258735   0.829   0.153  12.615  0.0527  0.2032  0.4570
12415TIP3    H158736   0.857   0.081  12.558 -0.4227  1.6530 -1.6239
12415TIP3    H258737   0.905   0.169  12.671  0.6606 -0.9669 -0.0103
12416TIP3   OH258738   2.232   5.397   4.160  0.5896 -0.0493 -0.0806
12416TIP3    H158739   2.177   5.457   4.210 -0.4136 -1.7667  0.9531
12416TIP3    H258740   2.305   5.450   4.131 -0.0791  1.5861  1.1131
12417TIP3   OH258741   4.378   2.184  11.222 -0.4770 -0.1764  0.1606
12417TIP3    H158742   4.319   2.131  11.275 -0.6513 -0.3436 -0.1983
12417TIP3    H258743   4.385   2.137  11.138 -2.4138  1.5094 -0.9799
12418TIP3   OH258744   6.276   4.818  16.413 -0.3768 -0.5688 -0.2315
12418TIP3    H158745   6.325   4.782  16.339 -0.6719  1.3188 -1.4073
12418TIP3    H258746   6.184   4.801  16.391 -0.5378  1.1260 -0.9657
12419TIP3   OH258747   1.396   3.385   4.110 -0.4104  0.0474 -0.2015
12419TIP3    H158748   1.350   3.345   4.184  0.7408 -0.5038  0.2309
12419TIP3    H258749   1.427   3.469   4.144  0.6828 -0.4949  0.1446
12420TIP3   OH258750   5.622   1.390   3.072 -0.3215 -0.2969 -0.7328
12420TIP3    H158751   5.593   1.299   3.062 -0.6482 -0.0165 -2.5612
12420TIP3    H258752   5.700   1.396   3.017 -1.0634  0.8616 -1.6896
12421TIP3   OH258753   5.467   5.353  13.573  0.2864  0.1894 -0.1698
12421TIP3    H158754   5.394   5.291  13.564 -0.7917  1.3987  0.0073
12421TIP3    H258755   5.435   5.418  13.636  1.0224  1.4520 -1.0827
12422TIP3   OH258756   2.133   1.296  17.011 -0.5404  0.1045  0.2400
12422TIP3    H158757   2.082   1.243  16.950  0.4150 -2.0736  1.3098
12422TIP3    H258758   2.196   1.342  16.955 -0.7380 -0.6074 -0.5750
12423TIP3   OH258759   5.203   3.268   6.227 -0.2151 -0.5691  0.6769
12423TIP3    H158760   5.263   3.338   6.253  0.2488 -0.4728 -0.6235
12423TIP3    H258761   5.210   3.264   6.132 -0.9878 -1.7173  0.6544
12424TIP3   OH258762   5.949   5.971  12.236  0.2844 -0.2121 -0.1144
12424TIP3    H158763   6.029   6.020  12.216  0.1557 -0.4008 -1.1570
12424TIP3    H258764   5.943   5.907  12.165 -1.0982  0.1840 -0.3742
12425TIP3   OH258765   4.417   1.400  11.131  0.4278 -0.1120 -0.1428
12425TIP3    H158766   4.452   1.345  11.201  0.9361  0.5814  0.1593
12425TIP3    H258767   4.487   1.464  11.115  0.6323 -0.7417 -1.8112
12426TIP3   OH258768   4.977   3.053  13.119  0.2800 -0.4533 -0.7309
12426TIP3    H158769   4.914   2.998  13.074 -1.7160  0.9154  0.2831
12426TIP3    H258770   4.992   3.127  13.059  0.0619 -0.2261 -0.5084
12427TIP3   OH258771   0.845   2.155  12.950 -0.0118 -0.7630  0.6690
12427TIP3    H158772   0.842   2.079  13.007  0.1051  0.4097  2.2869
12427TIP3    H258773   0.919   2.207  12.983  0.1988 -0.1612 -0.6920
12428TIP3   OH258774   1.116   4.460  12.034 -0.1921 -0.5245 -0.2372
12428TIP3    H158775   1.128   4.532  12.096  0.8820  0.7225 -1.8222
12428TIP3    H258776   1.036   4.416  12.063 -0.3543  0.7489  1.3123
12429TIP3   OH258777   0.146   2.527   2.627  0.1492 -0.1802  0.0628
12429TIP3    H158778   0.083   2.548   2.695  1.0405 -0.6419  1.0543
12429TIP3    H258779   0.099   2.470   2.566 -1.4629  2.4241 -1.1965
12430TIP3   OH258780   1.476   3.538  14.969  0.3782 -0.3611  0.2295
12430TIP3    H158781   1.507   3.545  15.059 -0.4394 -2.4710  0.6980
12430TIP3    H258782   1.551   3.563  14.915  1.8001 -1.9914  1.4137
12431TIP3   OH258783   5.183   1.593   4.875  0.4858  0.0106 -0.3746
12431TIP3    H158784   5.118   1.546   4.824  0.4964 -0.4554  0.0353
12431TIP3    H258785   5.192   1.678   4.831 -0.3797  0.0716 -0.4350
12432TIP3   OH258786   1.959   2.641   0.840  0.6963 -0.6043  0.0246
12432TIP3    H158787   1.986   2.569   0.782  0.6485  0.0191 -0.7793
12432TIP3    H258788   1.917   2.705   0.782  2.3167  0.8853  0.4401
12433TIP3   OH258789   1.286   3.191   2.197  0.5459 -0.5469 -0.0608
12433TIP3    H158790   1.348   3.148   2.256  0.3008 -0.3377  0.3521
12433TIP3    H258791   1.239   3.253   2.253  1.7707  1.1797 -0.9187
12434TIP3   OH258792   5.162   6.629  12.829  0.4705  0.0704 -0.4287
12434TIP3    H158793   5.219   6.699  12.859  1.2358 -0.1787 -1.3033
12434TIP3    H258794   5.215   6.549  12.835  0.0118 -0.2555 -0.6282
12435TIP3   OH258795   2.572   3.458   3.872 -0.4688  0.3503  0.3902
12435TIP3    H158796   2.547   3.499   3.955  0.0867  0.6188  0.4216
12435TIP3    H258797   2.551   3.523   3.805 -1.9169 -0.2631  0.2079
12436TIP3   OH258798   4.156   4.127  10.577  0.3816 -0.0846  0.6650
12436TIP3    H158799   4.175   4.179  10.656 -2.1309  1.2622  0.4560
12436TIP3    H258800   4.194   4.178  10.505 -0.2781  0.4319  0.6756
12437TIP3   OH258801   1.002   0.547   6.576 -0.5227  0.0492  0.7903
12437TIP3    H158802   0.933   0.611   6.595 -2.1677 -1.6130  0.6250
12437TIP3    H258803   0.974   0.467   6.622  0.5031 -1.0973 -0.5213
12438TIP3   OH258804   0.982   1.153   5.774  0.3330  0.3624  0.0467
12438TIP3    H158805   0.992   1.229   5.831 -0.5718 -0.2989  1.1133
12438TIP3    H258806   0.998   1.078   5.832 -0.5897 -0.3237 -0.5789
12439TIP3   OH258807   1.287   6.477  12.322 -0.0094  0.1912 -0.2607
12439TIP3    H158808   1.194   6.497  12.312  0.0173  0.7289  0.5023
12439TIP3    H258809   1.295   6.445  12.412  0.4360 -0.4844 -0.5394
12440TIP3   OH258810   3.092   4.259  11.768 -0.0480 -0.0052 -0.2470
12440TIP3    H158811   3.031   4.185  11.765 -1.7685  1.3640  0.1093
12440TIP3    H258812   3.126   4.266  11.679 -0.6298 -0.6137 -0.5222
12441TIP3   OH258813   2.588   1.145   2.877 -0.4280 -0.6029 -0.5512
12441TIP3    H158814   2.609   1.112   2.965  1.2240  0.9098 -0.3621
12441TIP3    H258815   2.611   1.073   2.819  2.8224  0.0125 -0.1027
12442TIP3   OH258816   1.072   3.630  14.809 -0.0687 -0.3194  0.3918
12442TIP3    H158817   1.035   3.552  14.766  0.5636 -1.3393  1.6622
12442TIP3    H258818   0.999   3.691  14.812 -0.6462 -0.9441 -0.4166
12443TIP3   OH258819   0.134   4.685   3.829 -0.4039 -0.0256 -0.0672
12443TIP3    H158820   0.161   4.683   3.921  0.6695 -1.1745 -0.3876
12443TIP3    H258821   0.121   4.594   3.806 -1.1545  0.2939 -0.9255
12444TIP3   OH258822   0.903   6.316  12.711 -0.0728 -0.1653 -0.1064
12444TIP3    H158823   0.897   6.328  12.806  1.3487  0.1354 -0.0349
12444TIP3    H258824   0.945   6.231  12.701  1.3065  0.5387 -0.4303
12445TIP3   OH258825   2.971   4.946  14.681  0.6128 -0.3299 -0.5598
12445TIP3    H158826   3.026   5.023  14.670  0.7712 -0.4491 -0.6078
12445TIP3    H258827   2.935   4.930  14.594 -1.0803  0.9304 -0.1100
12446TIP3   OH258828   1.093   2.630  16.579 -0.2945  0.2146 -0.9900
12446TIP3    H158829   1.018   2.573  16.599  0.2892 -1.3684 -3.1268
12446TIP3    H258830   1.162   2.600  16.638 -0.9127  0.7760  0.0365
12447TIP3   OH258831   3.570   3.006  16.413  0.0187  0.4581 -0.1607
12447TIP3    H158832   3.643   3.049  16.457 -0.0991  0.5029 -0.0051
12447TIP3    H258833   3.591   2.913  16.417 -0.7453  0.3348  1.4006
12448TIP3   OH258834   4.319   2.468   2.079  0.0288  0.3745 -0.3506
12448TIP3    H158835   4.360   2.513   2.006  0.8932 -0.3022 -0.2799
12448TIP3    H258836   4.389   2.417   2.119 -0.2918  1.1668  1.2951
12449TIP3   OH258837   6.786   3.429   5.667  0.1842 -0.0711 -0.4058
12449TIP3    H158838   6.878   3.423   5.695  0.1189 -3.1266 -0.6504
12449TIP3    H258839   6.790   3.479   5.586  1.3119  2.0760  0.9350
12450TIP3   OH258840   5.058   1.767   3.234 -0.1345 -0.4573  0.3314
12450TIP3    H158841   4.993   1.800   3.172 -1.7958 -3.4030  0.4148
12450TIP3    H258842   5.140   1.764   3.184 -0.8567 -0.1886 -0.8820
12451TIP3   OH258843   4.214   5.719   5.014  0.7366  0.1764  0.2525
12451TIP3    H158844   4.147   5.663   4.974  1.5112  0.7615 -1.9299
12451TIP3    H258845   4.279   5.732   4.945  2.1317  1.2225  1.7214
12452TIP3   OH258846   1.028   0.312  16.613 -0.4784  0.4577 -0.2530
12452TIP3    H158847   0.973   0.234  16.619  0.2414 -0.0255 -0.0128
12452TIP3    H258848   0.985   0.365  16.546 -1.1321 -0.0050 -0.2124
12453TIP3   OH258849   0.053   3.806   2.050 -0.8830 -0.1796 -0.0484
12453TIP3    H158850   0.120   3.816   2.117 -0.5455  0.1303 -0.4316
12453TIP3    H258851   0.099   3.819   1.967 -1.7175  1.7165 -0.2506
12454TIP3   OH258852   1.137   5.155  14.593 -0.1355  0.1064 -0.4782
12454TIP3    H158853   1.201   5.155  14.664  1.2903 -0.7347 -1.7470
12454TIP3    H258854   1.160   5.231  14.540 -0.8939  0.4468 -0.3348
12455TIP3   OH258855   6.031   1.760  17.018 -0.2075  0.0879  0.1959
12455TIP3    H158856   6.029   1.837  17.075  0.0751  0.7899 -0.7289
12455TIP3    H258857   5.993   1.791  16.935  2.0363 -0.1362 -0.9469
12456TIP3   OH258858   5.259   6.121  15.163 -0.2201  0.3643 -0.0585
12456TIP3    H158859   5.166   6.100  15.163  0.3980 -2.5293  0.3672
12456TIP3    H258860   5.287   6.106  15.253  0.7984  0.5592 -0.3382
12457TIP3   OH258861   0.538   0.827  15.985  0.2215 -0.1939 -0.2207
12457TIP3    H158862   0.603   0.871  16.040  0.0034 -1.4294  1.0348
12457TIP3    H258863   0.490   0.898  15.943  0.8269  0.7524  0.6737
12458TIP3   OH258864   6.751   1.303   4.429 -0.1456  0.0856 -0.3580
12458TIP3    H158865   6.805   1.344   4.496  0.4382 -1.0397 -0.1445
12458TIP3    H258866   6.661   1.330   4.451 -0.0407 -0.8655  1.2983
12459TIP3   OH258867   1.230   0.680   3.548 -0.0790 -0.1006  0.0816
12459TIP3    H158868   1.289   0.750   3.578 -0.0585  0.8198 -2.0267
12459TIP3    H258869   1.144   0.721   3.545 -0.0768 -0.1816 -1.1176
12460TIP3   OH258870   1.439   5.269   2.651  0.1554 -0.0388 -0.5106
12460TIP3    H158871   1.441   5.181   2.689  1.4223  0.9131  1.6825
12460TIP3    H258872   1.485   5.259   2.567 -0.8191 -1.7230 -0.8603
12461TIP3   OH258873   1.503   6.317   1.197 -0.3535  0.2983 -0.0314
12461TIP3    H158874   1.575   6.381   1.198  0.3246 -0.4408 -0.5554
12461TIP3    H258875   1.537   6.242   1.246 -0.6467 -0.1744 -0.5424
12462TIP3   OH258876   3.409   0.090  13.659  0.5199 -0.7167  0.4029
12462TIP3    H158877   3.454   0.161  13.613 -0.3586 -0.4868 -0.1074
12462TIP3    H258878   3.477   0.049  13.713  1.0731  0.3810  0.5438
12463TIP3   OH258879   6.487   2.867   4.779 -0.0153 -0.0038  0.4315
12463TIP3    H158880   6.473   2.865   4.874 -0.6737  2.6348  0.4475
12463TIP3    H258881   6.401   2.886   4.742  0.4637  0.2389 -0.5941
12464TIP3   OH258882   3.163   3.142  10.671 -0.7490 -0.5463 -0.5083
12464TIP3    H158883   3.156   3.204  10.598 -0.2188 -0.0662 -0.1489
12464TIP3    H258884   3.109   3.180  10.740 -1.7629 -1.3145 -0.8507
12465TIP3   OH258885   5.594   1.210  15.739 -0.3470 -0.0288  0.0432
12465TIP3    H158886   5.593   1.232  15.646  1.8177  1.7197  0.4002
12465TIP3    H258887   5.502   1.210  15.764 -0.7492  3.8767 -1.1238
12466TIP3   OH258888   6.338   3.486   3.166  0.2847 -0.3925  0.2741
12466TIP3    H158889   6.317   3.401   3.203  1.4203 -0.3802  0.9559
12466TIP3    H258890   6.399   3.467   3.094 -0.1003 -0.2213 -0.1025
12467TIP3   OH258891   2.318   6.755  17.264  0.3309  0.3096  0.2159
12467TIP3    H158892   2.285   6.716  17.182 -0.3478  0.1819  0.5491
12467TIP3    H258893   2.268   6.711  17.333  0.6349  0.6933  0.6798
12468TIP3   OH258894   3.829   4.108  15.741 -0.5487 -0.7812  0.2094
12468TIP3    H158895   3.870   4.136  15.659  3.5966 -0.6110  2.1671
12468TIP3    H258896   3.797   4.189  15.781  1.1190 -0.3008  0.6086
12469TIP3   OH258897   4.030   6.214  13.867  0.3431 -0.1601 -0.1974
12469TIP3    H158898   3.975   6.166  13.928  1.6452 -0.4559  0.7814
12469TIP3    H258899   3.979   6.292  13.843 -2.0234 -2.2874 -2.2650
12470TIP3   OH258900   3.703   4.814   5.587 -0.0310 -0.4394  0.0490
12470TIP3    H158901   3.767   4.789   5.520 -0.8430  2.1211 -1.7417
12470TIP3    H258902   3.652   4.735   5.602  0.9983 -1.4099 -1.4109
12471TIP3   OH258903   2.904   2.335   6.840  0.1733  0.0046 -0.2771
12471TIP3    H158904   2.889   2.297   6.753 -0.5844 -0.2444 -0.0358
12471TIP3    H258905   2.982   2.390   6.828  0.5637 -0.6827 -0.9103
12472TIP3   OH258906   5.799   3.533  16.062  0.7046 -0.1830 -0.3446
12472TIP3    H158907   5.806   3.455  16.007  0.3648 -2.0366  2.1461
12472TIP3    H258908   5.852   3.512  16.139  0.8406  2.1929  0.2392
12473TIP3   OH258909   0.900   0.868   1.436  0.1375  0.0256 -0.0826
12473TIP3    H158910   0.908   0.787   1.386  1.0255 -0.1887  0.3990
12473TIP3    H258911   0.810   0.896   1.423  0.3480 -0.0421 -1.7973
12474TIP3   OH258912   4.855   4.354   0.347 -0.5245 -0.0936  0.6732
12474TIP3    H158913   4.799   4.297   0.294  2.0698 -1.3634 -0.7725
12474TIP3    H258914   4.894   4.414   0.284  0.5950  0.0553  1.5026
12475TIP3   OH258915   0.131   1.988  15.823  0.1341  0.5119 -0.5341
12475TIP3    H158916   0.100   1.906  15.862 -0.3060  0.8778 -0.1014
12475TIP3    H258917   0.149   1.966  15.732 -0.4319  0.0445 -0.5382
12476TIP3   OH258918   1.636   3.460  13.553  0.1030 -0.3306  0.2927
12476TIP3    H158919   1.656   3.512  13.631 -0.5313 -0.5142  0.5840
12476TIP3    H258920   1.644   3.522  13.480 -0.1209  0.0448  0.5860
12477TIP3   OH258921   1.459   6.791   0.786  0.0747 -0.2574 -0.1812
12477TIP3    H158922   1.405   6.858   0.828 -0.8385 -0.1606 -1.4781
12477TIP3    H258923   1.396   6.728   0.751  0.8801 -1.0563 -0.2174
12478TIP3   OH258924   1.757   1.137  14.196 -0.5936  0.8244  0.1795
12478TIP3    H158925   1.714   1.056  14.224  1.0039 -0.6548 -1.4894
12478TIP3    H258926   1.689   1.187  14.152 -1.6400  0.4538  1.3584
12479TIP3   OH258927   0.528   5.087  17.275 -0.4534 -0.0023  0.6607
12479TIP3    H158928   0.487   5.027  17.211  0.0514  0.1667  0.1773
12479TIP3    H258929   0.458   5.149  17.296 -0.4865  0.2224 -0.0862
12480TIP3   OH258930   5.991   2.723  14.075  0.4802  0.7439  0.1767
12480TIP3    H158931   6.074   2.739  14.031  2.0091 -1.5664  2.0433
12480TIP3    H258932   5.965   2.636  14.046 -0.2431  0.6251  1.1449
12481TIP3   OH258933   2.768   6.620   2.730 -0.1063 -0.5182  0.7034
12481TIP3    H158934   2.673   6.628   2.719  0.2954  0.0898 -2.8886
12481TIP3    H258935   2.787   6.530   2.704  0.2303 -0.8948  2.2158
12482TIP3   OH258936   2.373   3.538   4.449  0.2145  0.0805 -0.6903
12482TIP3    H158937   2.376   3.631   4.425  0.2491  0.0302 -0.8818
12482TIP3    H258938   2.286   3.509   4.421 -0.4765  0.4921  0.9793
12483TIP3   OH258939   2.910   3.047  13.200 -0.1024 -0.1781  0.1215
12483TIP3    H158940   2.848   3.009  13.262  1.4754 -1.1355  1.1231
12483TIP3    H258941   2.859   3.114  13.154 -1.6360 -0.3407  1.5381
12484TIP3   OH258942   1.712   3.102  14.463 -0.9020 -0.4290  0.6220
12484TIP3    H158943   1.708   3.060  14.377 -0.4777 -0.2658  0.5187
12484TIP3    H258944   1.793   3.153  14.460 -1.3662  0.3171  0.7800
12485TIP3   OH258945   6.158   3.867   3.361  0.1043 -0.5328  0.1024
12485TIP3    H158946   6.076   3.825   3.335 -0.5104  1.2715 -0.9093
12485TIP3    H258947   6.203   3.886   3.278 -0.7173  2.9520  0.3703
12486TIP3   OH258948   0.143   5.461  14.166  0.0086 -0.5150 -0.0225
12486TIP3    H158949   0.233   5.454  14.196 -0.0253 -1.1969 -0.0759
12486TIP3    H258950   0.146   5.523  14.093  0.5790 -1.2812 -0.6541
12487TIP3   OH258951   2.902   4.087  11.927 -0.8855 -0.1079 -0.0370
12487TIP3    H158952   2.838   4.046  11.869 -0.1135  0.4320 -1.2674
12487TIP3    H258953   2.880   4.180  11.925 -0.6403 -0.0408  0.2723
12488TIP3   OH258954   4.207   1.430  15.979  0.5193  0.1676 -0.3965
12488TIP3    H158955   4.174   1.388  16.058 -0.8725  0.1166 -0.9902
12488TIP3    H258956   4.210   1.523  16.001  0.7386  0.0837 -0.0717
12489TIP3   OH258957   2.712   3.311   3.670  0.0295  0.5007 -0.0362
12489TIP3    H158958   2.804   3.310   3.699 -0.2364  1.8568  0.8607
12489TIP3    H258959   2.666   3.363   3.736 -1.0423  1.4707 -1.5146
12490TIP3   OH258960   6.759   0.729   0.365  0.2434  0.5147 -0.2409
12490TIP3    H158961   6.762   0.823   0.347 -0.6838  0.6482  0.2477
12490TIP3    H258962   6.819   0.716   0.439  0.5817  0.6768 -0.4878
12491TIP3   OH258963   2.926   2.248  12.567 -0.1271  0.3513  0.4329
12491TIP3    H158964   3.000   2.187  12.560 -1.8693 -1.7564 -0.1255
12491TIP3    H258965   2.952   2.309  12.637 -0.1190 -3.6051  4.0816
12492TIP3   OH258966   1.162   2.860  16.428 -0.4776 -0.0424  0.1733
12492TIP3    H158967   1.255   2.871  16.408 -0.7064  0.2515 -0.7557
12492TIP3    H258968   1.161   2.802  16.504  0.4132 -1.6041 -0.9791
12493TIP3   OH258969   4.230   6.674  15.718 -0.3272  0.0546  0.0095
12493TIP3    H158970   4.259   6.765  15.728  2.0171 -0.5247 -1.1259
12493TIP3    H258971   4.267   6.628  15.793  0.2644 -0.3595 -0.5277
12494TIP3   OH258972   3.235   2.987   0.432  0.0713 -0.4064  0.6710
12494TIP3    H158973   3.200   3.074   0.410 -1.2926 -0.7196  1.5737
12494TIP3    H258974   3.317   3.006   0.477  1.0494  0.3409 -1.3479
12495TIP3   OH258975   6.252   5.093   2.313 -0.2841 -0.3902  0.1658
12495TIP3    H158976   6.200   5.013   2.325  0.2370 -0.1181  5.2259
12495TIP3    H258977   6.340   5.068   2.340  0.8206  0.9479 -2.0196
12496TIP3   OH258978   2.730   4.045  15.866 -0.0842  0.0505  0.3400
12496TIP3    H158979   2.662   3.978  15.860 -0.4824  0.4642  0.2027
12496TIP3    H258980   2.812   3.996  15.879  0.2980 -0.7216 -4.1663
12497TIP3   OH258981   1.281   0.819  12.892  0.1998 -0.1439 -0.2835
12497TIP3    H158982   1.186   0.808  12.902  0.2353 -2.1324 -1.9726
12497TIP3    H258983   1.300   0.899  12.941 -2.1673 -0.3540  1.0807
12498TIP3   OH258984   6.414   2.468  12.920 -0.0148 -0.0494  0.4449
12498TIP3    H158985   6.395   2.552  12.878  1.5113 -0.4586 -1.1207
12498TIP3    H258986   6.485   2.488  12.982 -0.0052 -0.0745  0.4417
12499TIP3   OH258987   1.050   0.647   5.605  0.9334  0.2440  0.6962
12499TIP3    H158988   1.088   0.617   5.522 -0.5668 -0.4434  0.2358
12499TIP3    H258989   1.111   0.713   5.637  2.8328 -1.2702  0.2979
12500TIP3   OH258990   3.274   5.103  15.314 -0.0088 -0.2021 -0.1851
12500TIP3    H158991   3.251   5.124  15.224 -2.1380 -1.6070 -0.0180
12500TIP3    H258992   3.235   5.016  15.329 -0.0308  0.1754  2.1947
12501TIP3   OH258993   3.266   4.666  13.454 -0.2641  0.6811  0.1244
12501TIP3    H158994   3.288   4.681  13.363  0.0848 -0.4489  0.0190
12501TIP3    H258995   3.291   4.575  13.471 -1.0536  0.6335  1.1214
12502TIP3   OH258996   0.038   6.682   0.330 -1.1643  0.0672 -0.5448
12502TIP3    H158997  -0.054   6.681   0.358 -0.4477 -0.4242  1.8671
12502TIP3    H258998   0.071   6.595   0.351  0.6533  1.1961  1.4356
12503TIP3   OH258999   3.526   5.762   1.235  0.3204 -0.3887 -0.2071
12503TIP3    H159000   3.579   5.746   1.313 -1.2634 -0.3510  0.9025
12503TIP3    H259001   3.581   5.817   1.179  0.9817  0.6621  1.4455
12504TIP3   OH259002   3.981   6.541   1.208  0.5076  0.5705 -0.6141
12504TIP3    H159003   4.055   6.597   1.187  0.3442  1.5569  1.2893
12504TIP3    H259004   3.921   6.597   1.257 -0.5559 -0.7581 -0.3425
12505TIP3   OH259005   3.515   2.962   0.522 -0.7498 -0.2805 -0.6431
12505TIP3    H159006   3.580   2.925   0.581 -2.0987  2.3394  2.6848
12505TIP3    H259007   3.555   3.044   0.491 -2.1630  1.0695  0.9979
12506TIP3   OH259008   1.362   5.047  10.859 -0.4049  0.2231 -0.1637
12506TIP3    H159009   1.455   5.027  10.847  0.0717  1.7001  0.9421
12506TIP3    H259010   1.316   4.982  10.805  1.2838 -0.0368 -1.3093
12507TIP3   OH259011   4.869   5.005  17.201 -0.1559 -0.8250  0.1837
12507TIP3    H159012   4.922   5.085  17.200  0.4816 -1.2415 -0.6409
12507TIP3    H259013   4.780   5.035  17.218  0.5708 -0.2674  3.2465
12508TIP3   OH259014   2.596   1.258   2.450  0.2982  0.3046 -0.3476
12508TIP3    H159015   2.527   1.292   2.393 -0.1554 -0.5204 -0.2997
12508TIP3    H259016   2.581   1.163   2.451  1.0792  0.1869  0.1257
12509TIP3   OH259017   5.370   6.818  11.839 -0.0235 -0.2062  0.0659
12509TIP3    H159018   5.434   6.811  11.910  0.5962 -0.7005 -0.5262
12509TIP3    H259019   5.324   6.900  11.856  0.9092  0.2556  0.3946
12510TIP3   OH259020   2.839   4.006   1.428  0.3230 -0.0691 -0.9058
12510TIP3    H159021   2.793   3.922   1.431 -1.3895  0.8478 -1.0533
12510TIP3    H259022   2.830   4.042   1.516  4.0216 -1.5507  0.1732
12511TIP3   OH259023   0.765   5.661   5.034  0.3488 -0.3472 -0.2933
12511TIP3    H159024   0.810   5.701   5.108  0.4135  1.1409 -1.1131
12511TIP3    H259025   0.687   5.622   5.072 -0.4611  1.8126  0.3521
12512TIP3   OH259026   6.078   4.220  12.910 -0.0020 -0.3277  0.4263
12512TIP3    H159027   6.149   4.220  12.846 -0.1992  1.2486  0.1826
12512TIP3    H259028   6.001   4.192  12.860 -0.3597  1.8452 -0.2975
12513TIP3   OH259029   2.844   3.987  16.846 -0.6918 -0.6783 -0.1902
12513TIP3    H159030   2.889   3.924  16.903  0.5600  0.1467 -0.2474
12513TIP3    H259031   2.819   4.058  16.904 -0.3097 -0.3014 -0.4838
12514TIP3   OH259032   4.975   0.872  17.254  0.1818  0.3574  0.4205
12514TIP3    H159033   4.928   0.922  17.320 -1.4045 -0.5932  0.0332
12514TIP3    H259034   5.008   0.938  17.193 -0.8761  1.0070  0.5486
12515TIP3   OH259035   6.498   4.247   2.782  0.3645 -0.6236 -0.4586
12515TIP3    H159036   6.511   4.295   2.700 -0.1130  0.2026 -0.0546
12515TIP3    H259037   6.585   4.245   2.823  0.3599  0.0227 -0.4131
12516TIP3   OH259038   4.061   5.897   3.440 -0.6892  0.3086 -0.7294
12516TIP3    H159039   4.139   5.864   3.485 -0.3976  1.9296 -0.0165
12516TIP3    H259040   3.996   5.908   3.509 -1.2069 -0.0056 -1.1628
12517TIP3   OH259041   2.017   4.728   3.569 -0.0593  0.0101 -0.3913
12517TIP3    H159042   2.078   4.708   3.640  0.3532 -0.9032 -0.9854
12517TIP3    H259043   1.967   4.803   3.600 -0.2862 -0.7456  1.0954
12518TIP3   OH259044   3.861   6.444  15.959 -0.6337  0.3444  0.7698
12518TIP3    H159045   3.834   6.413  16.046 -0.6025  0.3043  0.7647
12518TIP3    H259046   3.779   6.465  15.914 -0.6244  0.8833  1.0014
12519TIP3   OH259047   3.078   5.269   4.482  0.5293 -1.1576 -0.3227
12519TIP3    H159048   3.107   5.344   4.431 -1.0723 -1.3804 -1.6007
12519TIP3    H259049   3.113   5.284   4.570 -1.0741  1.8778 -0.1460
12520TIP3   OH259050   2.419   3.144   1.928 -0.4911 -0.0324 -0.1316
12520TIP3    H159051   2.437   3.101   1.844  1.3645  0.9875 -0.2791
12520TIP3    H259052   2.446   3.080   1.994 -3.3622 -1.4511 -0.2289
12521TIP3   OH259053   1.133   5.857  11.681  0.5258 -0.0587 -0.2825
12521TIP3    H159054   1.167   5.946  11.671  2.1679 -0.7536 -1.1516
12521TIP3    H259055   1.212   5.801  11.682 -0.4344 -1.4327  1.0019
12522TIP3   OH259056   1.377   0.193  16.420 -0.1105 -0.2449 -0.0816
12522TIP3    H159057   1.306   0.131  16.401  0.4276 -0.7876 -0.3212
12522TIP3    H259058   1.331   0.275  16.440 -0.7624  0.0315 -2.4880
12523TIP3   OH259059   1.563   2.254  13.734  0.3114 -0.2504 -0.1676
12523TIP3    H159060   1.636   2.263  13.674  0.1706  0.2884 -0.2583
12523TIP3    H259061   1.581   2.173  13.782 -0.3842 -1.5503 -2.0510
12524TIP3   OH259062   1.098   4.462  13.706  0.0058 -0.0353  0.2598
12524TIP3    H159063   1.036   4.512  13.758 -0.6524 -3.1507  2.6236
12524TIP3    H259064   1.044   4.400  13.657  0.9715 -0.0678 -0.8002
12525TIP3   OH259065   6.298   2.215  13.436  0.2578 -0.0195 -0.3235
12525TIP3    H159066   6.289   2.296  13.487 -2.5485 -0.6789  0.3401
12525TIP3    H259067   6.252   2.234  13.354 -1.0034 -1.1379  0.1103
12526TIP3   OH259068   4.031   0.839  12.271 -0.3644  0.1165 -0.2749
12526TIP3    H159069   3.976   0.855  12.347 -1.7037  0.5188 -1.3139
12526TIP3    H259070   4.056   0.747  12.279  0.4584  0.4526  1.2510
12527TIP3   OH259071   5.640   1.030  12.888 -0.9503 -0.2129 -0.1295
12527TIP3    H159072   5.630   0.983  12.971  0.6321 -1.4785 -0.6441
12527TIP3    H259073   5.594   1.113  12.903 -1.6491 -0.8745  1.6257
12528TIP3   OH259074   3.601   2.272   6.680  0.2360  0.5734  0.3511
12528TIP3    H159075   3.562   2.330   6.615 -0.9176  0.1387  0.6501
12528TIP3    H259076   3.550   2.288   6.760  1.2346  0.6456  0.9806
12529TIP3   OH259077   0.570   4.443   3.885 -0.7249 -0.3787 -0.0288
12529TIP3    H159078   0.535   4.366   3.841  0.6857 -0.5969 -0.8136
12529TIP3    H259079   0.656   4.455   3.846  0.3094 -0.1874  2.2737
12530TIP3   OH259080   6.481   1.860   4.176  0.0339  0.1307  0.1267
12530TIP3    H159081   6.447   1.950   4.178  0.8819  0.4373  2.2447
12530TIP3    H259082   6.568   1.867   4.216  0.8506 -1.3489 -1.3369
12531TIP3   OH259083   5.713   1.603   5.156 -0.7811 -0.2965  0.1368
12531TIP3    H159084   5.724   1.623   5.063  1.7632 -3.2495 -0.2530
12531TIP3    H259085   5.639   1.658   5.183 -0.4562  1.9275 -3.1733
12532TIP3   OH259086   5.880   2.221  13.916  0.5271 -0.5262 -0.5853
12532TIP3    H159087   5.792   2.199  13.945  1.8208 -5.3389  0.1076
12532TIP3    H259088   5.885   2.190  13.826  1.1780  0.7764 -1.0158
12533TIP3   OH259089   5.801   6.753  15.593 -0.0923 -0.0788  0.0472
12533TIP3    H159090   5.895   6.769  15.587  0.0075 -1.0180 -1.0079
12533TIP3    H259091   5.774   6.799  15.672  1.1086  0.8723 -0.0841
12534TIP3   OH259092   3.091   0.492   5.592  0.3867 -0.4678  0.3458
12534TIP3    H159093   3.015   0.438   5.616 -0.0943 -0.2977 -0.7641
12534TIP3    H259094   3.056   0.580   5.584  0.8461 -0.2700  0.4982
12535TIP3   OH259095   3.919   2.723   4.625  0.0396  0.3964  0.1946
12535TIP3    H159096   3.830   2.726   4.659 -0.0536  1.5116 -0.0980
12535TIP3    H259097   3.937   2.814   4.599  1.5526  0.3415  1.0077
12536TIP3   OH259098   6.012   0.767  15.850 -0.0293 -0.0072  0.0716
12536TIP3    H159099   5.985   0.694  15.795 -0.6583 -0.7260  1.2952
12536TIP3    H259100   6.080   0.730  15.907  1.2348  0.9479 -0.7974
12537TIP3   OH259101   4.084   0.274  12.089 -0.2253 -0.2932  0.1661
12537TIP3    H159102   4.136   0.215  12.143  0.5032 -0.8077 -1.0877
12537TIP3    H259103   4.140   0.293  12.014 -1.5167 -0.1524 -0.7640
12538TIP3   OH259104   2.803   2.002  13.509  0.3009  0.5567 -0.1203
12538TIP3    H159105   2.786   2.054  13.430 -2.7403  0.5258  0.4672
12538TIP3    H259106   2.811   1.913  13.477 -0.9107  0.5465 -0.3911
12539TIP3   OH259107   1.022   1.719   5.081 -0.0328  0.7608 -0.0281
12539TIP3    H159108   1.061   1.778   5.146 -1.0684  2.0342 -0.5221
12539TIP3    H259109   1.057   1.748   4.997 -0.9119  1.0024 -0.3241
12540TIP3   OH259110   0.403   6.405  16.857 -0.1969 -0.2097 -0.0428
12540TIP3    H159111   0.448   6.425  16.939 -1.2608  0.7403  0.3269
12540TIP3    H259112   0.319   6.368  16.884 -1.2058  1.5567 -0.6622
12541TIP3   OH259113   5.556   0.438   0.369  0.1738 -0.2778  0.4915
12541TIP3    H159114   5.519   0.466   0.452  0.8189  0.8267  0.4142
12541TIP3    H259115   5.613   0.365   0.392  2.3195  1.6220  1.3938
12542TIP3   OH259116   6.588   1.443   5.879  0.2049 -0.1164  0.2212
12542TIP3    H159117   6.533   1.507   5.925  0.8548  0.5335  0.1108
12542TIP3    H259118   6.594   1.477   5.790  1.5416  0.3158  0.4656
12543TIP3   OH259119   3.510   6.185   4.607 -0.5589 -0.1562  0.3529
12543TIP3    H159120   3.605   6.168   4.606 -0.5759 -0.2441 -0.3971
12543TIP3    H259121   3.488   6.201   4.515 -1.4732 -1.2036  0.3848
12544TIP3   OH259122   1.256   2.147   4.668  0.8071  0.2940  0.2992
12544TIP3    H159123   1.276   2.095   4.591 -0.0886 -0.9197  0.8684
12544TIP3    H259124   1.286   2.095   4.742 -2.7090 -0.8193  1.0648
12545TIP3   OH259125   1.068   5.122  16.596 -0.1877 -0.1486 -0.7587
12545TIP3    H159126   1.107   5.209  16.607 -1.2482  0.4602 -1.6952
12545TIP3    H259127   1.055   5.114  16.501 -0.3368 -1.2199 -0.6487
12546TIP3   OH259128   0.839   0.074  17.112  0.2158  0.0858  0.1133
12546TIP3    H159129   0.797  -0.011  17.119 -1.7145  0.9308 -0.7226
12546TIP3    H259130   0.826   0.115  17.197  1.3216 -0.5081  0.5840
12547TIP3   OH259131   6.721   0.738   6.152  0.2949  1.2758  0.4244
12547TIP3    H159132   6.694   0.753   6.062 -0.8642  1.3510  0.7762
12547TIP3    H259133   6.657   0.786   6.205 -0.4797 -0.7238  1.3735
12548TIP3   OH259134   3.321   6.412   0.342 -0.2050  0.0168 -0.3281
12548TIP3    H159135   3.403   6.417   0.292 -0.1102 -0.2344 -0.1992
12548TIP3    H259136   3.256   6.453   0.285 -0.0926 -0.2533 -0.6555
12549TIP3   OH259137   0.942   4.556   0.307 -0.2246 -0.1547  0.2852
12549TIP3    H159138   0.859   4.509   0.297 -0.2421 -0.2544  0.8801
12549TIP3    H259139   0.918   4.648   0.299 -0.3199 -0.2022 -0.0108
12550TIP3   OH259140   4.594   4.749  11.810  0.4048 -0.2540 -0.2232
12550TIP3    H159141   4.633   4.696  11.741 -0.4082  1.2578 -1.8864
12550TIP3    H259142   4.504   4.717  11.817  0.5066 -0.4490  0.1598
12551TIP3   OH259143   2.159   0.822   5.031  0.5335 -0.1236  0.4266
12551TIP3    H159144   2.248   0.811   5.063  0.5890 -2.5475 -0.4559
12551TIP3    H259145   2.159   0.781   4.944 -1.4926 -0.4450  0.5413
12552TIP3   OH259146   6.219   0.232  16.484  0.1215  0.3463 -0.1077
12552TIP3    H159147   6.161   0.288  16.536  0.9632  0.2538  0.9419
12552TIP3    H259148   6.217   0.270  16.396 -2.2924 -0.2188 -0.3411
12553TIP3   OH259149   1.878   1.967  15.965 -0.9892 -0.3428  0.2442
12553TIP3    H159150   1.821   2.043  15.967  0.9220  1.1698 -1.2275
12553TIP3    H259151   1.964   2.001  15.940  0.1575 -2.8161  0.6095
12554TIP3   OH259152   4.680   5.747  16.095 -0.0923 -0.7417 -0.3241
12554TIP3    H159153   4.672   5.835  16.058  0.8665 -0.7521 -0.5665
12554TIP3    H259154   4.764   5.747  16.140 -0.2059 -1.4561 -0.0990
12555TIP3   OH259155   4.495   5.442  11.751  0.3139  0.0732  0.3299
12555TIP3    H159156   4.485   5.381  11.824  0.7696 -1.1389 -0.6198
12555TIP3    H259157   4.588   5.441  11.730 -0.0479 -0.8499 -1.3380
12556TIP3   OH259158   4.094   0.126  14.846  0.4592  0.5957 -0.0883
12556TIP3    H159159   4.183   0.134  14.880  0.1895  1.4333  0.4310
12556TIP3    H259160   4.082   0.204  14.791  0.2186  0.2318 -0.5546
12557TIP3   OH259161   5.399   2.835   4.757 -0.1126  0.1953 -0.0709
12557TIP3    H159162   5.308   2.861   4.743 -0.7829 -1.2706  1.5378
12557TIP3    H259163   5.430   2.894   4.826 -0.5476 -0.8291  1.0124
12558TIP3   OH259164   4.904   0.400  16.701  0.1042 -0.1802 -0.1005
12558TIP3    H159165   4.881   0.341  16.629 -0.4163  1.4615 -1.2990
12558TIP3    H259166   4.891   0.347  16.779 -2.9231 -0.9117 -1.0003
12559TIP3   OH259167   6.113   2.494  14.849 -0.0668  0.6678  0.1147
12559TIP3    H159168   6.075   2.581  14.844  0.5080  1.0559  2.0576
12559TIP3    H259169   6.055   2.446  14.907 -0.8026 -0.5052 -1.5431
12560TIP3   OH259170   0.306   0.448   3.892 -0.1553 -0.0489  0.4600
12560TIP3    H159171   0.283   0.540   3.882 -1.2148 -0.1129  2.0883
12560TIP3    H259172   0.401   0.445   3.875 -0.3518  1.1156 -0.9016
12561TIP3   OH259173   6.073   3.784  16.091  0.1287  0.5894 -0.0201
12561TIP3    H159174   6.104   3.868  16.125  2.4691 -0.0866 -0.4208
12561TIP3    H259175   6.012   3.808  16.020  0.0949  1.9406  0.4469
12562TIP3   OH259176   6.467   1.901  16.080 -0.2200  0.2816  0.3910
12562TIP3    H159177   6.377   1.930  16.065 -0.0837  0.7462  0.4622
12562TIP3    H259178   6.469   1.811  16.047 -0.3703  0.7066 -0.8250
12563TIP3   OH259179   4.981   1.284  14.884  0.2245  0.9333  0.1805
12563TIP3    H159180   4.969   1.189  14.881 -1.7062  1.1846 -1.1694
12563TIP3    H259181   4.924   1.312  14.956 -1.0172  1.2795 -0.9085
12564TIP3   OH259182   2.584   3.458   3.098  0.2687  0.0298 -0.1688
12564TIP3    H159183   2.607   3.430   3.187  2.2593  0.7320 -0.4435
12564TIP3    H259184   2.664   3.497   3.064 -0.8929  1.0499 -1.7781
12565TIP3   OH259185   3.287   3.799  14.454 -0.0051 -0.2928  0.1652
12565TIP3    H159186   3.314   3.711  14.427  1.1420 -0.0262  0.4323
12565TIP3    H259187   3.368   3.844  14.475 -0.6313  0.6539  0.5974
12566TIP3   OH259188   6.399   5.771   4.503 -0.2505 -0.6152  0.4090
12566TIP3    H159189   6.360   5.710   4.565 -0.4203 -1.9484 -0.9864
12566TIP3    H259190   6.485   5.791   4.540  0.8968 -3.7432 -0.3768
12567TIP3   OH259191   6.158   6.122  11.853 -0.9295 -0.1876  0.1416
12567TIP3    H159192   6.243   6.079  11.846 -0.4615  0.7584  0.0152
12567TIP3    H259193   6.109   6.091  11.777 -0.0839  0.6249 -0.7386
12568TIP3   OH259194   2.060   4.152   6.625  0.8209  0.1164  0.2613
12568TIP3    H159195   2.097   4.167   6.712  2.1765  1.4180 -0.5078
12568TIP3    H259196   2.036   4.240   6.593 -1.7859 -0.5780  0.2212
12569TIP3   OH259197   5.302   1.728   5.559  0.4290  0.6631 -0.1477
12569TIP3    H159198   5.339   1.759   5.477  1.0755  0.1945 -0.0414
12569TIP3    H259199   5.286   1.807   5.611  0.3925  0.9297 -0.5658
12570TIP3   OH259200   4.178   2.903   2.529  0.0980 -0.1670 -0.2049
12570TIP3    H159201   4.119   2.869   2.461 -1.3594 -1.3819  1.6068
12570TIP3    H259202   4.200   2.992   2.500 -1.5778 -0.1764 -1.5754
12571TIP3   OH259203   4.059   2.443  14.738  0.0631  0.4968  0.1324
12571TIP3    H159204   4.091   2.434  14.828 -0.5603 -2.2640  0.1361
12571TIP3    H259205   4.133   2.419  14.683 -0.2174 -0.0282 -0.0207
12572TIP3   OH259206   6.646   4.981   5.770  0.1422  0.2610 -0.0294
12572TIP3    H159207   6.574   5.033   5.735  0.4029  1.2787  0.9222
12572TIP3    H259208   6.626   4.970   5.863  0.0951 -1.3444 -0.2011
12573TIP3   OH259209   1.104   2.982   4.878  0.1092 -0.3542  0.0176
12573TIP3    H159210   1.143   2.971   4.791 -0.2132 -0.7192 -0.0811
12573TIP3    H259211   1.156   2.924   4.935  0.8121  0.4591  0.2243
12574TIP3   OH259212   3.594   4.981   0.934 -0.2639  0.2534 -0.5039
12574TIP3    H159213   3.611   5.001   0.842  0.2721 -0.7228 -0.6236
12574TIP3    H259214   3.681   4.971   0.973 -0.4818  1.2720  0.2488
12575TIP3   OH259215   5.449   5.466   3.052  0.0023 -0.5476  0.4936
12575TIP3    H159216   5.370   5.518   3.064 -0.1286  0.4755 -3.7791
12575TIP3    H259217   5.520   5.521   3.083 -0.5511  0.4270  0.0454
12576TIP3   OH259218   5.934   1.075   1.877  0.1681  0.7723  0.2453
12576TIP3    H159219   5.893   1.159   1.898 -5.4363 -1.3980 -1.2692
12576TIP3    H259220   5.918   1.062   1.784 -0.6032 -2.7241  0.7804
12577TIP3   OH259221   2.794   6.113  14.049  0.1302 -0.4241 -0.0113
12577TIP3    H159222   2.769   6.020  14.045  0.0930 -0.4389  0.4958
12577TIP3    H259223   2.711   6.160  14.058  0.1655 -0.3592 -0.0226
12578TIP3   OH259224   6.151   6.216   4.055 -0.1812 -0.0448  0.3642
12578TIP3    H159225   6.077   6.157   4.068 -0.6768  0.2910 -0.8191
12578TIP3    H259226   6.111   6.301   4.034  0.5291  0.4001  0.7613
12579TIP3   OH259227   0.875   1.472   3.579  0.1252 -0.0295  0.5941
12579TIP3    H159228   0.862   1.556   3.623  0.6067  0.8294 -0.8448
12579TIP3    H259229   0.916   1.416   3.644  0.3761  1.0571  1.3804
12580TIP3   OH259230   6.229   2.776  13.925 -0.7177  0.1825 -0.1006
12580TIP3    H159231   6.150   2.772  13.871 -0.9287  1.8527  0.0389
12580TIP3    H259232   6.252   2.869  13.925  0.4900 -0.1085  0.9534
12581TIP3   OH259233   2.508   2.906  17.049  0.0717 -0.2220 -0.5130
12581TIP3    H159234   2.461   2.931  17.128 -0.2481  0.1562 -0.8172
12581TIP3    H259235   2.590   2.867  17.080  0.0804  0.1988 -0.0052
12582TIP3   OH259236   6.756   4.831  16.088  0.0427 -0.3576 -0.1605
12582TIP3    H159237   6.708   4.749  16.077  0.0957 -0.7353  2.1415
12582TIP3    H259238   6.726   4.866  16.172  1.0497  1.2748 -0.4463
12583TIP3   OH259239   1.978   0.767  15.712  0.0314 -0.4580  0.5657
12583TIP3    H159240   1.968   0.760  15.617  1.5918  0.2745  0.3421
12583TIP3    H259241   2.048   0.831  15.724 -3.4068  3.2243  2.2615
12584TIP3   OH259242   0.068   4.030  15.179  0.2365  0.4687 -0.7224
12584TIP3    H159243   0.134   3.997  15.118  0.4365 -0.9532  0.2245
12584TIP3    H259244   0.028   4.104  15.134  1.1592  0.1446 -2.1028
12585TIP3   OH259245   3.649   3.089   4.596  0.1437  0.3132  0.4688
12585TIP3    H159246   3.672   3.157   4.534  0.7643  0.0688  0.4262
12585TIP3    H259247   3.724   3.029   4.594  0.1269  0.2558  1.3709
12586TIP3   OH259248   3.800   3.781  16.500 -0.4873 -0.1822 -0.0073
12586TIP3    H159249   3.780   3.785  16.593 -0.9746 -1.4574 -0.0520
12586TIP3    H259250   3.848   3.862  16.482 -0.7171  0.2378  1.2667
12587TIP3   OH259251   3.029   1.219  16.851 -0.2809  0.1544 -0.1136
12587TIP3    H159252   3.116   1.181  16.861 -0.4834 -0.5576 -0.9751
12587TIP3    H259253   2.975   1.175  16.918  0.8861  3.4730  3.2106
12588TIP3   OH259254   0.106   1.088  11.683  0.2496  0.2040 -0.1290
12588TIP3    H159255   0.061   1.145  11.746  1.3322  0.2083  0.6576
12588TIP3    H259256   0.135   1.146  11.614 -0.6634  0.2487 -0.4883
12589TIP3   OH259257   5.038   1.180  11.057 -0.2057  0.3177  0.2295
12589TIP3    H159258   5.105   1.234  11.015  0.1265  0.9517  1.5586
12589TIP3    H259259   4.960   1.235  11.058 -0.4322  0.0097 -0.2620
12590TIP3   OH259260   2.975   6.672   5.786 -0.2433  0.0112  0.0323
12590TIP3    H159261   3.047   6.633   5.834  0.3843  0.5609 -0.4538
12590TIP3    H259262   2.922   6.716   5.853  0.0139 -0.1698  0.3524
12591TIP3   OH259263   2.591   4.733  15.860 -0.0419  0.2728 -0.0512
12591TIP3    H159264   2.625   4.736  15.949  1.0941 -0.6602 -0.4489
12591TIP3    H259265   2.665   4.759  15.805 -0.9415  1.5588 -0.6907
12592TIP3   OH259266   5.318   1.355   0.100 -0.1993  0.2142 -0.2093
12592TIP3    H159267   5.391   1.358   0.163 -0.8715  1.2410  0.5449
12592TIP3    H259268   5.359   1.335   0.016  0.5451 -2.7734  0.8129
12593TIP3   OH259269   6.084   1.488  11.658 -0.3552  0.3979  0.2849
12593TIP3    H159270   6.092   1.398  11.628  0.2967  0.8052 -0.8100
12593TIP3    H259271   6.174   1.520  11.662 -0.6619  1.4429 -0.7692
12594TIP3   OH259272   0.386   3.437   6.505 -0.3580 -0.2244 -0.4408
12594TIP3    H159273   0.307   3.398   6.542 -0.7129  0.4484 -0.4854
12594TIP3    H259274   0.358   3.472   6.421 -0.0103  0.0334 -0.4485
12595TIP3   OH259275   5.069   1.176   0.205 -0.5923  0.2521 -0.1545
12595TIP3    H159276   5.049   1.158   0.113 -0.8327  0.2943 -0.1089
12595TIP3    H259277   5.157   1.215   0.202  0.6578 -2.4892 -0.0848
12596TIP3   OH259278   6.173   3.275  11.444  0.5925 -0.3911  0.3068
12596TIP3    H159279   6.231   3.199  11.437  0.0372 -0.9572  1.5889
12596TIP3    H259280   6.226   3.341  11.489  0.7058 -0.4201  0.2159
12597TIP3   OH259281   0.651   3.151  13.886  0.0949  0.2616  0.0912
12597TIP3    H159282   0.705   3.198  13.823  0.9064 -1.0388 -0.2057
12597TIP3    H259283   0.562   3.181  13.869  0.2473 -0.3051 -1.9205
12598TIP3   OH259284   5.884   0.805  11.674  0.0944  0.1220  0.3621
12598TIP3    H159285   5.952   0.751  11.633 -0.5734 -0.1613 -0.3868
12598TIP3    H259286   5.825   0.742  11.715 -0.8524  0.2488 -0.7692
12599TIP3   OH259287   2.672   5.997   1.438  0.1481 -0.4407  0.0713
12599TIP3    H159288   2.659   6.058   1.365 -1.6044 -0.7546  0.1146
12599TIP3    H259289   2.745   5.942   1.409  0.5069  0.4549 -0.7700
12600TIP3   OH259290   0.323   0.846  16.227 -0.0646 -0.5753  0.0276
12600TIP3    H159291   0.387   0.894  16.279  0.5721 -1.5492  0.1490
12600TIP3    H259292   0.259   0.814  16.291  0.7117 -1.7625  0.2179
12601TIP3   OH259293   5.614   3.773   5.453  0.0110  0.1029  0.4848
12601TIP3    H159294   5.590   3.741   5.540 -0.3075  1.4942  0.9052
12601TIP3    H259295   5.560   3.851   5.440 -0.1854 -0.2670 -1.0951
12602TIP3   OH259296   0.936   6.138   4.156 -0.0926  0.1668  0.2784
12602TIP3    H159297   0.955   6.114   4.247 -0.9933  0.6892  0.6094
12602TIP3    H259298   0.844   6.114   4.144  0.3293 -0.9396 -0.8446
12603TIP3   OH259299   1.216   5.821   1.637  0.0158 -0.8189  0.2494
12603TIP3    H159300   1.254   5.900   1.598 -1.4594 -0.4425 -0.4779
12603TIP3    H259301   1.279   5.794   1.703  1.2721  0.0909 -0.5530
12604TIP3   OH259302   3.400   1.828  15.188  0.5032 -0.4027 -0.6466
12604TIP3    H159303   3.430   1.905  15.236 -2.4619  0.2409  0.2828
12604TIP3    H259304   3.457   1.757  15.218  2.5149  1.1837 -0.6619
12605TIP3   OH259305   1.738   5.768   2.337  0.2985 -0.3084 -0.0062
12605TIP3    H159306   1.826   5.805   2.322  0.8559 -1.4231  0.4896
12605TIP3    H259307   1.723   5.710   2.262 -0.6566  1.0382 -0.8821
12606TIP3   OH259308   5.446   2.047  14.561  0.4982 -0.6102  0.6385
12606TIP3    H159309   5.425   1.981  14.495 -0.5197  1.1374 -0.8240
12606TIP3    H259310   5.373   2.044  14.623  0.9316 -1.4960  1.1317
12607TIP3   OH259311   0.992   6.132   3.864  0.2994  0.1569 -0.1659
12607TIP3    H159312   0.937   6.157   3.937  0.1549  2.0534 -0.8832
12607TIP3    H259313   1.075   6.106   3.904 -0.2609 -0.2290  0.7530
12608TIP3   OH259314   0.896   4.333  12.151  0.0774 -0.3342 -0.2537
12608TIP3    H159315   0.844   4.254  12.141 -0.2908  0.1128 -1.9331
12608TIP3    H259316   0.851   4.382  12.220 -1.2279 -0.3703 -1.0556
12609TIP3   OH259317   4.213   6.457  13.154  0.3703 -0.2017  0.0452
12609TIP3    H159318   4.251   6.401  13.222  2.1477 -0.8901 -1.4625
12609TIP3    H259319   4.242   6.417  13.072  0.8581  2.3603 -1.0778
12610TIP3   OH259320   6.513   3.543   3.539 -0.2584  0.1799 -0.3047
12610TIP3    H159321   6.558   3.527   3.622  0.5375 -0.7016 -0.8798
12610TIP3    H259322   6.559   3.617   3.500  0.4346 -0.4378 -0.6871
12611TIP3   OH259323   2.912   0.763  14.018 -0.0803  0.3518  0.3122
12611TIP3    H159324   2.946   0.852  14.022  0.8489  0.0287 -0.0873
12611TIP3    H259325   2.878   0.754  13.929  1.3601 -0.2157 -0.2037
12612TIP3   OH259326   1.484   5.836  11.816  0.4754  0.2362 -0.0841
12612TIP3    H159327   1.565   5.879  11.788  0.6319 -0.3975 -0.6066
12612TIP3    H259328   1.418   5.905  11.812  1.0956  0.8973  0.8818
12613TIP3   OH259329   2.634   1.918   3.494 -0.2081  0.3992  0.4417
12613TIP3    H159330   2.707   1.876   3.540 -0.3793 -1.0657 -0.6038
12613TIP3    H259331   2.628   2.004   3.534 -0.5780 -0.9550  3.4479
12614TIP3   OH259332   5.933   2.032  13.180 -0.0251 -0.1587 -0.5329
12614TIP3    H159333   5.849   2.044  13.134  1.3519 -1.2395 -3.4680
12614TIP3    H259334   5.984   1.977  13.121  2.3120 -0.5477  1.8050
12615TIP3   OH259335   0.771   6.567   0.854  0.2198 -0.1312  0.3201
12615TIP3    H159336   0.847   6.577   0.912 -0.1265  0.0328  0.7492
12615TIP3    H259337   0.695   6.573   0.912 -0.1737  1.3391 -0.3126
12616TIP3   OH259338   1.430   5.992  13.904 -0.4641 -0.1807  0.2952
12616TIP3    H159339   1.458   5.906  13.875 -1.2698 -0.0540 -0.9185
12616TIP3    H259340   1.504   6.026  13.955  0.2760 -1.1344 -0.1268
12617TIP3   OH259341   0.571   2.424   3.496  0.0216  0.0491 -0.5219
12617TIP3    H159342   0.526   2.477   3.562 -0.9433  0.1395 -1.2438
12617TIP3    H259343   0.563   2.334   3.528 -0.7624  0.0552 -0.6921
12618TIP3   OH259344   4.065   1.186  14.410  0.1577  0.0125 -0.6582
12618TIP3    H159345   4.120   1.182  14.331 -0.1637 -1.6155 -0.8388
12618TIP3    H259346   3.978   1.208  14.377 -0.0697 -1.0939 -0.8380
12619TIP3   OH259347   1.011   5.177  12.807 -0.3998  0.1426 -0.1778
12619TIP3    H159348   0.978   5.249  12.751 -1.0156 -0.3264 -0.4299
12619TIP3    H259349   0.989   5.205  12.896  1.4428  1.3405 -0.0770
12620TIP3   OH259350   3.671   6.359   6.418  0.2237 -0.1744 -0.5056
12620TIP3    H159351   3.651   6.402   6.501  2.2551 -0.4135  0.1460
12620TIP3    H259352   3.586   6.343   6.377 -0.7314  1.0976  0.9410
12621TIP3   OH259353   0.130   2.478   0.047 -0.0096  0.2083  0.3100
12621TIP3    H159354   0.062   2.427   0.003  0.8144 -0.4729 -0.1928
12621TIP3    H259355   0.196   2.494  -0.021  1.3857 -1.0390  1.3196
12622TIP3   OH259356   4.291   3.198   3.561 -0.3594 -0.4240  0.5984
12622TIP3    H159357   4.226   3.239   3.618  0.2645 -0.6784  1.5029
12622TIP3    H259358   4.348   3.271   3.534 -0.0047 -0.4844  1.1837
12623TIP3   OH259359   1.990   1.983   3.267  0.0035  0.3269 -0.7515
12623TIP3    H159360   1.936   2.050   3.224  0.8996  1.4701 -0.1048
12623TIP3    H259361   2.067   2.031   3.299  0.3390 -0.8999  0.2882
12624TIP3   OH259362   0.329   3.786  13.459 -0.3164  0.4501 -0.5384
12624TIP3    H159363   0.417   3.749  13.470 -0.2049  0.7866 -0.2694
12624TIP3    H259364   0.343   3.863  13.404 -0.1798  1.5347  0.9802
12625TIP3   OH259365   6.357   3.431   5.873  0.0392 -0.1519  0.3173
12625TIP3    H159366   6.400   3.490   5.811  1.1591  0.6825  1.8558
12625TIP3    H259367   6.430   3.382   5.913 -0.8295 -2.2531 -0.5866
12626TIP3   OH259368   0.912   2.223   4.265  0.1736 -0.3499  0.0786
12626TIP3    H159369   0.960   2.158   4.315 -0.8885 -0.5835  0.8063
12626TIP3    H259370   0.910   2.187   4.176  1.0090 -0.5132  0.1159
12627TIP3   OH259371   5.690   6.494   3.634  0.0962 -0.1698 -0.1502
12627TIP3    H159372   5.772   6.529   3.599  0.9172  0.7175  2.5659
12627TIP3    H259373   5.632   6.570   3.642 -0.0175 -0.3331  0.5893
12628TIP3   OH259374   2.228   1.474  12.725 -0.0270  0.1531  0.1883
12628TIP3    H159375   2.155   1.518  12.682  0.9936  1.6974  0.0036
12628TIP3    H259376   2.273   1.543  12.774  1.4087 -0.7370  0.1665
12629TIP3   OH259377   3.904   2.343   3.755  0.1419  0.4192 -0.1857
12629TIP3    H159378   3.990   2.325   3.792  0.2055 -0.4571 -0.7263
12629TIP3    H259379   3.867   2.256   3.739 -0.0420  0.7704 -1.8071
12630TIP3   OH259380   5.547   4.198  15.605  0.3427  0.7306  0.1119
12630TIP3    H159381   5.466   4.181  15.557 -0.0780  1.4415  0.5712
12630TIP3    H259382   5.520   4.244  15.684  1.3018  1.9518 -0.2492
12631TIP3   OH259383   2.746   6.070  12.955 -0.4303  0.1267 -0.0798
12631TIP3    H159384   2.798   6.105  12.883 -0.9335 -0.3777 -0.6953
12631TIP3    H259385   2.698   6.146  12.989  0.9195  0.6496  0.6899
12632TIP3   OH259386   6.054   2.717  11.131  0.8497 -0.1897  0.4191
12632TIP3    H159387   6.099   2.796  11.101 -0.7170  0.4080 -0.4555
12632TIP3    H259388   6.115   2.645  11.111  1.8971  0.6988  0.3660
12633TIP3   OH259389   1.738   4.887   2.312 -0.0983 -0.7739 -0.2324
12633TIP3    H159390   1.661   4.943   2.320 -1.1951 -2.1407 -1.0374
12633TIP3    H259391   1.761   4.864   2.402 -0.9321 -0.7826 -0.0211
12634TIP3   OH259392   2.029   2.973   3.929  0.7083  0.2521  0.3213
12634TIP3    H159393   2.073   3.036   3.986  1.1490 -0.1261  0.4002
12634TIP3    H259394   1.953   2.943   3.978  1.6350 -0.8233  1.1148
12635TIP3   OH259395   0.553   0.151   6.414 -0.0562  0.0017  0.5209
12635TIP3    H159396   0.531   0.142   6.507 -0.0894 -0.2366  0.4881
12635TIP3    H259397   0.470   0.144   6.368  0.1907 -1.8268  0.3305
12636TIP3   OH259398   1.924   0.659  11.521  0.2754  0.2119  0.0746
12636TIP3    H159399   1.976   0.725  11.476  1.8826 -1.4182 -0.5520
12636TIP3    H259400   1.901   0.597  11.452 -2.9740  1.1664  0.2488
12637TIP3   OH259401   6.081   6.672  14.660  0.6854 -0.9797 -0.3196
12637TIP3    H159402   5.989   6.696  14.665  1.0710  0.2512  1.1526
12637TIP3    H259403   6.081   6.582  14.626 -0.9846 -0.5734 -1.4597
12638TIP3   OH259404   2.144   0.035  16.616  0.2670  0.1138  0.1065
12638TIP3    H159405   2.092   0.079  16.683  2.6725  2.4793  0.5410
12638TIP3    H259406   2.105   0.062  16.533 -1.1490 -0.7320  0.4952
12639TIP3   OH259407   0.295   3.048  13.530  0.8421 -0.7112  0.9111
12639TIP3    H159408   0.220   3.018  13.581  0.5388 -0.3774  0.6720
12639TIP3    H259409   0.259   3.064  13.442  0.9565  0.4737  1.0725
12640TIP3   OH259410   6.786   2.211   3.121  0.4682 -0.3469  0.1858
12640TIP3    H159411   6.875   2.239   3.102 -0.1805  1.0043 -0.9300
12640TIP3    H259412   6.736   2.292   3.127 -0.7283 -1.1001  0.5882
12641TIP3   OH259413   3.868   5.250   0.196  0.0733  0.5689  0.4620
12641TIP3    H159414   3.809   5.176   0.177  0.1210  0.6406  0.0292
12641TIP3    H259415   3.944   5.234   0.139  1.3246 -0.5526  2.3797
12642TIP3   OH259416   3.108   3.881   0.428  0.7613  0.0784  0.0102
12642TIP3    H159417   3.116   3.806   0.487 -0.0594  0.1477  0.2189
12642TIP3    H259418   3.070   3.950   0.482  0.0703  0.1648 -0.5746
12643TIP3   OH259419   2.047   1.891  16.604  0.1064  0.0230 -0.0851
12643TIP3    H159420   1.978   1.924  16.661  1.5101  2.3423  0.3320
12643TIP3    H259421   2.033   1.796  16.602 -1.3505  0.1511  2.2518
12644TIP3   OH259422   0.376   5.703   1.729 -0.3364  0.0753 -0.2817
12644TIP3    H159423   0.416   5.773   1.678 -1.5898 -0.3679 -1.9263
12644TIP3    H259424   0.389   5.624   1.676  1.4606 -1.0419  1.7504
12645TIP3   OH259425   4.482   0.654  10.763 -0.2631 -0.1974  0.7594
12645TIP3    H159426   4.570   0.633  10.794  0.2552  0.9010  0.0555
12645TIP3    H259427   4.495   0.698  10.679 -1.4679  0.2744  0.8028
12646TIP3   OH259428   4.438   5.630   4.440  0.1722 -0.2445 -0.1155
12646TIP3    H159429   4.432   5.645   4.346  3.4855 -0.4990 -0.4386
12646TIP3    H259430   4.474   5.541   4.448  1.1164  0.2426  1.3258
12647TIP3   OH259431   1.220   0.665  10.851 -0.0234  0.6346 -0.1460
12647TIP3    H159432   1.170   0.588  10.825  1.4190 -0.1139 -0.7115
12647TIP3    H259433   1.177   0.696  10.931 -1.1031 -0.2664 -0.3746
12648TIP3   OH259434   3.533   0.673  16.207 -0.3834  0.5649 -0.4655
12648TIP3    H159435   3.620   0.670  16.246 -0.3780 -0.9361 -0.5601
12648TIP3    H259436   3.506   0.765  16.215  1.1820  1.0311 -0.4063
12649TIP3   OH259437   0.302   3.872   0.632 -0.1260 -0.1386  0.7249
12649TIP3    H159438   0.270   3.783   0.618  0.3504 -0.1473 -0.3492
12649TIP3    H259439   0.397   3.865   0.625 -0.1470  0.6428 -0.5536
12650TIP3   OH259440   4.047   5.868  13.942 -0.7108 -0.9310 -0.2247
12650TIP3    H159441   4.046   5.929  14.016 -0.5717 -0.1671 -0.8389
12650TIP3    H259442   4.032   5.782  13.981  0.1563 -0.6341  0.7764
12651TIP3   OH259443   2.645   3.350  16.745 -0.4898 -0.2066  0.1849
12651TIP3    H159444   2.688   3.401  16.676 -1.5147  0.2404 -0.1347
12651TIP3    H259445   2.670   3.394  16.826 -1.2516  0.7385 -0.0764
12652TIP3   OH259446   3.496   5.394  12.653  0.1882 -0.3395 -0.1700
12652TIP3    H159447   3.470   5.400  12.745 -0.4344 -0.0296 -0.3664
12652TIP3    H259448   3.415   5.373  12.606  0.6796 -1.4274 -0.5392
12653TIP3   OH259449   5.390   4.968   2.634  0.0973  0.2402 -0.2082
12653TIP3    H159450   5.471   5.016   2.624 -0.9270  2.0711  0.0404
12653TIP3    H259451   5.373   4.931   2.547  0.6361  0.7539 -0.5352
12654TIP3   OH259452   3.264   4.265  14.795 -0.7303  0.5144 -0.2921
12654TIP3    H159453   3.351   4.255  14.757 -0.3061  0.8233  0.5917
12654TIP3    H259454   3.254   4.359  14.809 -0.7484  0.3799  0.6535
12655TIP3   OH259455   2.742   4.378   2.988 -0.0250  0.2812  0.4674
12655TIP3    H159456   2.694   4.445   3.037  0.4213  0.7800  0.2223
12655TIP3    H259457   2.733   4.299   3.042 -0.3573  0.5898  0.8732
12656TIP3   OH259458   2.822   1.368  17.178  0.1020  0.3976  0.2093
12656TIP3    H159459   2.841   1.343  17.268  0.0161  0.8792  0.3640
12656TIP3    H259460   2.756   1.438  17.187  0.6006  0.9167 -0.1978
12657TIP3   OH259461   3.770   2.703  13.187  0.5258 -0.4561 -0.3778
12657TIP3    H159462   3.742   2.787  13.224  0.1872 -0.8952  0.3782
12657TIP3    H259463   3.852   2.683  13.232  0.5545 -0.5818 -0.4871
12658TIP3   OH259464   0.938   4.095   5.342  0.2600  0.5291  0.6091
12658TIP3    H159465   0.972   4.152   5.411 -0.2884  0.6906  0.7460
12658TIP3    H259466   0.986   4.013   5.352 -0.8629  0.0391  2.1033
12659TIP3   OH259467   1.953   2.592   5.001 -0.6287 -0.5939  0.0922
12659TIP3    H159468   1.878   2.540   4.972 -0.7429 -0.7918  0.7199
12659TIP3    H259469   2.010   2.598   4.924 -0.9082 -1.1283 -0.1620
12660TIP3   OH259470   3.901   0.907  11.225 -0.0748 -0.0791 -0.3572
12660TIP3    H159471   3.889   0.970  11.153 -0.0979 -0.8319 -1.0175
12660TIP3    H259472   3.872   0.824  11.188 -1.7401 -0.1709  1.0772
12661TIP3   OH259473   2.631   6.682  11.319  0.0490  0.0769  0.0850
12661TIP3    H159474   2.588   6.690  11.234  0.7322  1.0800 -0.1766
12661TIP3    H259475   2.668   6.594  11.319 -0.9435 -0.3479 -0.1802
12662TIP3   OH259476   0.555   1.283  15.538  0.3203  0.9607 -0.2091
12662TIP3    H159477   0.618   1.337  15.585 -0.8258  1.5126  0.7375
12662TIP3    H259478   0.551   1.201  15.587 -0.0274  1.0952 -0.0138
12663TIP3   OH259479   3.901   3.494  13.745 -0.1321 -0.1194 -0.0281
12663TIP3    H159480   3.854   3.554  13.803  1.9352 -0.4462  2.0738
12663TIP3    H259481   3.937   3.428  13.804  1.8259 -0.6179 -1.7445
12664TIP3   OH259482   5.024   2.291   4.123  0.4123 -0.4565 -0.6948
12664TIP3    H159483   4.997   2.247   4.042 -0.5446 -0.4877 -0.3632
12664TIP3    H259484   5.108   2.331   4.101  1.1990 -2.2588 -1.0678
12665TIP3   OH259485   0.588   5.104   4.449 -0.1366  0.5823  0.5002
12665TIP3    H159486   0.607   5.178   4.391  1.6174 -0.6916 -0.6016
12665TIP3    H259487   0.559   5.144   4.530  1.0875  2.5024  0.0251
12666TIP3   OH259488   3.831   5.721  16.794  0.0203  0.8686  0.9485
12666TIP3    H159489   3.922   5.724  16.764  0.2948  1.3993  1.8256
12666TIP3    H259490   3.837   5.711  16.889 -0.8313 -2.2069  0.7354
12667TIP3   OH259491   4.913   6.343   4.542 -0.2392  0.0029 -0.4005
12667TIP3    H159492   4.939   6.415   4.600  0.5290 -0.9397  0.4506
12667TIP3    H259493   4.926   6.264   4.595 -2.2010 -0.7008 -0.9001
12668TIP3   OH259494   1.461   5.607   1.357  0.1324  0.3160 -0.0759
12668TIP3    H159495   1.464   5.702   1.346 -2.1238  0.7619  2.5684
12668TIP3    H259496   1.463   5.594   1.452 -0.8521 -2.2284 -0.3645
12669TIP3   OH259497   4.953   4.022   0.723 -0.1401 -0.8161 -0.0015
12669TIP3    H159498   4.929   3.929   0.721  1.0034 -1.1303  0.3935
12669TIP3    H259499   4.890   4.062   0.783 -0.6693 -1.3219 -0.2067
12670TIP3   OH259500   3.941   6.622   4.279  0.2239 -0.2365  0.0078
12670TIP3    H159501   4.024   6.664   4.258 -1.0495  2.2959 -0.1048
12670TIP3    H259502   3.911   6.586   4.196  0.1241  0.7862 -0.3933
12671TIP3   OH259503   3.848   6.395   3.092 -0.2924  0.1820  0.9166
12671TIP3    H159504   3.922   6.336   3.107 -0.4115  0.0176  0.8572
12671TIP3    H259505   3.834   6.392   2.998  0.3300  1.0671  0.8020
12672TIP3   OH259506   0.373   2.569  13.553 -0.1796 -0.2633  0.3120
12672TIP3    H159507   0.278   2.559  13.553 -0.0477 -1.5670  0.1945
12672TIP3    H259508   0.399   2.550  13.643 -0.0529  0.3952  0.4176
12673TIP3   OH259509   0.556   3.179  12.344  0.4070 -0.5010 -0.0318
12673TIP3    H159510   0.599   3.168  12.429 -0.5158  1.2836  0.6818
12673TIP3    H259511   0.577   3.098  12.296  2.3879 -0.7631  1.2312
12674TIP3   OH259512   0.075   4.621  11.962  0.3284  0.4434  0.3436
12674TIP3    H159513   0.041   4.641  11.875  3.7016 -0.9276 -1.3520
12674TIP3    H259514   0.013   4.663  12.022 -1.8359  1.7438 -2.6923
12675TIP3   OH259515   3.581   1.343  15.462 -0.0653  0.2418  0.2214
12675TIP3    H159516   3.600   1.256  15.498 -1.7920 -1.0541 -1.8499
12675TIP3    H259517   3.577   1.329  15.367 -1.4706  2.3625 -0.0585
12676TIP3   OH259518   6.086   0.531   5.480  0.4918  0.5114  0.1369
12676TIP3    H159519   6.006   0.529   5.427  1.0205 -1.1135 -0.6262
12676TIP3    H259520   6.094   0.623   5.508 -1.4379  0.7592 -0.0624
12677TIP3   OH259521   0.124   1.538   0.159 -0.0280  0.3646  0.0276
12677TIP3    H159522   0.144   1.478   0.087 -0.5157  1.2128 -0.8414
12677TIP3    H259523   0.207   1.578   0.181 -0.1125  1.2058 -1.1035
12678TIP3   OH259524   1.905   3.056   1.013 -0.3783 -0.3160  0.3172
12678TIP3    H159525   1.863   3.016   1.089 -0.8167  0.5897  0.5693
12678TIP3    H259526   1.836   3.059   0.946  0.0368 -1.2097 -0.1554
12679TIP3   OH259527   3.030   1.558  11.319 -0.2655  0.3155  0.0417
12679TIP3    H159528   2.935   1.569  11.324 -0.1584  0.4311  2.0940
12679TIP3    H259529   3.044   1.464  11.334 -0.1681 -0.0917 -2.3682
12680TIP3   OH259530   1.487   0.823   3.322 -0.0791 -0.2002 -0.0571
12680TIP3    H159531   1.393   0.830   3.302  0.0120 -0.3039 -0.5350
12680TIP3    H259532   1.501   0.883   3.395 -0.8280 -1.3369  1.0561
12681TIP3   OH259533   3.806   5.927   2.794  0.0991 -0.4794 -0.0859
12681TIP3    H159534   3.803   5.852   2.854  0.7430  0.2665  0.8809
12681TIP3    H259535   3.823   6.002   2.850  0.9621  0.1965 -1.2318
12682TIP3   OH259536   5.264   0.798   1.282  0.3788  0.6123 -0.0637
12682TIP3    H159537   5.301   0.766   1.200 -1.3769 -1.4854 -0.0846
12682TIP3    H259538   5.169   0.795   1.269  0.0853  1.1575  1.7124
12683TIP3   OH259539   5.718   3.637  15.090  0.4405 -0.2908  0.3037
12683TIP3    H159540   5.683   3.646  15.178 -1.5709  2.4494 -0.6953
12683TIP3    H259541   5.788   3.702  15.085 -0.9908  1.2049 -0.8040
12684TIP3   OH259542   1.393   1.129   4.511  0.1526  0.1127  0.2288
12684TIP3    H159543   1.415   1.043   4.549  0.5698  1.2602  2.6830
12684TIP3    H259544   1.416   1.192   4.580  0.3368  2.2440 -1.7379
12685TIP3   OH259545   3.537   0.633   1.309 -0.0597  0.2258 -0.0645
12685TIP3    H159546   3.455   0.604   1.270 -1.1741  2.2279  0.6763
12685TIP3    H259547   3.562   0.710   1.258  1.2995 -0.3102 -0.2153
12686TIP3   OH259548   4.344   2.559   3.434 -0.9538  0.1989  0.4931
12686TIP3    H159549   4.368   2.652   3.441 -3.6817  0.8936  1.0399
12686TIP3    H259550   4.357   2.525   3.523 -1.5187  0.4521  0.6736
12687TIP3   OH259551   5.435   0.142  12.754 -0.4688  0.5594  0.4154
12687TIP3    H159552   5.367   0.124  12.819  0.1989 -0.2855  0.8919
12687TIP3    H259553   5.467   0.230  12.776 -0.9080  0.6602  0.6428
12688TIP3   OH259554   6.350   2.722  14.184  0.3475  0.0064 -0.3510
12688TIP3    H159555   6.311   2.725  14.097 -0.3020  2.6506 -0.0112
12688TIP3    H259556   6.280   2.689  14.240  0.7935 -1.7825 -0.8112
12689TIP3   OH259557   6.302   2.419  17.197  0.0206  0.0607 -0.1046
12689TIP3    H159558   6.266   2.340  17.236 -0.1730  0.0531 -0.2931
12689TIP3    H259559   6.364   2.452  17.261 -0.1724 -0.0389  0.1331
12690TIP3   OH259560   3.666   4.988   3.955  0.3295  0.5100  0.7573
12690TIP3    H159561   3.635   5.076   3.973  0.3722  0.7789 -0.4566
12690TIP3    H259562   3.640   4.937   4.032 -2.0646  0.9802  0.2844
12691TIP3   OH259563   2.061   5.009   6.433 -0.7754 -0.3238 -0.0506
12691TIP3    H159564   2.009   5.030   6.511 -1.3191  1.1821 -0.7993
12691TIP3    H259565   2.128   5.077   6.430  0.9332 -1.9394  0.5903
12692TIP3   OH259566   0.063   6.587  15.666  0.7058  0.3621  0.2469
12692TIP3    H159567  -0.029   6.606  15.681  1.0437  1.7288  0.6955
12692TIP3    H259568   0.105   6.673  15.666  2.0271 -0.2728  0.4097
12693TIP3   OH259569   0.564   0.184   2.626 -0.3111 -0.1292  0.1065
12693TIP3    H159570   0.492   0.212   2.571  0.8860  0.7015 -1.0721
12693TIP3    H259571   0.577   0.092   2.604 -0.3955 -0.0260 -0.3829
12694TIP3   OH259572   2.222   3.769  14.842  0.0508 -0.1718 -0.1649
12694TIP3    H159573   2.147   3.782  14.784  1.4601 -1.3459 -2.3190
12694TIP3    H259574   2.223   3.675  14.860  0.8337 -0.1254  0.0832
12695TIP3   OH259575   5.954   0.450  13.739 -0.1351 -0.0999  0.3054
12695TIP3    H159576   5.891   0.411  13.679  0.1457  0.9644 -0.7042
12695TIP3    H259577   5.923   0.424  13.826 -1.1697 -0.7439 -0.2412
12696TIP3   OH259578   0.815   4.074  15.655 -0.0262  0.2453 -0.1199
12696TIP3    H159579   0.740   4.099  15.601  0.0901  0.4950 -0.1663
12696TIP3    H259580   0.807   3.979  15.665 -1.0286  0.4268  0.8753
12697TIP3   OH259581   2.442   1.989   3.256  0.3006  0.0532 -0.3189
12697TIP3    H159582   2.468   1.957   3.342  0.0545 -0.9876 -0.6171
12697TIP3    H259583   2.370   2.050   3.272  0.8828  0.5783  0.2780
12698TIP3   OH259584   6.498   2.773   2.024  0.0386  0.2550 -0.3251
12698TIP3    H159585   6.416   2.754   1.979 -0.1152  0.2315 -0.0372
12698TIP3    H259586   6.499   2.868   2.033 -0.5933  0.1614  0.8511
12699TIP3   OH259587   2.069   6.810  13.711  0.2741 -0.1341  0.0372
12699TIP3    H159588   2.042   6.897  13.738  1.2370 -0.2363  1.3915
12699TIP3    H259589   1.994   6.754  13.733 -0.5653  0.4285 -1.3648
12700TIP3   OH259590   3.626   3.313  14.495  0.1950  0.0881  0.3890
12700TIP3    H159591   3.705   3.358  14.465 -0.8578  1.6109 -0.1439
12700TIP3    H259592   3.601   3.257  14.421  0.8129 -0.4704  0.5945
12701TIP3   OH259593   1.311   0.388  10.373  0.0335  0.1156  0.0558
12701TIP3    H159594   1.227   0.348  10.395 -0.2439  0.2862 -0.6953
12701TIP3    H259595   1.365   0.315  10.343  0.2043 -0.0139  0.6531
12702TIP3   OH259596   5.858   4.870  15.446  0.4194 -0.3796  0.4798
12702TIP3    H159597   5.777   4.867  15.497  0.1268  0.8257  0.0827
12702TIP3    H259598   5.861   4.958  15.410  0.4821 -1.2819 -1.8145
12703TIP3   OH259599   0.597   5.463  13.329 -0.2527 -0.0470  0.0541
12703TIP3    H159600   0.630   5.430  13.246  0.8489 -0.0355  0.4759
12703TIP3    H259601   0.662   5.528  13.357 -0.0179 -0.8489  1.4519
12704TIP3   OH259602   1.991   5.747  11.388 -0.5932 -0.1932  0.0356
12704TIP3    H159603   1.905   5.712  11.364 -0.2107 -2.8294  2.1767
12704TIP3    H259604   2.054   5.694  11.340 -0.1198  1.2915 -1.0147
12705TIP3   OH259605   2.102   0.396   3.866  0.1760  0.4169 -0.4302
12705TIP3    H159606   2.094   0.337   3.941 -0.2150  1.2418  0.1825
12705TIP3    H259607   2.046   0.356   3.799 -0.9231  0.6341  0.3376
12706TIP3   OH259608   0.490   0.520   0.439 -0.0099  0.6502  0.2490
12706TIP3    H159609   0.534   0.559   0.514 -0.1389  0.2936  0.5128
12706TIP3    H259610   0.557   0.465   0.398 -0.6423 -1.1774  1.5902
12707TIP3   OH259611   1.992   2.355  16.876 -0.1430 -0.6724  0.4135
12707TIP3    H159612   1.956   2.419  16.938 -0.9493  0.0093 -0.7532
12707TIP3    H259613   2.085   2.379  16.869 -0.3977  0.2680  0.1285
12708TIP3   OH259614   4.725   1.493  16.984  0.4496 -0.5274  0.3874
12708TIP3    H159615   4.656   1.511  17.047  1.1242  3.0440  0.1733
12708TIP3    H259616   4.681   1.449  16.911 -1.7178  2.1337  0.0282
12709TIP3   OH259617   2.553   2.921  13.091  0.3138  0.0841 -0.6622
12709TIP3    H159618   2.577   2.846  13.037 -0.7044  0.0469 -1.0680
12709TIP3    H259619   2.612   2.916  13.167 -0.2210 -1.5235 -0.3362
12710TIP3   OH259620   4.358   0.475  17.015  0.0234 -0.4397 -0.0269
12710TIP3    H159621   4.396   0.418  16.948  0.5098  0.1369 -0.2458
12710TIP3    H259622   4.291   0.421  17.057 -0.1169 -0.8845 -0.8154
12711TIP3   OH259623   0.605   1.172  12.878 -0.3851  0.1972  0.1639
12711TIP3    H159624   0.565   1.231  12.815  1.4920 -0.2294 -1.4978
12711TIP3    H259625   0.653   1.109  12.824  2.1809  0.4912  2.0200
12712TIP3   OH259626   2.569   1.198  13.175  0.7188 -0.0815 -0.4082
12712TIP3    H159627   2.615   1.275  13.142  1.6582  0.3588  1.8238
12712TIP3    H259628   2.619   1.171  13.252 -0.2661 -2.2415 -0.4795
12713TIP3   OH259629   3.170   4.024  13.662  0.1460 -0.2434  0.5240
12713TIP3    H159630   3.257   3.992  13.638  0.2859 -0.4656  1.2922
12713TIP3    H259631   3.147   4.086  13.593  0.1768 -1.4853 -0.6222
12714TIP3   OH259632   1.611   6.298  13.142  0.5822  0.2543  0.4087
12714TIP3    H159633   1.556   6.280  13.218  1.2728 -0.3414  0.7790
12714TIP3    H259634   1.678   6.229  13.144  0.2316 -0.1602 -1.1064
12715TIP3   OH259635   1.942   0.142  17.196 -0.2785  0.3606 -0.0779
12715TIP3    H159636   1.957   0.048  17.200 -1.1530  0.2457  0.6304
12715TIP3    H259637   2.002   0.179  17.260  0.6819  0.3633 -0.9763
12716TIP3   OH259638   3.961   1.804   4.135  0.5564  0.1235 -0.0502
12716TIP3    H159639   3.906   1.864   4.185  0.1603 -0.2103 -0.0817
12716TIP3    H259640   4.018   1.861   4.083  0.2288  0.4713 -0.0287
12717TIP3   OH259641   5.503   4.441  14.684 -0.4804 -0.1386  0.5185
12717TIP3    H159642   5.581   4.415  14.635 -0.7230  0.1624 -0.0326
12717TIP3    H259643   5.534   4.455  14.773  0.3502  1.2252  0.0303
12718TIP3   OH259644   3.851   5.732  12.361 -0.8724 -0.1825 -0.4355
12718TIP3    H159645   3.877   5.816  12.324  1.4633 -0.4011  0.6301
12718TIP3    H259646   3.767   5.750  12.404  0.1844  1.9235  0.8343
12719TIP3   OH259647   3.657   1.483   1.707 -0.4554  0.0087  0.5028
12719TIP3    H159648   3.594   1.464   1.637  0.9440  1.2168 -1.1318
12719TIP3    H259649   3.739   1.446   1.676 -0.0928 -0.5972  2.1328
12720TIP3   OH259650   6.694   2.112  12.262  0.1773  0.0633  0.1469
12720TIP3    H159651   6.758   2.128  12.193 -0.3931  1.3429 -0.1119
12720TIP3    H259652   6.683   2.017  12.264  0.0178  0.0255 -1.6905
12721TIP3   OH259653   5.455   6.528  16.429 -0.0874  0.3396  0.1344
12721TIP3    H159654   5.362   6.508  16.422 -0.1227 -0.1032  1.7727
12721TIP3    H259655   5.495   6.483  16.355 -1.0475 -0.2552 -0.0276
12722TIP3   OH259656   6.663   6.430  14.317 -0.2961 -0.0756 -0.1542
12722TIP3    H159657   6.672   6.340  14.286 -1.5822 -0.1729 -0.2778
12722TIP3    H259658   6.736   6.477  14.276  1.8648 -1.5577  1.8782
12723TIP3   OH259659   0.636   1.660   4.943 -0.1704  0.0022  0.4656
12723TIP3    H159660   0.644   1.654   4.848  0.2809 -2.2031  0.6122
12723TIP3    H259661   0.660   1.573   4.974 -1.9538  0.1879  2.4928
12724TIP3   OH259662   6.180   2.210   0.032 -0.2660  0.2060  0.6028
12724TIP3    H159663   6.129   2.247   0.104 -0.1023  1.0227  0.3062
12724TIP3    H259664   6.261   2.181   0.072 -0.6342 -0.3646  0.9383
12725TIP3   OH259665   0.063   3.473   2.506  0.0682 -0.6983  0.1870
12725TIP3    H159666   0.107   3.460   2.422  1.2011 -1.3301  0.8616
12725TIP3    H259667  -0.029   3.485   2.484  0.5215  0.2765 -1.2309
12726TIP3   OH259668   5.548   3.259  15.281 -0.4213  0.0684 -0.0161
12726TIP3    H159669   5.620   3.290  15.336  0.9316 -0.7570 -1.2802
12726TIP3    H259670   5.501   3.339  15.255  1.0279  0.7604 -0.5324
12727TIP3   OH259671   6.031   5.354   1.035  0.1841 -0.0590 -0.0123
12727TIP3    H159672   6.024   5.321   0.946  0.5624  1.5338 -0.6517
12727TIP3    H259673   6.112   5.405   1.036 -0.2387  0.6197  1.0036
12728TIP3   OH259674   6.050   1.525   4.224 -0.4320 -0.1649  0.0406
12728TIP3    H159675   6.034   1.504   4.316  0.2162  0.1551  0.2298
12728TIP3    H259676   6.136   1.489   4.205 -0.0866  0.7387 -0.1338
12729TIP3   OH259677   3.886   6.509   6.160  0.0468 -0.0166  0.6599
12729TIP3    H159678   3.962   6.453   6.175  0.8723  0.8844 -0.0980
12729TIP3    H259679   3.906   6.590   6.206 -0.3434  0.3197  0.2467
12730TIP3   OH259680   5.785   1.848   4.658  0.0180  0.1509 -0.2683
12730TIP3    H159681   5.846   1.907   4.614  0.2501  1.4488  1.7113
12730TIP3    H259682   5.699   1.885   4.639  0.1128  0.6546  0.2495
12731TIP3   OH259683   5.839   2.826   2.627  0.1446 -0.0053 -0.8148
12731TIP3    H159684   5.747   2.854   2.628  0.5946  1.4536  0.9037
12731TIP3    H259685   5.836   2.737   2.592 -2.0662 -0.4050  0.2792
12732TIP3   OH259686   1.961   1.919   5.621 -0.4834  0.3987  0.2610
12732TIP3    H159687   1.946   1.978   5.547 -1.2130 -0.5891 -0.3961
12732TIP3    H259688   1.887   1.857   5.618 -0.3100  0.1071  1.5735
12733TIP3   OH259689   6.762   0.351   5.084 -0.0254 -0.6580  0.4055
12733TIP3    H159690   6.822   0.390   5.148 -0.7683  0.6226  0.3362
12733TIP3    H259691   6.811   0.353   5.001 -0.7119  1.8414  0.0174
12734TIP3   OH259692   4.921   1.673  12.496 -0.2847 -0.2327  0.0657
12734TIP3    H159693   4.829   1.651  12.510 -0.9402  2.4052  0.1727
12734TIP3    H259694   4.955   1.687  12.585 -0.0964 -0.0196 -0.0423
12735TIP3   OH259695   6.820   3.862   5.014 -0.1172 -0.2799  0.3795
12735TIP3    H159696   6.834   3.955   5.031 -1.5533  0.3306 -1.5577
12735TIP3    H259697   6.738   3.842   5.059 -0.0142 -0.5114  0.4643
12736TIP3   OH259698   5.743   6.080   4.110  0.7062  0.4103 -0.2151
12736TIP3    H159699   5.713   6.043   4.193 -0.5650  0.8691 -0.4453
12736TIP3    H259700   5.669   6.068   4.050  1.4118  0.5555 -1.1326
12737TIP3   OH259701   4.955   4.943  13.838  0.1582  0.1297  0.0484
12737TIP3    H159702   4.952   5.031  13.800  0.3097  0.2615  0.3379
12737TIP3    H259703   4.867   4.929  13.871 -0.1374 -0.2242 -0.8793
12738TIP3   OH259704   1.607   3.936   1.740  0.0029 -0.6710  0.3827
12738TIP3    H159705   1.636   4.022   1.770 -0.6684  0.1417 -1.2837
12738TIP3    H259706   1.531   3.915   1.795 -0.8528  0.5329 -0.3438
12739TIP3   OH259707   5.124   3.516   2.624 -0.3358  0.1767  0.0125
12739TIP3    H159708   5.069   3.585   2.662 -0.6778  0.2812 -0.6630
12739TIP3    H259709   5.133   3.541   2.532  1.3391  0.4843  0.2394
12740TIP3   OH259710   1.180   2.586   2.415 -0.4899  0.0825 -0.0027
12740TIP3    H159711   1.262   2.604   2.461 -1.0017  0.7631  0.6566
12740TIP3    H259712   1.133   2.525   2.471  0.0580 -1.2241 -0.9395
12741TIP3   OH259713   4.945   1.654   0.995 -0.1734 -0.5517 -0.0099
12741TIP3    H159714   5.016   1.593   1.013  1.4976  1.2644 -0.2738
12741TIP3    H259715   4.989   1.736   0.973 -2.3676  0.7460  0.3124
12742TIP3   OH259716   6.784   0.502   1.966 -0.4610  0.0568 -0.3298
12742TIP3    H159717   6.691   0.500   1.990 -0.5219 -0.3397 -0.5885
12742TIP3    H259718   6.804   0.595   1.955 -0.3784  0.2733  1.4553
12743TIP3   OH259719   3.683   5.813   4.443  0.2046 -0.0889 -0.0779
12743TIP3    H159720   3.714   5.796   4.532  0.4945  1.1909  0.0662
12743TIP3    H259721   3.728   5.893   4.417  0.0306 -0.3954 -1.3361
12744TIP3   OH259722   2.976   3.353   0.124 -0.6966 -0.5335  0.3071
12744TIP3    H159723   2.981   3.397   0.209 -2.0508 -1.1264  0.7026
12744TIP3    H259724   3.008   3.418   0.061  0.1698 -0.0413  1.2447
12745TIP3   OH259725   4.929   1.209  10.650  0.0309 -0.8070  0.2767
12745TIP3    H159726   4.846   1.256  10.661  1.4672  2.0988 -0.9878
12745TIP3    H259727   4.902   1.125  10.612 -2.4325 -0.3501  0.8757
12746TIP3   OH259728   5.055   2.415  17.047  0.6272  0.2239 -0.5047
12746TIP3    H159729   4.962   2.406  17.069  0.7648  0.5954  0.2576
12746TIP3    H259730   5.100   2.404  17.131  1.1895  1.3407 -0.6561
12747TIP3   OH259731   2.991   2.897  17.039  0.3109 -0.3044 -0.1059
12747TIP3    H159732   3.082   2.923  17.024  0.1831  1.6044  2.1460
12747TIP3    H259733   2.942   2.942  16.970  1.2833 -3.2827 -2.8482
12748TIP3   OH259734   0.812   1.862   1.397 -0.0288  0.0581 -0.0015
12748TIP3    H159735   0.745   1.794   1.409 -0.3977  0.6548  1.5223
12748TIP3    H259736   0.772   1.925   1.337 -0.4082 -0.1312  0.0520
12749TIP3   OH259737   3.684   1.009  10.831 -0.2259 -0.1174 -0.2316
12749TIP3    H159738   3.774   1.014  10.862 -0.0081 -2.2933 -0.4114
12749TIP3    H259739   3.649   1.097  10.844  2.4550  1.2411 -1.8364
12750TIP3   OH259740   4.749   2.439  14.560 -0.6730  0.7409  0.6176
12750TIP3    H159741   4.843   2.430  14.570 -0.6953 -1.1679 -0.6138
12750TIP3    H259742   4.731   2.411  14.470 -2.6029 -0.6461  1.3928
12751TIP3   OH259743   1.498   5.096  14.439  0.2690 -0.0751  0.1011
12751TIP3    H159744   1.412   5.090  14.397  0.2756  0.1450  0.0583
12751TIP3    H259745   1.501   5.019  14.496 -0.3042  0.3613  0.7427
12752TIP3   OH259746   4.029   4.165   5.177  0.0681  0.7074 -0.6279
12752TIP3    H159747   3.943   4.202   5.197  0.1569 -0.2868  1.7653
12752TIP3    H259748   4.075   4.164   5.260  1.6768 -0.6515 -1.4974
12753TIP3   OH259749   0.095   6.332  15.771 -0.3642 -0.0426 -0.2995
12753TIP3    H159750   0.095   6.421  15.734  0.6642  0.5155  0.9879
12753TIP3    H259751   0.006   6.320  15.805 -0.3625  0.6976 -0.0229
12754TIP3   OH259752   1.894   0.303   3.316  0.3840 -0.2489  0.3972
12754TIP3    H159753   1.852   0.252   3.247 -1.4236  1.6079  0.0970
12754TIP3    H259754   1.918   0.237   3.382  1.4595 -1.9479 -1.6035
12755TIP3   OH259755   5.905   1.017  12.877 -0.2576 -0.0015  0.7118
12755TIP3    H159756   5.810   1.011  12.872 -0.3381  1.0951  0.8379
12755TIP3    H259757   5.922   1.070  12.955  0.4785 -0.5929  0.9702
12756TIP3   OH259758   5.840   2.388   1.482  0.0981 -0.0568  0.0018
12756TIP3    H159759   5.757   2.435   1.482  0.1773  0.0890  0.3566
12756TIP3    H259760   5.870   2.394   1.573  1.0032  0.8049 -0.3463
12757TIP3   OH259761   3.303   0.056  12.695  0.0899  0.5524  0.1069
12757TIP3    H159762   3.386   0.026  12.734 -1.1223 -1.0391  1.5359
12757TIP3    H259763   3.274   0.127  12.752 -0.1793  0.2491  0.3440
12758TIP3   OH259764   3.984   3.489   4.531  0.3641  0.0242  0.2818
12758TIP3    H159765   3.899   3.507   4.489  0.8699  1.1553 -0.2684
12758TIP3    H259766   4.008   3.571   4.573  0.9868 -0.4219  0.8071
12759TIP3   OH259767   0.071   0.349  15.162  0.1614 -0.8471 -0.9658
12759TIP3    H159768   0.110   0.376  15.245  0.8048 -0.3652 -1.4278
12759TIP3    H259769  -0.013   0.394  15.159  1.0040  0.6914 -1.4951
12760TIP3   OH259770   3.793   6.786   4.455 -0.2428  0.0311  0.0438
12760TIP3    H159771   3.856   6.812   4.523  0.5305  0.0779 -0.6852
12760TIP3    H259772   3.847   6.751   4.384 -0.9373  1.4322 -1.2008
12761TIP3   OH259773   0.389   1.254   2.432 -0.6592 -0.1039  0.3297
12761TIP3    H159774   0.441   1.277   2.355 -0.8819 -1.7001 -0.3190
12761TIP3    H259775   0.368   1.338   2.473  2.0727  0.5910  0.3851
12762TIP3   OH259776   0.641   2.837  15.506 -0.3000  0.3527  0.1662
12762TIP3    H159777   0.569   2.822  15.568 -2.2812  1.3563 -1.8241
12762TIP3    H259778   0.708   2.882  15.557 -1.5159  0.3378  1.8044
12763TIP3   OH259779   1.716   2.031   6.314  0.2888  0.4121 -0.6576
12763TIP3    H159780   1.742   2.112   6.359  0.4121  0.3843 -0.6793
12763TIP3    H259781   1.799   1.990   6.288  0.1972  1.0222 -1.9623
12764TIP3   OH259782   4.673   2.050   2.791  0.7868  0.1125  0.0332
12764TIP3    H159783   4.585   2.018   2.776 -0.3356  2.7774  0.6334
12764TIP3    H259784   4.726   2.008   2.722 -1.4412  0.5052 -1.9802
12765TIP3   OH259785   0.481   6.533  14.821 -0.1042  0.8799  0.1195
12765TIP3    H159786   0.498   6.616  14.777 -1.3319  0.9128 -0.3012
12765TIP3    H259787   0.568   6.494  14.833  0.4268  1.9660 -0.1797
12766TIP3   OH259788   3.232   2.722  10.836  0.3176  0.0447  0.2245
12766TIP3    H159789   3.326   2.733  10.848  0.7288 -3.2484  0.3694
12766TIP3    H259790   3.207   2.655  10.898 -1.8447 -0.2807 -0.9346
12767TIP3   OH259791   4.623   2.263   2.561 -0.2174 -0.8394 -0.4218
12767TIP3    H159792   4.681   2.325   2.517 -0.7447 -0.1598 -0.1801
12767TIP3    H259793   4.680   2.192   2.589  0.4545 -0.2982 -0.4125
12768TIP3   OH259794   1.410   6.101  11.902  0.2026  0.5962 -0.0895
12768TIP3    H159795   1.412   6.134  11.992 -0.9469 -1.3841  0.6931
12768TIP3    H259796   1.488   6.138  11.861  0.5928  1.7382  1.6417
12769TIP3   OH259797   2.856   4.261   2.018  0.4580  0.6496 -0.0956
12769TIP3    H159798   2.822   4.178   1.986 -0.8223  0.3516  1.9590
12769TIP3    H259799   2.948   4.243   2.040  0.3580 -0.0474 -0.2520
12770TIP3   OH259800   5.566   2.488  16.386  0.4841  0.6299  0.2067
12770TIP3    H159801   5.524   2.515  16.304  1.1360 -2.1193 -1.0833
12770TIP3    H259802   5.503   2.428  16.426  1.4419 -0.3832  0.2199
12771TIP3   OH259803   5.772   1.622  14.292  0.6275  0.3535  0.7048
12771TIP3    H159804   5.799   1.712  14.310 -0.4032  0.6247  0.9290
12771TIP3    H259805   5.793   1.574  14.372  1.4315  0.3273  0.4859
12772TIP3   OH259806   3.948   5.577   6.072  0.1424 -0.2645 -0.1542
12772TIP3    H159807   4.021   5.529   6.112  1.7179  2.8462  0.8582
12772TIP3    H259808   3.869   5.535   6.108  1.4535 -1.5192  1.3537
12773TIP3   OH259809   5.017   3.855   4.718  0.2115 -0.1942 -0.6493
12773TIP3    H159810   5.051   3.916   4.784 -0.1816 -0.9195  0.2239
12773TIP3    H259811   5.003   3.910   4.641  1.2139  0.5501 -0.3169
12774TIP3   OH259812   4.047   2.310   2.462 -0.3013 -0.3601 -0.2684
12774TIP3    H159813   4.105   2.364   2.408  2.5023 -0.8013  2.1588
12774TIP3    H259814   3.961   2.351   2.454  0.7698  1.6016 -2.2654
12775TIP3   OH259815   0.914   3.346   0.935  0.2499  0.3316 -0.0496
12775TIP3    H159816   1.008   3.364   0.945 -0.2443  3.0710  0.0387
12775TIP3    H259817   0.876   3.431   0.912 -1.9859 -1.0832 -1.7568
12776TIP3   OH259818   1.221   4.730   2.533  0.3474 -0.3530  0.1794
12776TIP3    H159819   1.161   4.663   2.566 -0.3226  0.0039 -0.2938
12776TIP3    H259820   1.238   4.703   2.442  1.0741 -0.5663  0.3738
12777TIP3   OH259821   1.557   3.770   6.152  0.3254 -0.3843 -0.3727
12777TIP3    H159822   1.644   3.790   6.119  1.1564 -0.3106  1.7800
12777TIP3    H259823   1.561   3.790   6.246 -2.5099  1.2786 -0.5286
12778TIP3   OH259824   3.578   3.686  16.419  0.1117 -0.2003  0.2452
12778TIP3    H159825   3.656   3.728  16.454  0.4968 -0.3729 -0.3975
12778TIP3    H259826   3.577   3.709  16.326 -1.8145  1.6211  0.7031
12779TIP3   OH259827   0.801   4.391  15.394  0.1501 -0.2091  0.0933
12779TIP3    H159828   0.768   4.450  15.462 -0.0932 -0.1063 -0.1129
12779TIP3    H259829   0.895   4.412  15.388  0.1515 -0.1482  0.3259
12780TIP3   OH259830   0.426   1.933   5.171  0.3439 -0.0469 -0.4334
12780TIP3    H159831   0.337   1.952   5.199  1.4001  2.9701  1.0477
12780TIP3    H259832   0.416   1.888   5.087 -2.6197 -2.0059  0.9019
12781TIP3   OH259833   5.986   0.351  11.064  0.6763  0.3284  0.9416
12781TIP3    H159834   6.070   0.354  11.019 -0.2083  3.6620 -0.6319
12781TIP3    H259835   6.003   0.391  11.149  0.3103  2.8571 -0.1347
12782TIP3   OH259836   5.177   6.038  10.900 -0.3556  0.7662 -0.1304
12782TIP3    H159837   5.184   6.117  10.846  0.6314  1.2260  0.6573
12782TIP3    H259838   5.175   6.071  10.990  2.9433 -0.2289  0.3492
12783TIP3   OH259839   3.701   6.556   5.957 -0.0075 -0.0141 -0.2642
12783TIP3    H159840   3.766   6.546   6.027 -2.2344  0.2065  1.8996
12783TIP3    H259841   3.751   6.594   5.884  2.2936  0.1418  1.3169
12784TIP3   OH259842   0.861   1.486  11.072  0.1488  0.6855  0.0818
12784TIP3    H159843   0.875   1.519  10.983 -0.0320 -0.0232 -0.2151
12784TIP3    H259844   0.894   1.397  11.070  0.5357  0.8123  0.8512
12785TIP3   OH259845   4.827   4.599   0.664  0.9356 -0.6365  0.0253
12785TIP3    H159846   4.881   4.537   0.714  1.4589  1.8340  2.6442
12785TIP3    H259847   4.858   4.685   0.691 -2.2577  0.8274 -0.7644
12786TIP3   OH259848   0.278   4.975   1.676 -0.0389 -0.4487  0.2653
12786TIP3    H159849   0.325   4.929   1.606  1.6497 -1.6166  2.1013
12786TIP3    H259850   0.234   4.906   1.725 -0.4703  0.2547  0.8824
12787TIP3   OH259851   4.870   4.737   5.720 -0.3232  0.0149  0.3000
12787TIP3    H159852   4.853   4.724   5.813 -0.0368 -1.8811  0.1078
12787TIP3    H259853   4.826   4.820   5.698  0.5155  1.0250  2.3350
12788TIP3   OH259854   1.830   3.246  13.599 -0.0124 -0.1915 -0.3440
12788TIP3    H159855   1.766   3.317  13.594  0.8885  0.6227 -0.3033
12788TIP3    H259856   1.809   3.190  13.524 -0.3802  0.3876 -0.6744
12789TIP3   OH259857   2.091   1.096   4.987 -0.0796 -0.1291 -0.0393
12789TIP3    H159858   2.157   1.133   4.929  1.3610 -2.0190  0.3352
12789TIP3    H259859   2.082   1.005   4.959 -0.5705 -0.6198  1.6320
12790TIP3   OH259860   4.669   3.695   5.012  0.5249 -0.3204 -0.2723
12790TIP3    H159861   4.645   3.765   5.073 -1.1950  0.5140 -1.8481
12790TIP3    H259862   4.622   3.618   5.045 -0.2077  0.0668 -0.3992
12791TIP3   OH259863   0.706   4.427   0.240  0.1650  0.2230  0.2440
12791TIP3    H159864   0.701   4.512   0.195  1.3914 -0.1911 -0.7009
12791TIP3    H259865   0.678   4.363   0.175  0.0199 -0.1800  0.7005
12792TIP3   OH259866   1.213   5.668   5.586 -0.2287  0.1947 -0.4838
12792TIP3    H159867   1.273   5.734   5.622  0.8412  0.1683 -2.1439
12792TIP3    H259868   1.129   5.687   5.627  0.7261  0.7510  1.2719
12793TIP3   OH259869   4.302   2.653   4.663 -0.0114 -0.3695  0.5098
12793TIP3    H159870   4.257   2.647   4.747  0.2936 -1.2883  0.6187
12793TIP3    H259871   4.376   2.711   4.679  0.2634 -0.8457  0.9816
12794TIP3   OH259872   0.317   0.082   5.446 -0.0817  0.3499 -0.4595
12794TIP3    H159873   0.362   0.132   5.378 -0.5517 -0.1280 -1.1371
12794TIP3    H259874   0.242   0.043   5.400 -0.7961  0.5879  0.4941
12795TIP3   OH259875   2.609   3.667  12.124  0.5164 -0.4685 -0.3052
12795TIP3    H159876   2.578   3.746  12.079  0.3766 -0.7103 -0.6355
12795TIP3    H259877   2.704   3.678  12.127  0.3646  0.5436  1.2199
12796TIP3   OH259878   6.104   4.072  16.118  0.1637  0.0862 -0.4855
12796TIP3    H159879   6.052   4.094  16.196  0.2610 -0.0748 -0.3748
12796TIP3    H259880   6.054   4.108  16.045 -0.0161  0.0851 -0.3616
12797TIP3   OH259881   0.501   2.571  17.089  0.5732  0.5745 -0.5392
12797TIP3    H159882   0.455   2.579  17.005 -1.6492  0.2718  0.6278
12797TIP3    H259883   0.503   2.478  17.107  0.3916  0.6948  0.1078
12798TIP3   OH259884   2.756   4.703   4.490  0.0470  0.6554 -0.4305
12798TIP3    H159885   2.822   4.691   4.422 -0.6112  1.2466 -1.1854
12798TIP3    H259886   2.674   4.717   4.442 -0.6745 -0.2875  0.4874
12799TIP3   OH259887   1.088   5.501  13.158  0.0471  0.2137 -0.2234
12799TIP3    H159888   1.173   5.458  13.145 -1.1910 -2.9552  1.4579
12799TIP3    H259889   1.110   5.590  13.185  2.8767 -0.7606  0.9572
12800TIP3   OH259890   4.592   2.607  10.794 -0.1588 -0.1385 -0.1182
12800TIP3    H159891   4.568   2.700  10.794 -0.9982 -0.3421 -1.5561
12800TIP3    H259892   4.673   2.603  10.845  0.7632  1.6071 -1.3945
12801TIP3   OH259893   2.012   4.280  13.625 -0.1099 -0.4083  0.4244
12801TIP3    H159894   2.099   4.298  13.660 -0.7782 -2.4892  3.3447
12801TIP3    H259895   1.993   4.190  13.653 -2.7004 -0.4069 -1.1938
12802TIP3   OH259896   5.521   3.150  11.330 -0.6363  0.7384 -0.0840
12802TIP3    H159897   5.476   3.231  11.304 -1.0915  0.8770  1.0776
12802TIP3    H259898   5.468   3.116  11.402  0.5175  0.3266  0.5836
12803TIP3   OH259899   1.997   4.104  10.723 -0.6778  0.1699  0.8364
12803TIP3    H159900   2.077   4.122  10.674 -0.9729  0.7459  0.5618
12803TIP3    H259901   1.943   4.183  10.711 -1.2352 -0.1666  1.1109
12804TIP3   OH259902   4.264   1.561  15.354  0.2712  0.0505 -0.1539
12804TIP3    H159903   4.179   1.535  15.389  0.7432  0.5116  1.3751
12804TIP3    H259904   4.248   1.646  15.314  0.4631  1.2279  2.1696
12805TIP3   OH259905   5.283   1.088  11.231  0.1673  0.1600  0.1857
12805TIP3    H159906   5.259   1.148  11.302 -0.7693 -0.5803  0.5144
12805TIP3    H259907   5.228   1.115  11.157  0.7717  0.6050 -0.1034
12806TIP3   OH259908   6.284   1.827   1.850  0.2299 -0.3228  0.0527
12806TIP3    H159909   6.289   1.754   1.789  0.1305  0.8100 -1.3457
12806TIP3    H259910   6.238   1.896   1.801  1.6186  1.1849  0.8054
12807TIP3   OH259911   2.726   4.005   2.278 -0.0758 -0.4609  0.2554
12807TIP3    H159912   2.796   3.947   2.308  0.0723  0.4008  1.6032
12807TIP3    H259913   2.751   4.026   2.188  1.2353 -0.4284  0.6083
12808TIP3   OH259914   5.468   3.381   5.714  0.0244 -0.1179 -0.5814
12808TIP3    H159915   5.447   3.313   5.650 -0.4332 -1.8488  1.3508
12808TIP3    H259916   5.532   3.341   5.772  1.2894  1.8103 -0.5949
12809TIP3   OH259917   1.821   0.864  11.207  0.1341 -0.3236 -0.2344
12809TIP3    H159918   1.774   0.895  11.129 -1.8155 -2.2470  0.1264
12809TIP3    H259919   1.753   0.826  11.262  1.3712  1.5560  2.7386
12810TIP3   OH259920   4.187   0.329  16.726 -0.5540 -0.2396 -0.1464
12810TIP3    H159921   4.280   0.349  16.738 -0.5612  0.2504 -0.8690
12810TIP3    H259922   4.165   0.367  16.641 -1.2085 -1.1046 -0.3657
12811TIP3   OH259923   0.352   5.838  16.935  0.2018 -0.6875 -0.7661
12811TIP3    H159924   0.436   5.793  16.927 -0.5714 -2.3897  0.4867
12811TIP3    H259925   0.342   5.855  17.029 -1.1005 -0.9774 -0.8479
12812TIP3   OH259926   5.334   2.886  12.892  0.5713  0.4066 -0.0223
12812TIP3    H159927   5.386   2.830  12.949  0.2320  1.1448  1.0424
12812TIP3    H259928   5.338   2.844  12.806  1.3718 -0.5419  0.4665
12813TIP3   OH259929   0.289   0.586  17.027 -0.0535  0.0992 -0.0028
12813TIP3    H159930   0.304   0.503  17.071  1.3505  0.1972 -0.2743
12813TIP3    H259931   0.337   0.650  17.079 -1.0038  0.7303  0.1199
12814TIP3   OH259932   6.026   5.424  14.078 -0.0036 -0.0948 -0.3839
12814TIP3    H159933   6.038   5.334  14.106 -0.1036  0.4429  1.4571
12814TIP3    H259934   6.114   5.457  14.063  0.3283  0.6657  2.8149
12815TIP3   OH259935   0.068   5.571  15.760  0.1619 -0.4164  0.2012
12815TIP3    H159936   0.104   5.559  15.848  0.9032  0.5971  0.0468
12815TIP3    H259937   0.106   5.653  15.729 -0.6948 -0.3697 -0.7717
12816TIP3   OH259938   0.893   2.880  17.119 -0.5046 -0.4841  0.1910
12816TIP3    H159939   0.916   2.963  17.077 -0.3497  0.0517  1.3110
12816TIP3    H259940   0.808   2.858  17.083 -1.0711  0.7521  0.7277
12817TIP3   OH259941   1.068   5.894   2.839 -0.1716  0.1660 -0.8217
12817TIP3    H159942   1.125   5.968   2.859 -0.8355  0.9629 -1.8033
12817TIP3    H259943   1.114   5.845   2.771  1.2602 -1.5416  1.3438
12818TIP3   OH259944   0.696   1.756  12.667 -0.0442  0.1886  0.6717
12818TIP3    H159945   0.691   1.696  12.741  0.3802  0.4675  0.9328
12818TIP3    H259946   0.729   1.838  12.705  1.5269 -0.0838 -0.0572
12819TIP3   OH259947   0.391   1.141   0.821 -0.3497 -0.3827 -0.0848
12819TIP3    H159948   0.324   1.125   0.754 -0.5242  2.0761 -0.5342
12819TIP3    H259949   0.469   1.163   0.770  1.1160 -4.0938  0.4013
12820TIP3   OH259950   2.519   1.938   1.979 -0.0999  0.9545  0.0355
12820TIP3    H159951   2.540   1.988   2.058  1.7526 -1.1084  0.8852
12820TIP3    H259952   2.475   1.860   2.011  0.3897  0.2429 -0.9977
12821TIP3   OH259953   6.639   1.968   6.440  0.1482  0.4153  0.6599
12821TIP3    H159954   6.623   2.049   6.392 -0.3346  1.0968  1.9363
12821TIP3    H259955   6.599   1.983   6.526 -0.1518 -1.2557  0.8335
12822TIP3   OH259956   3.461   0.350   5.843  0.1855  0.1206  0.1892
12822TIP3    H159957   3.547   0.360   5.801  0.2853  0.0850  0.3810
12822TIP3    H259958   3.407   0.306   5.778  0.4491 -0.2790  0.2351
12823TIP3   OH259959   2.112   1.107   2.397  0.1186 -0.5477  0.2893
12823TIP3    H159960   2.176   1.140   2.461  0.9125  1.5598 -1.5315
12823TIP3    H259961   2.051   1.180   2.385 -1.7388 -1.9884  0.8284
12824TIP3   OH259962   4.212   4.813  15.593  0.3970  0.6072 -0.2601
12824TIP3    H159963   4.220   4.878  15.523  1.0208 -0.4501 -1.1762
12824TIP3    H259964   4.120   4.784  15.588  0.2001  1.2010 -0.0476
12825TIP3   OH259965   1.189   4.080  12.721 -0.1757 -0.4419 -0.1907
12825TIP3    H159966   1.097   4.070  12.748  0.1105 -1.7249  0.3764
12825TIP3    H259967   1.237   4.020  12.779  0.6389 -2.1678 -2.5786
12826TIP3   OH259968   5.041   0.290  12.650 -0.5539 -0.3436  0.3435
12826TIP3    H159969   5.104   0.221  12.670  0.2068  1.3058  4.0197
12826TIP3    H259970   4.960   0.262  12.693 -1.6178 -1.1113 -2.0500
12827TIP3   OH259971   3.549   1.391   4.855  0.0585  0.4620 -0.1334
12827TIP3    H159972   3.641   1.417   4.855  0.4798 -0.9826 -0.4703
12827TIP3    H259973   3.536   1.349   4.770 -0.6206 -0.3317  0.3636
12828TIP3   OH259974   6.560   6.548  12.020  0.1501 -0.8028 -0.1655
12828TIP3    H159975   6.513   6.585  11.945 -1.3817  0.8986  1.5491
12828TIP3    H259976   6.652   6.561  12.000 -0.2740  0.7835 -1.1794
12829TIP3   OH259977   6.036   5.134   4.927 -0.0128 -0.7360 -0.3914
12829TIP3    H159978   5.979   5.191   4.877  0.3119  0.1507  0.2374
12829TIP3    H259979   6.118   5.133   4.877  0.3507  0.2420  0.1757
12830TIP3   OH259980   3.027   5.945  14.326  0.1727 -0.4763 -0.0719
12830TIP3    H159981   2.936   5.934  14.355 -0.8140  3.6894 -1.2829
12830TIP3    H259982   3.033   5.891  14.247 -1.0012 -1.4207  0.4606
12831TIP3   OH259983   2.536   5.500   1.034 -0.2266  0.3756  0.3266
12831TIP3    H159984   2.576   5.584   1.054 -0.7512  0.8692 -0.6307
12831TIP3    H259985   2.605   5.451   0.988 -0.5373  1.0181 -0.8377
12832TIP3   OH259986   4.780   6.737  12.108  0.7377 -0.5634 -0.0885
12832TIP3    H159987   4.691   6.757  12.078  0.3824 -2.3064 -0.2104
12832TIP3    H259988   4.835   6.750  12.030  0.3774 -1.0261 -0.4164
12833TIP3   OH259989   6.151   3.242   5.844 -0.2046  0.1081  0.2456
12833TIP3    H159990   6.178   3.180   5.912  1.2785  0.7009  0.2243
12833TIP3    H259991   6.212   3.315   5.853 -0.8070  0.7692 -0.8922
12834TIP3   OH259992   3.990   2.920  10.406  1.2119  0.0304 -0.2687
12834TIP3    H159993   4.056   2.977  10.447 -0.0998  1.0105  0.5229
12834TIP3    H259994   4.018   2.913  10.315  1.2539  2.2189 -0.4677
12835TIP3   OH259995   3.538   6.635   3.250 -0.3287  0.0617  0.0853
12835TIP3    H159996   3.558   6.685   3.170 -2.3707  0.8973  0.0719
12835TIP3    H259997   3.567   6.546   3.231  0.5712  0.5873 -1.0362
12836TIP3   OH259998   5.301   4.288   0.467  0.0188  0.0774 -0.4041
12836TIP3    H159999   5.255   4.265   0.548  0.8882  1.8259  0.6128
12836TIP3    H260000   5.370   4.222   0.459 -0.4171 -0.4282 -0.0224
12837TIP3   OH260001   5.585   0.335  14.462 -0.6005  0.3414 -0.3586
12837TIP3    H160002   5.508   0.391  14.465 -1.4072 -0.8119  1.0978
12837TIP3    H260003   5.657   0.390  14.494 -1.1566  0.8801 -0.0396
12838TIP3   OH260004   3.011   0.633  16.060 -0.5847 -0.0455 -0.4807
12838TIP3    H160005   3.033   0.636  15.967  0.6944 -0.5373 -0.2066
12838TIP3    H260006   3.081   0.683  16.102 -1.1995  0.2442  0.2171
12839TIP3   OH260007   0.303   2.311   6.347  0.3850 -0.4857 -0.0136
12839TIP3    H160008   0.244   2.243   6.314 -1.7381  0.5079  1.5796
12839TIP3    H260009   0.324   2.284   6.436 -2.3677  2.0100  1.4978
12840TIP3   OH260010   1.906   0.086  11.102 -0.3782  0.0575  0.1295
12840TIP3    H160011   1.828   0.139  11.118 -0.5024 -0.4094  1.0908
12840TIP3    H260012   1.978   0.148  11.101 -0.9258  0.7315 -2.4748
12841TIP3   OH260013   6.047   3.325  12.625 -0.5114 -0.1495 -0.1407
12841TIP3    H160014   5.978   3.335  12.559 -1.4313 -0.9484  0.6598
12841TIP3    H260015   6.088   3.241  12.603  1.1013  0.9574 -1.4089
12842TIP3   OH260016   5.312   2.067  13.559  0.6421 -0.7284 -0.1211
12842TIP3    H160017   5.360   2.020  13.491  1.5101  1.1757 -0.8691
12842TIP3    H260018   5.285   2.148  13.517 -2.7209 -1.4655  0.4950
12843TIP3   OH260019   3.047   6.631  11.607 -0.3740  0.1048  0.0323
12843TIP3    H160020   2.986   6.597  11.672  0.5490  0.8437  1.3016
12843TIP3    H260021   3.078   6.714  11.643  3.7197 -1.6681  0.9182
12844TIP3   OH260022   4.583   4.781   4.106 -0.1828 -0.0613 -0.3698
12844TIP3    H160023   4.615   4.863   4.068  1.0870  0.5184  1.8778
12844TIP3    H260024   4.580   4.720   4.032  1.4268  1.2567 -1.5613
12845TIP3   OH260025   6.135   6.172  12.138  0.4230 -0.3688 -0.0328
12845TIP3    H160026   6.135   6.156  12.044  0.0886  2.2192 -0.4968
12845TIP3    H260027   6.055   6.222  12.154  1.4151  0.8027  1.3469
12846TIP3   OH260028   0.365   1.870  13.566 -0.3749  0.6876 -0.0507
12846TIP3    H160029   0.314   1.795  13.536 -1.1401  0.3619  2.0376
12846TIP3    H260030   0.385   1.918  13.485 -0.3399 -1.4451 -1.3534
12847TIP3   OH260031   5.734   1.477   2.571 -0.4502  0.2245  0.0223
12847TIP3    H160032   5.744   1.525   2.489 -0.6184 -1.2472 -0.8724
12847TIP3    H260033   5.820   1.483   2.613 -0.4178  1.1394 -0.1554
12848TIP3   OH260034   6.161   2.368   4.840 -0.1175 -0.4575 -0.2681
12848TIP3    H160035   6.067   2.358   4.825 -0.3519 -1.6425  1.7739
12848TIP3    H260036   6.189   2.283   4.875  1.8140 -0.2610 -1.2465
12849TIP3   OH260037   0.348   2.424  14.356 -0.2789  0.1163  0.7547
12849TIP3    H160038   0.441   2.404  14.341 -0.9257 -2.8785  0.4150
12849TIP3    H260039   0.344   2.455  14.446  1.2481  1.8768  0.2695
12850TIP3   OH260040   5.139   2.051  11.873  0.7567 -0.0952 -0.2778
12850TIP3    H160041   5.220   2.066  11.824  0.9953  0.5191  0.2978
12850TIP3    H260042   5.164   1.994  11.945  0.7765  0.4871  0.1775
12851TIP3   OH260043   6.161   4.511   2.437  0.1340  0.1587 -0.3315
12851TIP3    H160044   6.140   4.422   2.464  0.8289  0.0461 -0.1759
12851TIP3    H260045   6.254   4.521   2.453 -0.0129  1.0464  0.0237
12852TIP3   OH260046   1.014   3.850   1.822  0.1379  0.1616 -0.2911
12852TIP3    H160047   1.057   3.837   1.738  0.4948  0.8184 -0.2088
12852TIP3    H260048   1.037   3.771   1.873 -0.2725 -0.3425 -0.8840
12853TIP3   OH260049   1.875   1.554  17.258  0.2430 -0.2661 -0.0116
12853TIP3    H160050   1.910   1.571  17.345  1.5440 -1.0405 -0.3651
12853TIP3    H260051   1.802   1.493  17.273  0.9213 -0.9715  0.4749
12854TIP3   OH260052   2.178   4.582  15.027 -0.4647  0.0475 -0.3234
12854TIP3    H160053   2.240   4.517  14.995 -1.3190  0.7664 -3.7177
12854TIP3    H260054   2.219   4.666  15.008 -0.7970  0.5221  1.0132
12855TIP3   OH260055   2.178   4.561  12.672  0.9395 -0.0495 -0.0534
12855TIP3    H160056   2.163   4.619  12.598  1.0098 -2.5312 -2.0457
12855TIP3    H260057   2.091   4.546  12.709  0.6542 -0.5186 -0.9253
12856TIP3   OH260058   3.931   6.109  12.594 -0.1159  0.6098  0.3365
12856TIP3    H160059   3.885   6.124  12.677  2.0077  0.3607  1.6148
12856TIP3    H260060   3.867   6.065  12.538 -1.2510 -0.1957  2.2334
12857TIP3   OH260061   3.649   1.044   5.457 -0.4492  0.0121  0.6581
12857TIP3    H160062   3.643   1.138   5.439  0.9636  0.0254  0.2205
12857TIP3    H260063   3.699   1.038   5.538 -0.8250 -0.3474  0.8636
12858TIP3   OH260064   3.558   1.246  12.954 -0.1013 -0.8466 -0.5018
12858TIP3    H160065   3.534   1.317  13.014  1.0666  1.2447 -2.4146
12858TIP3    H260066   3.625   1.196  13.000  0.7534  0.7080 -0.0370
12859TIP3   OH260067   1.742   3.025   1.516 -0.3496 -0.1792 -0.4325
12859TIP3    H160068   1.824   2.989   1.548 -0.9023  0.2422  1.5278
12859TIP3    H260069   1.675   2.986   1.572 -1.4151  0.2206 -1.3921
12860TIP3   OH260070   0.441   2.020   5.705 -0.0818 -0.2050  0.0494
12860TIP3    H160071   0.432   1.944   5.762 -1.5043  0.7349  1.1312
12860TIP3    H260072   0.452   2.094   5.765 -3.1990  1.0271 -0.7660
12861TIP3   OH260073   3.316   2.336  13.269  0.0010 -0.5272  0.0709
12861TIP3    H160074   3.316   2.430  13.284 -0.9519 -0.0140 -2.8188
12861TIP3    H260075   3.276   2.299  13.348  0.2972  1.4776  1.1885
12862TIP3   OH260076   6.553   1.523   6.234  0.6824  0.1402 -0.1006
12862TIP3    H160077   6.632   1.483   6.197  0.5676 -1.6907  1.5042
12862TIP3    H260078   6.482   1.466   6.204  0.0589  1.2927 -0.8301
12863TIP3   OH260079   0.056   3.729  17.149  0.5709 -0.0793  0.5586
12863TIP3    H160080   0.040   3.772  17.065  1.3605 -1.7596 -0.4585
12863TIP3    H260081   0.067   3.802  17.211  1.9753  1.2181 -1.1532
12864TIP3   OH260082   4.746   2.893  11.422  0.2672 -0.5029 -0.2134
12864TIP3    H160083   4.729   2.884  11.516 -1.0891 -0.4752 -0.4564
12864TIP3    H260084   4.795   2.814  11.399 -0.2856 -1.0019  0.3073
12865TIP3   OH260085   0.995   4.549  17.269 -0.0917  0.6061  0.3065
12865TIP3    H160086   0.927   4.617  17.273 -1.0879 -0.3625  0.2707
12865TIP3    H260087   1.005   4.531  17.176 -0.2643  0.2971  0.3427
12866TIP3   OH260088   4.828   3.887   5.854  0.0219 -0.0453  0.0983
12866TIP3    H160089   4.748   3.892   5.802 -0.3656  1.3435  0.8221
12866TIP3    H260090   4.837   3.973   5.893  1.0595 -0.6576  1.2398
12867TIP3   OH260091   6.368   5.852  11.614 -0.7340 -0.3764  0.0831
12867TIP3    H160092   6.409   5.900  11.686 -1.6820 -0.7541  0.8838
12867TIP3    H260093   6.375   5.910  11.539  0.4940 -0.0813  0.4149
12868TIP3   OH260094   5.653   1.680   0.271  0.1077 -0.2723  0.1756
12868TIP3    H160095   5.625   1.760   0.227 -1.5372 -0.3369  1.0365
12868TIP3    H260096   5.737   1.702   0.310  0.6249  0.3951 -1.3107
12869TIP3   OH260097   1.965   0.650   4.510 -0.6382  0.0247 -0.0455
12869TIP3    H160098   1.970   0.736   4.467 -1.3414 -0.8237 -1.8569
12869TIP3    H260099   2.045   0.605   4.483 -0.0519  0.2680  1.2688
12870TIP3   OH260100   2.420   0.646  14.988  0.2503  0.2655  0.8957
12870TIP3    H160101   2.329   0.673  14.995 -0.0347 -0.0220 -1.2631
12870TIP3    H260102   2.424   0.561  15.030 -0.9380 -0.6423 -0.7951
12871TIP3   OH260103   5.164   1.453   5.576 -0.8211 -0.2155 -0.2553
12871TIP3    H160104   5.177   1.548   5.570 -0.4988 -0.2357  0.1609
12871TIP3    H260105   5.143   1.427   5.486  1.1675 -0.0636 -0.7888
12872TIP3   OH260106   4.505   3.830   2.313 -0.5710  0.3753 -0.4394
12872TIP3    H160107   4.577   3.893   2.316 -0.7146  0.4701  1.8353
12872TIP3    H260108   4.545   3.746   2.338 -0.9199  0.1211 -0.7355
12873TIP3   OH260109   6.573   1.431   4.083 -0.2367  0.1358 -0.4754
12873TIP3    H160110   6.667   1.434   4.099 -0.4782 -0.3702  1.1569
12873TIP3    H260111   6.536   1.489   4.150 -1.3459 -2.6236  1.3996
12874TIP3   OH260112   6.035   5.701   4.936 -0.1838 -0.0410 -0.5090
12874TIP3    H160113   5.947   5.669   4.920  0.4825 -0.9307 -2.5281
12874TIP3    H260114   6.024   5.770   5.001 -2.3608 -0.1761 -0.7080
12875TIP3   OH260115   3.444   5.012   4.322  0.0816  0.1620 -0.5107
12875TIP3    H160116   3.410   5.092   4.283  0.7566 -0.2588 -2.0000
12875TIP3    H260117   3.446   5.030   4.416 -2.3222  0.8912 -0.5758
12876TIP3   OH260118   2.779   0.525   3.900 -0.4910  0.7249  0.3677
12876TIP3    H160119   2.698   0.565   3.868 -0.0725  1.0440 -0.2994
12876TIP3    H260120   2.844   0.594   3.893  0.3508 -0.2225 -1.2835
12877TIP3   OH260121   4.189   3.493  16.341 -0.1055 -0.0055  0.3512
12877TIP3    H160122   4.189   3.399  16.322 -0.8506  0.5048 -2.3488
12877TIP3    H260123   4.116   3.505  16.403  0.2073 -1.2220  0.9769
12878TIP3   OH260124   5.526   2.000   2.986  0.4935 -0.7048 -0.5894
12878TIP3    H160125   5.538   1.907   3.003  0.8106 -0.9892 -2.3103
12878TIP3    H260126   5.605   2.041   3.022 -0.3343 -0.8945  1.5483
12879TIP3   OH260127   0.081   2.800   0.975  0.3496 -0.1424  0.0562
12879TIP3    H160128  -0.003   2.839   1.000 -0.1253 -0.0077 -1.6660
12879TIP3    H260129   0.123   2.868   0.923  1.9401  0.1342  1.6539
12880TIP3   OH260130   3.397   5.868   3.511 -0.8457 -0.4991 -0.1780
12880TIP3    H160131   3.364   5.785   3.545 -1.1788  0.0914  0.9836
12880TIP3    H260132   3.363   5.934   3.572  3.0412  0.1049  1.5430
12881TIP3   OH260133   4.032   2.137   0.197  0.0695  0.0126  0.4352
12881TIP3    H160134   4.009   2.143   0.104  0.3829 -1.4230  0.2510
12881TIP3    H260135   4.004   2.049   0.222  0.3420  0.2612  1.6109
12882TIP3   OH260136   5.969   6.236   2.110 -0.0953  0.4300  0.4219
12882TIP3    H160137   5.888   6.282   2.128 -0.7325 -0.7008  0.5231
12882TIP3    H260138   6.036   6.283   2.161 -0.7298  1.2033  0.5437
12883TIP3   OH260139   6.433   2.324  12.676 -0.3545  0.1385 -0.4017
12883TIP3    H160140   6.349   2.346  12.634  0.5937  1.8145 -1.4674
12883TIP3    H260141   6.423   2.356  12.765 -0.7210  0.6688 -0.6270
12884TIP3   OH260142   1.978   3.539  14.488  0.0400  0.2310 -0.1063
12884TIP3    H160143   1.962   3.450  14.518  0.9306 -0.2216 -0.9270
12884TIP3    H260144   1.892   3.574  14.467 -0.3779 -0.1938  0.8694
12885TIP3   OH260145   3.137   6.690  15.599  0.0688  0.3164  0.2321
12885TIP3    H160146   3.104   6.779  15.609 -0.6134 -0.0391  1.2370
12885TIP3    H260147   3.223   6.700  15.559 -0.3203  1.3808 -0.3606
12886TIP3   OH260148   6.348   0.186   3.525  0.0636  0.1579  0.6362
12886TIP3    H160149   6.410   0.247   3.566 -2.4013  3.4907 -0.3099
12886TIP3    H260150   6.374   0.184   3.433 -0.5232  0.6862  0.4536
12887TIP3   OH260151   4.273   1.233   0.279 -0.3168  0.5383  0.0327
12887TIP3    H160152   4.241   1.169   0.343 -1.6533 -0.7863 -1.9088
12887TIP3    H260153   4.341   1.187   0.230 -0.2443  1.0811 -0.3824
12888TIP3   OH260154   1.380   6.638  12.128  0.3054  0.1600 -0.4219
12888TIP3    H160155   1.356   6.597  12.045 -0.8675  1.1986 -0.6187
12888TIP3    H260156   1.381   6.565  12.191 -2.7729 -0.0921 -0.5567
12889TIP3   OH260157   4.533   1.575  13.485 -0.5677 -0.1318 -0.5610
12889TIP3    H160158   4.497   1.543  13.568  0.2764 -0.2041 -0.2166
12889TIP3    H260159   4.475   1.645  13.458  0.6419  1.6915  1.4434
12890TIP3   OH260160   0.794   1.479  16.140  0.4427  0.0476 -0.0752
12890TIP3    H160161   0.798   1.490  16.045  1.8622  1.4846  0.1326
12890TIP3    H260162   0.839   1.396  16.157 -0.0545 -0.3444 -0.6849
12891TIP3   OH260163   4.996   4.241  15.482 -0.2438  0.4109 -0.0432
12891TIP3    H160164   4.946   4.322  15.493 -0.7635  0.0406  0.2777
12891TIP3    H260165   5.083   4.272  15.456 -1.2955  0.9527 -3.0336
12892TIP3   OH260166   5.464   3.469   4.220 -0.0487  0.2618 -0.1198
12892TIP3    H160167   5.451   3.374   4.221  2.0586 -0.0505 -0.0534
12892TIP3    H260168   5.419   3.500   4.298  0.6789 -0.9095  0.7895
12893TIP3   OH260169   4.048   2.616  15.190  0.2358  0.3926 -0.8114
12893TIP3    H160170   4.127   2.628  15.137 -0.6954 -3.5998 -3.3296
12893TIP3    H260171   3.977   2.610  15.126 -1.4571 -0.7007  1.1150
12894TIP3   OH260172   4.665   4.312   5.557 -0.5452 -0.4152 -0.0551
12894TIP3    H160173   4.665   4.399   5.597 -0.1256 -1.0677  1.3998
12894TIP3    H260174   4.721   4.322   5.480  0.2432  0.3845  0.5988
12895TIP3   OH260175   6.025   4.925   6.339  0.1714 -0.4870  0.2129
12895TIP3    H160176   5.983   4.979   6.407 -2.1369 -0.0128 -1.5194
12895TIP3    H260177   6.102   4.976   6.313 -1.2491  1.3758 -0.4545
12896TIP3   OH260178   0.953   4.616   3.849  0.3083  0.2548 -0.0535
12896TIP3    H160179   0.916   4.532   3.821 -1.4464  0.4893  1.4733
12896TIP3    H260180   0.904   4.681   3.799  0.2717  0.4627  0.2543
12897TIP3   OH260181   3.338   3.470   0.143  0.1295 -0.6771 -0.7886
12897TIP3    H160182   3.338   3.381   0.178 -2.5602 -0.8123 -0.9772
12897TIP3    H260183   3.284   3.464   0.064 -0.6422  1.2333 -0.4380
12898TIP3   OH260184   0.271   1.518   2.428 -0.6814 -0.1017 -0.5659
12898TIP3    H160185   0.269   1.581   2.501  0.3536  0.5156 -1.0552
12898TIP3    H260186   0.185   1.476   2.430 -0.6189 -0.1847  1.1013
12899TIP3   OH260187   0.828   1.665   1.053 -0.1810 -0.2154 -0.0188
12899TIP3    H160188   0.877   1.736   1.011 -0.7219 -0.2623 -0.7313
12899TIP3    H260189   0.797   1.611   0.981 -1.2624 -0.1955  0.4242
12900TIP3   OH260190   4.925   4.575   1.703 -0.1016 -0.4364  0.0636
12900TIP3    H160191   4.964   4.562   1.790  0.0025 -1.2580 -0.0955
12900TIP3    H260192   4.947   4.665   1.680 -1.8077  0.4621  1.7365
12901TIP3   OH260193   6.318   5.414   5.423 -0.0581 -0.0159 -0.6421
12901TIP3    H160194   6.305   5.347   5.490 -0.5002 -0.1107 -0.8250
12901TIP3    H260195   6.261   5.486   5.450  2.2381  1.2958  0.9189
12902TIP3   OH260196   1.654   2.858   4.815  0.0896  0.2322 -0.1417
12902TIP3    H160197   1.605   2.779   4.838 -0.6597  0.6557 -0.2468
12902TIP3    H260198   1.686   2.892   4.898  0.1366 -0.0075 -0.0622
12903TIP3   OH260199   5.534   3.141   2.869 -0.1911 -0.0445 -0.4518
12903TIP3    H160200   5.584   3.113   2.946  0.7807 -0.5507 -1.2625
12903TIP3    H260201   5.448   3.102   2.881 -0.3174  0.5938  0.8111
12904TIP3   OH260202   0.744   5.313   2.003  0.0829 -0.9427  1.0198
12904TIP3    H160203   0.753   5.405   1.980  1.8629 -1.3985 -0.1685
12904TIP3    H260204   0.701   5.273   1.927  0.9548 -1.4308  0.7880
12905TIP3   OH260205   2.250   1.625   4.188 -0.4924 -0.1919 -0.1433
12905TIP3    H160206   2.155   1.632   4.171 -0.5199 -4.0655 -2.1108
12905TIP3    H260207   2.256   1.576   4.270 -0.1866  0.6066  0.3114
12906TIP3   OH260208   4.531   6.757   1.849  0.8460  0.0236 -0.3097
12906TIP3    H160209   4.451   6.775   1.898  0.7986 -1.6816  0.2992
12906TIP3    H260210   4.537   6.661   1.849  0.6461 -0.0552 -3.9629
12907TIP3   OH260211   2.986   4.398   2.821 -0.7721  0.1574  0.2807
12907TIP3    H160212   3.024   4.433   2.901 -1.3598 -1.2751  1.2017
12907TIP3    H260213   3.030   4.447   2.751  0.7528  0.4502  1.4034
12908TIP3   OH260214   0.806   4.630   2.651  0.0570 -0.0204 -0.6018
12908TIP3    H160215   0.801   4.710   2.600 -1.7306  0.0006 -0.4333
12908TIP3    H260216   0.877   4.646   2.714  0.3041  1.0738 -1.1471
12909TIP3   OH260217   0.685   6.383   2.381  0.1304  0.3705  0.2498
12909TIP3    H160218   0.742   6.455   2.356  3.1374 -2.2478 -0.7671
12909TIP3    H260219   0.623   6.374   2.309 -0.1494  1.8278  0.3095
12910TIP3   OH260220   4.200   4.540   2.990 -0.0404  0.2645  0.0518
12910TIP3    H160221   4.177   4.557   2.898  1.3160  0.1536 -0.3205
12910TIP3    H260222   4.149   4.463   3.014  0.6477 -0.5448 -1.0420
12911TIP3   OH260223   4.924   0.128  13.590 -0.3822 -0.3310 -0.1343
12911TIP3    H160224   4.939   0.126  13.495 -1.2233 -0.4174 -0.2769
12911TIP3    H260225   5.000   0.085  13.628  0.4255  0.5803 -0.7107
12912TIP3   OH260226   0.261   1.269  12.064  0.3328  0.7004  0.0803
12912TIP3    H160227   0.301   1.280  12.150  1.1238  1.2841 -0.3478
12912TIP3    H260228   0.320   1.210  12.017 -0.7643 -0.6255  0.3581
12913TIP3   OH260229   1.626   4.694  14.299  0.0140 -0.0486  0.1036
12913TIP3    H160230   1.658   4.618  14.347  0.2429 -1.0654 -1.6421
12913TIP3    H260231   1.531   4.683  14.297 -0.0918  0.5755  1.2706
12914TIP3   OH260232   3.158   4.505   0.584  0.0726  0.4134 -0.7331
12914TIP3    H160233   3.208   4.447   0.527 -2.2428 -1.2484 -1.1697
12914TIP3    H260234   3.073   4.513   0.540 -0.7373  1.5276  0.9990
12915TIP3   OH260235   2.151   6.010   4.101 -0.0280  0.1752  0.6892
12915TIP3    H160236   2.167   6.029   4.193 -0.0887  1.1082  0.5132
12915TIP3    H260237   2.199   5.929   4.084  2.6500  1.6810  0.7694
12916TIP3   OH260238   6.739   3.062   1.871  0.2303  0.0356 -0.2213
12916TIP3    H160239   6.705   3.123   1.937 -2.3347 -1.3996 -0.1310
12916TIP3    H260240   6.729   2.975   1.912 -0.6104 -0.7981 -2.1286
12917TIP3   OH260241   3.408   5.384  13.468 -0.4006 -0.0399 -0.1101
12917TIP3    H160242   3.409   5.445  13.542 -1.8313 -0.9155  0.6510
12917TIP3    H260243   3.501   5.367  13.450 -0.0314 -0.0892  1.7066
12918TIP3   OH260244   6.691   0.748   3.688 -0.1011 -0.0789  0.2391
12918TIP3    H160245   6.641   0.721   3.611 -1.3039 -2.2514  1.7022
12918TIP3    H260246   6.641   0.821   3.725  0.6215  1.1367 -1.1581
12919TIP3   OH260247   0.088   0.046   0.115  0.5040  0.2705  0.5953
12919TIP3    H160248   0.177   0.081   0.105  1.0233 -0.6253  2.0749
12919TIP3    H260249   0.085   0.010   0.203 -1.5466  0.8769  0.8116
12920TIP3   OH260250   0.370   1.639  14.236  0.0252 -0.0085  0.4218
12920TIP3    H160251   0.306   1.685  14.290  0.2293  1.9883 -1.0020
12920TIP3    H260252   0.341   1.654  14.146  1.0666 -1.2317 -0.1355
12921TIP3   OH260253   2.223   0.163  14.480 -0.5571  0.0100  0.3303
12921TIP3    H160254   2.315   0.184  14.462 -0.7741  0.1088 -0.7285
12921TIP3    H260255   2.178   0.183  14.397 -1.3977 -0.8184  0.5866
12922TIP3   OH260256   4.344   1.737   4.596  0.3824  0.1919  0.0548
12922TIP3    H160257   4.337   1.799   4.524 -1.4719 -0.3174 -0.2346
12922TIP3    H260258   4.308   1.785   4.672  2.7309  0.8833  0.7649
12923TIP3   OH260259   3.077   3.491   4.438  0.7519  0.0991  0.1143
12923TIP3    H160260   2.983   3.505   4.427  0.6298 -1.1158 -0.5192
12923TIP3    H260261   3.086   3.462   4.529  0.6222  1.0969  0.4430
12924TIP3   OH260262   1.213   0.650  15.114 -0.1508 -0.1879 -1.0584
12924TIP3    H160263   1.167   0.618  15.036 -1.6267 -0.1994 -0.2048
12924TIP3    H260264   1.145   0.691  15.167  0.8482 -0.1113  0.2020
12925TIP3   OH260265   3.214   3.261  11.498 -0.4162 -0.3069  0.1781
12925TIP3    H160266   3.220   3.179  11.547 -1.8546 -0.2662  0.4377
12925TIP3    H260267   3.170   3.322  11.558  0.2385  0.5257 -0.1805
12926TIP3   OH260268   4.446   6.123  14.660  0.2508 -0.0014 -0.4259
12926TIP3    H160269   4.470   6.092  14.572  2.1292  1.3964 -0.4251
12926TIP3    H260270   4.509   6.081  14.718  0.7370  1.2181 -0.0597
12927TIP3   OH260271   4.178   2.706   4.416  0.1778 -0.3231  0.0278
12927TIP3    H160272   4.231   2.687   4.493  2.3725 -2.8106 -2.0010
12927TIP3    H260273   4.224   2.777   4.371  1.5180 -2.0843 -1.4278
12928TIP3   OH260274   0.566   3.536   2.396 -0.2066  0.1324 -0.5533
12928TIP3    H160275   0.483   3.561   2.356 -0.8446 -1.3244 -0.1754
12928TIP3    H260276   0.548   3.536   2.490  0.0645 -0.6901 -0.4966
12929TIP3   OH260277   1.682   3.290   5.148 -0.2525 -0.0589 -0.2598
12929TIP3    H160278   1.756   3.240   5.113 -0.4095  0.0836 -0.7984
12929TIP3    H260279   1.613   3.279   5.083 -0.8026 -0.4253  0.3813
12930TIP3   OH260280   1.902   1.231   4.833  0.5644  0.0466 -0.1355
12930TIP3    H160281   1.934   1.193   4.915 -2.4743  1.6294  1.8931
12930TIP3    H260282   1.973   1.287   4.803  1.1773  0.6559  2.3043
12931TIP3   OH260283   2.361   1.345  13.306  0.4004  0.5800  0.1416
12931TIP3    H160284   2.386   1.405  13.377  1.0236 -0.0959  0.5053
12931TIP3    H260285   2.443   1.327  13.260  0.2519 -0.1180  0.1361
12932TIP3   OH260286   5.615   4.915  13.907 -0.0651 -0.0462 -0.2007
12932TIP3    H160287   5.682   4.850  13.931 -0.9965 -0.4496  1.3612
12932TIP3    H260288   5.628   4.929  13.813  2.5816  0.3024  0.1587
12933TIP3   OH260289   6.761   1.232   3.416 -0.1561  0.0868  0.2121
12933TIP3    H160290   6.701   1.158   3.423 -0.2022  0.1130  0.0940
12933TIP3    H260291   6.744   1.284   3.495 -0.3306  0.1266  0.1481
12934TIP3   OH260292   4.876   4.333  16.778 -0.4607 -0.3904 -0.3295
12934TIP3    H160293   4.948   4.385  16.815 -0.3806 -0.5241 -0.2941
12934TIP3    H260294   4.920   4.263  16.729 -0.5681 -0.0351 -0.9350
12935TIP3   OH260295   5.157   2.614  13.526 -0.2704 -0.1950  0.0059
12935TIP3    H160296   5.070   2.582  13.504 -0.3080  0.4854 -0.8833
12935TIP3    H260297   5.185   2.662  13.448  0.2824  0.8739  0.8472
12936TIP3   OH260298   0.787   4.093  14.296 -0.2431  0.0599  0.1071
12936TIP3    H160299   0.877   4.097  14.263 -0.1174 -1.9807  0.1307
12936TIP3    H260300   0.754   4.182  14.286  1.7934  0.8453  0.1360
12937TIP3   OH260301   6.442   6.310   5.169  0.6515 -0.2493 -0.4492
12937TIP3    H160302   6.478   6.234   5.214  2.2127  0.8856  0.2682
12937TIP3    H260303   6.398   6.360   5.237 -2.6840 -1.7758 -1.3706
12938TIP3   OH260304   2.584   6.100  15.545  0.5512  1.0001 -0.0349
12938TIP3    H160305   2.576   6.031  15.610 -1.5695 -0.8888 -2.1965
12938TIP3    H260306   2.572   6.181  15.594 -2.8487 -0.4398  1.7171
12939TIP3   OH260307   0.585   1.906  15.712 -0.0394 -0.4287  0.3154
12939TIP3    H160308   0.635   1.831  15.678 -0.5119 -0.7101  0.2425
12939TIP3    H260309   0.652   1.965  15.747  0.3807 -0.5808 -0.2232
12940TIP3   OH260310   1.248   2.445  14.677 -0.0974 -0.7153 -0.1367
12940TIP3    H160311   1.245   2.512  14.745  2.2983 -1.1734  0.4676
12940TIP3    H260312   1.232   2.493  14.595 -0.7632  0.2031  0.5234
12941TIP3   OH260313   1.073   4.762  14.885  0.1014  0.0025 -0.2527
12941TIP3    H160314   1.157   4.805  14.899 -0.6324  1.0359  1.0774
12941TIP3    H260315   1.054   4.718  14.968 -0.5363 -0.4765 -0.6453
12942TIP3   OH260316   1.890   2.731  14.227  0.4663 -0.4593  0.0786
12942TIP3    H160317   1.829   2.669  14.269 -0.5717  0.7338  0.3726
12942TIP3    H260318   1.935   2.679  14.161  0.0730 -1.6883  0.7560
12943TIP3   OH260319   2.171   6.138   0.116 -0.1742 -0.1521 -0.3397
12943TIP3    H160320   2.075   6.135   0.109 -0.1685  0.5328 -0.7314
12943TIP3    H260321   2.202   6.148   0.026  0.2364  0.3111 -0.1529
12944TIP3   OH260322   6.039   1.313   3.209 -0.6261 -0.0049  0.2216
12944TIP3    H160323   6.067   1.222   3.218  1.0095  0.5064  0.4502
12944TIP3    H260324   6.027   1.324   3.114 -1.9487 -0.7648  0.2845
12945TIP3   OH260325   2.348   6.079  16.534 -0.6833 -0.0858 -0.4832
12945TIP3    H160326   2.375   6.006  16.477  2.3469  0.3931  0.2231
12945TIP3    H260327   2.378   6.052  16.621  0.5897  2.0318 -0.2336
12946TIP3   OH260328   2.989   3.501  13.468  0.2721 -0.0886 -0.3096
12946TIP3    H160329   2.911   3.546  13.435 -0.3792 -0.0700  1.2131
12946TIP3    H260330   3.060   3.563  13.451 -0.1353  0.1547 -1.1617
12947TIP3   OH260331   4.820   5.924   5.928 -0.2271 -0.3910  0.5226
12947TIP3    H160332   4.824   5.942   5.834  0.7628  0.0860  0.6479
12947TIP3    H260333   4.832   5.829   5.934 -0.2222 -0.4163  0.1726
12948TIP3   OH260334   5.779   3.697   3.356 -0.2706  0.2867 -0.6294
12948TIP3    H160335   5.694   3.702   3.314 -0.5542 -0.1127 -0.1120
12948TIP3    H260336   5.766   3.738   3.442  0.0091  0.0749 -0.4836
12949TIP3   OH260337   6.356   0.189  13.887  0.4720  0.0772  0.3931
12949TIP3    H160338   6.311   0.255  13.939 -0.5050 -0.2314 -0.0559
12949TIP3    H260339   6.291   0.159  13.823  0.1814 -2.8417  1.9559
12950TIP3   OH260340   4.080   4.574  10.924  0.2050  0.6149 -0.1544
12950TIP3    H160341   4.036   4.645  10.971 -0.6469 -0.0456  0.0485
12950TIP3    H260342   4.148   4.543  10.984  0.3782  1.0416 -0.1255
12951TIP3   OH260343   5.986   1.314   3.509 -0.2344 -0.3258 -0.2645
12951TIP3    H160344   6.035   1.341   3.586 -2.5214  1.5758  0.5883
12951TIP3    H260345   6.050   1.316   3.438  1.3968  0.0266  1.1781
12952TIP3   OH260346   4.540   2.438   5.216  0.0476  0.4575  0.7956
12952TIP3    H160347   4.620   2.468   5.259 -0.1417  1.5825  0.3649
12952TIP3    H260348   4.517   2.358   5.263  0.9261  0.6110  1.5103
12953TIP3   OH260349   4.573   1.634  15.923 -0.2379 -0.1203  0.6158
12953TIP3    H160350   4.500   1.638  15.860  1.4312  0.9120 -1.3195
12953TIP3    H260351   4.555   1.556  15.975 -2.0904 -0.5832 -0.6420
12954TIP3   OH260352   2.629   6.161   4.641  0.0014  0.1390 -0.1820
12954TIP3    H160353   2.663   6.115   4.564 -0.2898  1.8964 -1.4105
12954TIP3    H260354   2.582   6.236   4.604 -0.5329  0.7488  1.7102
12955TIP3   OH260355   5.964   2.147   3.418 -0.0495 -0.1986 -0.0151
12955TIP3    H160356   6.013   2.079   3.463 -0.0210 -0.4171 -0.3720
12955TIP3    H260357   5.889   2.102   3.379  0.8723 -0.3398 -1.6777
12956TIP3   OH260358   5.640   0.644  12.099  1.1335 -0.0540 -0.2737
12956TIP3    H160359   5.671   0.727  12.062  0.9084  0.6233  1.0276
12956TIP3    H260360   5.707   0.619  12.162  1.2101 -0.8847 -0.6831
12957TIP3   OH260361   5.402   3.963   2.311 -0.0351 -0.0564 -0.0214
12957TIP3    H160362   5.462   3.902   2.268 -0.5504  1.3150 -2.8223
12957TIP3    H260363   5.328   3.910   2.338  0.5422 -1.0453 -0.3695
12958TIP3   OH260364   6.664   0.917  14.066 -0.0885  0.1130 -0.0235
12958TIP3    H160365   6.739   0.976  14.076 -1.7066  2.1278  0.4886
12958TIP3    H260366   6.676   0.877  13.980 -0.0517  2.7698 -1.2836
12959TIP3   OH260367   2.064   6.125  16.197 -0.4835 -0.2041  0.4251
12959TIP3    H160368   1.984   6.125  16.144 -1.1511 -0.0830  1.4046
12959TIP3    H260369   2.133   6.095  16.138 -1.5882 -2.0579  0.0402
12960TIP3   OH260370   3.597   2.691   2.964  0.3123 -0.8544  0.1025
12960TIP3    H160371   3.584   2.678   3.058 -1.1091 -3.5795 -0.4359
12960TIP3    H260372   3.509   2.708   2.930  0.9438  1.0820 -0.6212
12961TIP3   OH260373   0.172   4.773  12.608 -0.4325  0.3060 -0.4584
12961TIP3    H160374   0.180   4.862  12.644  1.4493  0.6047 -1.5685
12961TIP3    H260375   0.192   4.783  12.514 -0.0213 -1.3170 -0.5615
12962TIP3   OH260376   6.598   1.465  13.756 -0.4121 -0.1407  0.0737
12962TIP3    H160377   6.526   1.527  13.768  1.3745  1.7759  1.2524
12962TIP3    H260378   6.598   1.413  13.837 -0.3861 -0.0747  0.1155
12963TIP3   OH260379   4.262   4.370   4.649 -0.3883  0.8039 -0.6596
12963TIP3    H160380   4.249   4.304   4.717 -0.7130  0.8626 -0.6624
12963TIP3    H260381   4.267   4.453   4.697  1.3189  0.6469 -0.5461
12964TIP3   OH260382   3.097   3.080  12.863 -0.1069 -0.0072  0.1423
12964TIP3    H160383   3.132   3.084  12.774  1.0369 -0.5694  0.5536
12964TIP3    H260384   3.087   3.172  12.888 -1.1449  0.1478 -0.8358
12965TIP3   OH260385   3.711   5.079   0.702  0.0470 -0.2045 -0.9634
12965TIP3    H160386   3.803   5.101   0.718  0.1020 -0.4825 -0.8990
12965TIP3    H260387   3.689   5.126   0.622 -0.4021  1.7359  0.2506
12966TIP3   OH260388   3.722   0.146   2.372 -0.1397 -0.4283  0.5494
12966TIP3    H160389   3.816   0.134   2.385  0.4367  1.9362 -1.0804
12966TIP3    H260390   3.693   0.193   2.451  0.5163  0.8664  0.0410
12967TIP3   OH260391   2.885   5.369   5.253  0.3795  0.0571  0.5161
12967TIP3    H160392   2.790   5.374   5.246  0.5328  1.4137 -0.8023
12967TIP3    H260393   2.903   5.276   5.267 -1.2368  0.0146  2.6446
12968TIP3   OH260394   1.322   2.049  13.423  0.0755 -0.2976  0.2710
12968TIP3    H160395   1.255   2.055  13.354 -0.5879 -0.6376  0.8797
12968TIP3    H260396   1.326   2.137  13.460 -0.1935 -0.3267  0.3751
12969TIP3   OH260397   5.707   0.460  17.262 -0.0689 -0.3284 -0.6352
12969TIP3    H160398   5.734   0.384  17.211  0.0667 -0.3775 -0.4928
12969TIP3    H260399   5.685   0.526  17.196  0.5337 -0.2419 -0.7611
12970TIP3   OH260400   4.191   2.326  10.937  0.3510  0.1492  0.4022
12970TIP3    H160401   4.240   2.354  10.860 -0.1031  0.5442  0.2531
12970TIP3    H260402   4.111   2.288  10.902  0.7143 -0.8335  0.6308
12971TIP3   OH260403   2.406   0.700   5.039  0.2265  0.2044 -0.3993
12971TIP3    H160404   2.377   0.619   5.080 -0.8914 -0.4316 -2.4133
12971TIP3    H260405   2.491   0.678   5.000 -0.2485 -0.1010 -1.2627
12972TIP3   OH260406   2.521   0.596  14.551 -0.6692  0.1800 -0.4700
12972TIP3    H160407   2.614   0.607  14.571 -1.2497 -0.0869  2.5990
12972TIP3    H260408   2.520   0.531  14.481  1.4603  0.1811 -0.5503
12973TIP3   OH260409   1.404   6.811  15.126  0.5813  0.3236 -0.5076
12973TIP3    H160410   1.353   6.782  15.051 -0.5814  0.1038  0.3496
12973TIP3    H260411   1.415   6.905  15.113  1.2205  0.1303 -1.4322
12974TIP3   OH260412   1.639   1.054   4.310 -0.1487  0.1948  0.0520
12974TIP3    H160413   1.625   1.144   4.337  0.5408  0.5389 -0.6957
12974TIP3    H260414   1.734   1.042   4.317  0.0225  0.2094 -1.8782
12975TIP3   OH260415   2.302   3.839  12.824  0.0865  0.5843  0.0508
12975TIP3    H160416   2.220   3.879  12.852 -0.7134 -2.8270  2.9713
12975TIP3    H260417   2.277   3.779  12.754  0.3374  0.5716 -0.0301
12976TIP3   OH260418   1.372   5.741   4.252 -0.2930 -0.8111  0.2426
12976TIP3    H160419   1.405   5.661   4.211  1.2697  0.2804 -0.6872
12976TIP3    H260420   1.407   5.811   4.198 -0.0321  0.5862  2.1924
12977TIP3   OH260421   6.330   5.894   6.120 -0.6998 -0.4367  0.0821
12977TIP3    H160422   6.353   5.856   6.204  0.4480  0.1774  0.0464
12977TIP3    H260423   6.311   5.818   6.064  0.8655 -0.9519  0.2166
12978TIP3   OH260424   3.403   3.943  13.568 -0.1759  0.2645  0.0582
12978TIP3    H160425   3.425   3.959  13.477 -0.5576 -0.7713 -0.2257
12978TIP3    H260426   3.471   3.882  13.598 -1.4229 -1.3018 -0.2297
12979TIP3   OH260427   2.503   1.699  14.550  0.0657 -0.4877  0.1371
12979TIP3    H160428   2.439   1.708  14.479  0.0681  0.0372  0.1999
12979TIP3    H260429   2.588   1.707  14.507  0.0718 -0.4814  0.1505
12980TIP3   OH260430   0.896   1.002   0.525 -0.1857 -0.7602  0.3296
12980TIP3    H160431   0.965   1.028   0.586 -1.7293  1.1128  1.3353
12980TIP3    H260432   0.814   1.024   0.571 -1.4909 -3.5448 -0.5442
12981TIP3   OH260433   3.017   3.066   5.351 -0.3501 -0.4374  0.1026
12981TIP3    H160434   3.005   2.989   5.295  0.2506 -0.8529  0.5357
12981TIP3    H260435   3.097   3.106   5.320 -1.9446  1.4017 -1.7097
12982TIP3   OH260436   3.054   0.195   5.780  0.2737  0.5460 -0.8595
12982TIP3    H160437   3.136   0.185   5.731 -0.0516 -0.8211 -1.1343
12982TIP3    H260438   2.988   0.211   5.713 -0.0222 -0.4325 -0.8117
12983TIP3   OH260439   0.564   5.104   6.002  0.3250  0.1235 -0.2503
12983TIP3    H160440   0.603   5.078   6.086 -1.5006 -0.4017  0.4905
12983TIP3    H260441   0.610   5.184   5.977  0.9538  0.2457  1.2247
12984TIP3   OH260442   6.726   5.431  16.764  0.4491 -0.7675 -0.1776
12984TIP3    H160443   6.814   5.403  16.740  0.8434  0.3320 -0.0510
12984TIP3    H260444   6.701   5.493  16.695 -0.3667 -1.3210 -0.3956
12985TIP3   OH260445   1.163   5.966   5.419 -0.2854 -0.1430  0.3236
12985TIP3    H160446   1.181   5.893   5.479 -1.1212  0.8201  1.7906
12985TIP3    H260447   1.071   5.989   5.437  0.1026  1.5425  0.2024
12986TIP3   OH260448   4.242   4.633   6.711 -0.1729 -0.7288  0.0649
12986TIP3    H160449   4.247   4.719   6.751  1.2196 -1.4441  1.4879
12986TIP3    H260450   4.204   4.648   6.625  1.3367  1.4873 -0.2424
12987TIP3   OH260451   1.610   3.161   4.063  0.3046 -0.6126 -0.6053
12987TIP3    H160452   1.577   3.248   4.086  0.6709 -0.6697  0.1542
12987TIP3    H260453   1.538   3.120   4.014 -0.0556 -0.0663 -0.5403
12988TIP3   OH260454   4.820   5.710  11.564  0.5525  0.3197  0.4026
12988TIP3    H160455   4.872   5.791  11.565 -1.0424  1.3553  1.6029
12988TIP3    H260456   4.732   5.738  11.539  0.1544 -1.1470  0.1378
12989TIP3   OH260457   5.111   5.760  13.267 -0.5971 -0.4268 -0.4553
12989TIP3    H160458   5.118   5.798  13.179 -0.1660  0.1303 -0.1841
12989TIP3    H260459   5.047   5.690  13.257 -1.9067  0.7932 -0.8206
12990TIP3   OH260460   1.099   4.134   0.368  0.1726  0.6197  0.5689
12990TIP3    H160461   1.161   4.205   0.349 -3.4033  3.6128 -0.7377
12990TIP3    H260462   1.054   4.163   0.447 -0.5842 -0.7556  0.6483
12991TIP3   OH260463   4.376   2.594  15.709  0.4599  0.5917 -0.6117
12991TIP3    H160464   4.349   2.617  15.798  0.9575  2.0704 -0.8207
12991TIP3    H260465   4.456   2.645  15.695  1.1398 -0.6807 -1.4187
12992TIP3   OH260466   0.615   1.443   5.232 -0.6985 -0.1405 -0.1457
12992TIP3    H160467   0.614   1.397   5.148  0.0208  1.7086 -1.2054
12992TIP3    H260468   0.701   1.484   5.235 -1.6525  1.8494  0.3708
12993TIP3   OH260469   6.462   0.881   0.984 -0.1391  0.1671  0.2424
12993TIP3    H160470   6.500   0.964   1.012  1.1109 -0.2350 -0.2505
12993TIP3    H260471   6.532   0.837   0.936 -1.1775 -0.6416 -0.5631
12994TIP3   OH260472   2.827   6.125   3.581 -0.4872 -0.4555 -0.7765
12994TIP3    H160473   2.791   6.091   3.663 -0.0615 -0.1386 -0.4561
12994TIP3    H260474   2.752   6.131   3.522 -1.2228  1.6036  0.3367
12995TIP3   OH260475   0.282   0.263  12.733  0.0874  0.6849  0.3787
12995TIP3    H160476   0.366   0.218  12.740 -0.3144  0.0763  1.3100
12995TIP3    H260477   0.264   0.295  12.821 -1.5434 -0.7977  0.6103
12996TIP3   OH260478   3.665   4.247   3.001  0.0673 -0.7168  0.2151
12996TIP3    H160479   3.678   4.320   3.062  1.2551 -1.0473  0.3739
12996TIP3    H260480   3.687   4.284   2.915 -0.3917 -0.5928  0.1500
12997TIP3   OH260481   1.083   5.718  13.585  0.6363 -0.8955 -0.8464
12997TIP3    H160482   1.044   5.789  13.535 -1.1738 -2.1330 -1.2445
12997TIP3    H260483   1.126   5.662  13.520 -1.6489 -2.4601 -1.0732
12998TIP3   OH260484   4.430   5.904  11.332 -1.0548  0.1679  0.1788
12998TIP3    H160485   4.495   5.920  11.264 -0.8761  2.3320  0.8247
12998TIP3    H260486   4.346   5.926  11.290 -1.0102  0.8588  0.4489
12999TIP3   OH260487   0.103   0.242   3.547 -0.1868 -0.3363 -0.2721
12999TIP3    H160488   0.150   0.225   3.629  1.4537  0.1357 -1.1047
12999TIP3    H260489   0.095   0.156   3.506 -3.0274 -0.9550  1.4004
13000TIP3   OH260490   6.411   3.032   4.181 -0.3416 -0.4195 -0.5292
13000TIP3    H160491   6.337   2.985   4.220 -0.3385 -1.9519 -2.3293
13000TIP3    H260492   6.373   3.079   4.107 -0.2311  2.0107  0.9107
13001TIP3   OH260493   3.712   0.972   3.105  0.1140 -0.3833 -0.3212
13001TIP3    H160494   3.789   0.938   3.150  0.6604  0.6303 -0.4881
13001TIP3    H260495   3.736   1.060   3.077 -1.6822  0.6099  1.0956
13002TIP3   OH260496   6.455   1.874   4.517  0.1824  0.0830 -0.4278
13002TIP3    H160497   6.401   1.797   4.529  0.3038 -0.0896 -0.9764
13002TIP3    H260498   6.394   1.947   4.515  0.1540  0.1220  1.2163
13003TIP3   OH260499   2.712   0.371  16.017 -0.4565  0.4834  0.0028
13003TIP3    H160500   2.688   0.459  15.985 -1.5968  0.1426 -0.1039
13003TIP3    H260501   2.645   0.314  15.980 -0.7652 -0.1816  1.5588
13004TIP3   OH260502   6.803   0.319   5.880  0.0679 -0.3981 -0.6548
13004TIP3    H160503   6.868   0.276   5.935 -0.2731 -1.3131 -0.9639
13004TIP3    H260504   6.838   0.407   5.865  0.8136 -0.6017 -0.1148
13005TIP3   OH260505   5.028   5.244  13.813  0.0639 -0.3743  0.0083
13005TIP3    H160506   4.943   5.287  13.802 -0.1850 -0.9213 -0.2448
13005TIP3    H260507   5.092   5.313  13.799 -0.3485  0.2011  0.8885
13006TIP3   OH260508   0.280   2.996  16.522 -0.3648 -0.1439  0.0669
13006TIP3    H160509   0.235   3.040  16.594 -2.0980 -1.2192 -0.3303
13006TIP3    H260510   0.237   2.911  16.515  0.9515 -0.7407 -1.1034
13007TIP3   OH260511   4.466   5.807   3.476  0.4890  0.0260  0.1739
13007TIP3    H160512   4.558   5.788   3.460  0.3996  0.5247 -0.9904
13007TIP3    H260513   4.444   5.877   3.414 -1.2848 -1.7505 -1.2931
13008TIP3   OH260514   1.989   2.312  11.823 -0.3205 -0.2878 -0.1972
13008TIP3    H160515   1.994   2.324  11.917  0.5157 -0.5583 -0.2032
13008TIP3    H260516   2.023   2.223  11.808  1.3598  0.4521 -0.9279
13009TIP3   OH260517   3.111   4.862  15.744  0.0929 -0.1755 -0.3126
13009TIP3    H160518   3.041   4.810  15.706  1.0666 -1.5925 -0.1964
13009TIP3    H260519   3.150   4.805  15.811  1.8962  0.2616 -0.9688
13010TIP3   OH260520   2.468   5.521   1.440  0.3115  0.1775 -0.2977
13010TIP3    H160521   2.426   5.593   1.393  2.6978  0.3509 -2.2227
13010TIP3    H260522   2.441   5.442   1.393 -1.2354 -0.0937  1.0160
13011TIP3   OH260523   0.794   1.698   2.863  0.3362 -0.6120  0.4037
13011TIP3    H160524   0.873   1.671   2.910  0.4420 -1.4812 -0.2745
13011TIP3    H260525   0.722   1.666   2.917  0.4435 -0.0858  0.8652
13012TIP3   OH260526   4.616   0.093   6.064  0.1122 -0.1580  0.3531
13012TIP3    H160527   4.628   0.075   6.157  0.6519 -1.1970  0.0840
13012TIP3    H260528   4.551   0.029   6.035  0.8839 -0.6634 -0.2598
13013TIP3   OH260529   1.748   5.710   5.274  0.7874  0.0384  0.2390
13013TIP3    H160530   1.756   5.682   5.365 -1.1365  0.7769  0.6443
13013TIP3    H260531   1.811   5.781   5.265  0.6967  0.2308  1.0967
13014TIP3   OH260532   0.785   4.264  13.270  0.4669 -0.2708 -0.2566
13014TIP3    H160533   0.732   4.185  13.285  1.4231 -0.8205  0.2981
13014TIP3    H260534   0.805   4.262  13.176  2.7659 -2.1910  0.2015
13015TIP3   OH260535   0.743   0.598   2.417  0.4522  0.5053 -0.3072
13015TIP3    H160536   0.791   0.656   2.358  0.8691  0.8823  0.3915
13015TIP3    H260537   0.751   0.511   2.378  1.3054  0.6424 -0.4396
13016TIP3   OH260538   5.100   1.157  15.964  0.3981 -0.3298 -0.1749
13016TIP3    H160539   5.122   1.190  16.050 -1.0363  2.9454 -1.0226
13016TIP3    H260540   5.012   1.189  15.946  0.3642 -1.5876 -2.5664
13017TIP3   OH260541   6.430   0.762   1.239  0.0970  0.3311  0.0197
13017TIP3    H160542   6.398   0.672   1.242 -2.3874  1.1796  0.2576
13017TIP3    H260543   6.450   0.777   1.146  1.6229 -0.8180  0.1523
13018TIP3   OH260544   3.724   2.193   2.279 -0.1541  0.0684 -0.5811
13018TIP3    H160545   3.815   2.218   2.260 -0.3405  1.3948  0.1624
13018TIP3    H260546   3.687   2.271   2.321 -1.9626 -0.0786 -1.8778
13019TIP3   OH260547   6.790   3.224   5.156 -0.0483  0.4930 -0.1293
13019TIP3    H160548   6.706   3.207   5.200  0.0782 -0.6046 -0.2928
13019TIP3    H260549   6.820   3.137   5.129  1.1023  0.8928 -0.1469
13020TIP3   OH260550   6.128   0.029   4.302 -0.7960 -0.4042 -0.2766
13020TIP3    H160551   6.035   0.018   4.279 -0.8495 -0.8987  0.1775
13020TIP3    H260552   6.127   0.052   4.395 -0.5127  0.5478 -0.5002
13021TIP3   OH260553   5.730   1.549   1.123  0.3023 -0.0846 -0.2562
13021TIP3    H160554   5.716   1.640   1.148  1.3162 -0.3121  1.1771
13021TIP3    H260555   5.823   1.534   1.140 -0.3917 -2.1166  1.9107
13022TIP3   OH260556   3.955   4.026   4.529  0.2677 -0.4324  0.1478
13022TIP3    H160557   3.996   4.105   4.493 -0.4188  0.2031  0.7494
13022TIP3    H260558   3.861   4.045   4.529  0.2140 -0.6059  1.8048
13023TIP3   OH260559   0.283   0.233  14.338  0.0436  0.7709 -0.1636
13023TIP3    H160560   0.315   0.145  14.358  0.1769  0.7056 -0.6520
13023TIP3    H260561   0.221   0.253  14.409 -0.1068  0.2243 -0.1378
13024TIP3   OH260562   4.478   0.820   4.149 -0.5642 -0.2053  0.9940
13024TIP3    H160563   4.464   0.744   4.093 -1.5538  0.0007  0.9535
13024TIP3    H260564   4.572   0.834   4.146 -0.4872 -0.8087  0.1931
13025TIP3   OH260565   5.484   0.682  10.966  0.1592 -0.2345  0.2200
13025TIP3    H160566   5.575   0.710  10.958 -0.4684  1.4114 -1.3461
13025TIP3    H260567   5.438   0.758  11.002 -0.5983 -1.0870  1.1010
13026TIP3   OH260568   5.530   2.406  11.065  0.0365  0.0323 -0.8750
13026TIP3    H160569   5.588   2.447  11.129  0.1300  0.8540 -1.4762
13026TIP3    H260570   5.519   2.472  10.997 -0.4898 -0.6356 -1.4472
13027TIP3   OH260571   3.668   3.271  11.539 -0.2526  0.1895 -0.7455
13027TIP3    H160572   3.648   3.322  11.617  0.5822 -0.1665 -0.2992
13027TIP3    H260573   3.605   3.199  11.541 -1.4817  1.2305 -1.4170
13028TIP3   OH260574   2.583   3.082   3.694  0.1102 -0.3568 -0.1773
13028TIP3    H160575   2.542   3.112   3.775 -2.0021 -2.3430 -0.4466
13028TIP3    H260576   2.617   3.162   3.654 -1.3173  1.0452  1.3092
13029TIP3   OH260577   6.240   5.080  15.956 -0.3115  0.2696  0.0956
13029TIP3    H160578   6.148   5.059  15.972  0.5957 -1.8190  3.0418
13029TIP3    H260579   6.272   5.009  15.901  0.0410 -0.1251  0.8057
13030TIP3   OH260580   4.197   4.232  11.071  0.2047 -0.6266 -0.1299
13030TIP3    H160581   4.261   4.223  11.141 -1.1976  0.5080  1.3558
13030TIP3    H260582   4.203   4.324  11.046  0.2959 -0.8986 -1.1061
13031TIP3   OH260583   0.850   6.479  14.510  0.1692  0.1857  0.2210
13031TIP3    H160584   0.924   6.423  14.532 -0.0004 -0.4928 -0.9112
13031TIP3    H260585   0.792   6.424  14.457  0.9303  1.9544 -2.5625
13032TIP3   OH260586   2.386   0.898   3.724 -0.1907 -0.3273 -1.1361
13032TIP3    H160587   2.470   0.852   3.727 -0.6261 -1.1193 -0.6724
13032TIP3    H260588   2.380   0.945   3.807 -0.6432 -1.0843 -0.7322
13033TIP3   OH260589   2.638   5.482   3.678 -0.2774  0.3175  0.3493
13033TIP3    H160590   2.687   5.510   3.755  0.0075  0.2974  0.1776
13033TIP3    H260591   2.699   5.426   3.630  0.4565  2.3537 -1.1780
13034TIP3   OH260592   0.015   2.125   1.825 -0.1156  0.0831  0.4308
13034TIP3    H160593   0.053   2.038   1.837  1.5032  0.6252 -0.5916
13034TIP3    H260594   0.034   2.171   1.907 -0.6241 -0.3827  0.8160
13035TIP3   OH260595   0.556   3.296   6.087  0.4130  0.4272  0.6712
13035TIP3    H160596   0.572   3.205   6.109  1.3237  0.6360  0.9368
13035TIP3    H260597   0.475   3.319   6.133  0.6528 -0.0029  1.3073
13036TIP3   OH260598   3.722   4.695  11.337 -0.6954 -0.2223 -0.3657
13036TIP3    H160599   3.718   4.715  11.244  0.7376 -2.1342 -0.8578
13036TIP3    H260600   3.800   4.640  11.347 -1.7032 -1.3420  1.6954
13037TIP3   OH260601   4.925   1.367   2.235  0.0077  0.2553  0.0485
13037TIP3    H160602   4.955   1.348   2.146 -0.0059  1.2036 -0.1557
13037TIP3    H260603   4.913   1.280   2.274 -1.4300 -0.1877 -1.3407
13038TIP3   OH260604   2.608   0.380   3.231  0.2997 -0.0009  0.3098
13038TIP3    H160605   2.559   0.420   3.303  0.7597 -1.0343  1.2197
13038TIP3    H260606   2.674   0.326   3.275 -0.1081 -1.4941 -0.8736
13039TIP3   OH260607   1.021   6.538  12.260  0.3192  0.4013  0.6316
13039TIP3    H160608   1.035   6.482  12.183 -0.5195  0.2816  0.5607
13039TIP3    H260609   0.957   6.490  12.312  1.4030  0.1416  1.7612
13040TIP3   OH260610   6.781   3.858  14.015  0.5165  0.2055 -0.1357
13040TIP3    H160611   6.703   3.805  13.998  0.5044  0.0380  0.4507
13040TIP3    H260612   6.779   3.926  13.947 -1.1418  1.3082  0.9753
13041TIP3   OH260613   2.019   6.701  10.344 -0.1517  0.3878 -0.3129
13041TIP3    H160614   2.061   6.622  10.377 -1.9444 -0.0426  0.9813
13041TIP3    H260615   1.926   6.686  10.357 -0.5400  2.4951 -0.5407
13042TIP3   OH260616   2.819   6.248  11.655 -0.1499  0.1683 -0.2596
13042TIP3    H160617   2.826   6.155  11.633  4.0544  0.5399 -0.8235
13042TIP3    H260618   2.768   6.286  11.583 -0.4039 -1.3842 -0.9200
13043TIP3   OH260619   6.503   1.145   0.611 -0.3729 -0.0478  0.3406
13043TIP3    H160620   6.441   1.208   0.573 -0.7783 -0.2987  0.5804
13043TIP3    H260621   6.455   1.105   0.683 -0.0788 -0.5500  0.2598
13044TIP3   OH260622   5.377   2.771  16.474 -0.3937 -0.5020 -0.0372
13044TIP3    H160623   5.322   2.756  16.551 -2.1894  0.8157 -1.0307
13044TIP3    H260624   5.395   2.684  16.439 -0.9561 -0.9983  0.9152
13045TIP3   OH260625   2.886   2.239   2.777 -0.2137 -0.2091  0.2449
13045TIP3    H160626   2.863   2.215   2.688  0.6102 -0.1971  0.0313
13045TIP3    H260627   2.981   2.239   2.779 -0.1808  2.4728  0.3739
13046TIP3   OH260628   0.424   0.151  13.900  0.0307 -0.2936 -0.7923
13046TIP3    H160629   0.516   0.177  13.895 -0.0053  0.1582  0.6505
13046TIP3    H260630   0.426   0.056  13.891  0.7602 -0.4049  0.3370
13047TIP3   OH260631   2.033   5.884  12.760 -0.1868 -0.5032  0.3970
13047TIP3    H160632   2.017   5.976  12.779 -0.5683 -0.9870  2.5646
13047TIP3    H260633   1.986   5.837  12.828  1.1103 -2.2631  0.1177
13048TIP3   OH260634   5.023   1.945  11.641  1.0572 -0.1492  0.3858
13048TIP3    H160635   5.040   1.992  11.722  1.3898 -0.4991  0.5219
13048TIP3    H260636   5.099   1.965  11.585  1.1616 -0.4521  0.4146
13049TIP3   OH260637   2.812   3.038   3.887 -0.0274 -0.2161  0.2092
13049TIP3    H160638   2.779   2.975   3.823 -2.3388  0.8620  0.2834
13049TIP3    H260639   2.841   3.112   3.834  0.9853 -0.6023  0.2260
13050TIP3   OH260640   6.150   4.476  11.348  0.1538 -0.0726  0.1089
13050TIP3    H160641   6.074   4.486  11.290 -1.5603  2.0179  2.5724
13050TIP3    H260642   6.119   4.417  11.417  1.4815 -0.8714  0.0404
13051TIP3   OH260643   5.331   4.851   4.664  0.1383 -0.4766 -0.1829
13051TIP3    H160644   5.348   4.860   4.758  1.1699  0.7536 -0.4786
13051TIP3    H260645   5.416   4.829   4.626  0.1914  1.2197 -1.0984
13052TIP3   OH260646   3.596   4.373   3.617  0.3508  0.0224  0.6759
13052TIP3    H160647   3.547   4.379   3.698  0.9699  1.9812  0.9316
13052TIP3    H260648   3.546   4.425   3.554  0.0818 -1.1543 -0.1054
13053TIP3   OH260649   6.443   5.343   3.070 -0.3044 -0.3437  0.4295
13053TIP3    H160650   6.371   5.394   3.032  1.2997  1.1375 -0.7183
13053TIP3    H260651   6.400   5.282   3.130 -2.5900 -0.1233 -0.9073
13054TIP3   OH260652   0.342   6.219  14.854  0.9403 -0.1717  0.0762
13054TIP3    H160653   0.430   6.198  14.825 -0.1347 -1.2077 -2.5411
13054TIP3    H260654   0.298   6.254  14.777 -1.4504 -1.2449  0.8835
13055TIP3   OH260655   4.263   0.672   1.422 -0.5036  0.1941 -0.1246
13055TIP3    H160656   4.168   0.667   1.439 -0.3833  0.0752  0.5338
13055TIP3    H260657   4.292   0.581   1.424 -0.1108  0.3279  1.2787
13056TIP3   OH260658   3.451   1.464   3.890 -0.4867  0.2101  0.2855
13056TIP3    H160659   3.458   1.506   3.976 -0.5691 -0.4408  0.6072
13056TIP3    H260660   3.488   1.377   3.902 -0.3833  0.1594 -0.3710
13057TIP3   OH260661   5.864   6.669  12.566  0.3782  0.1348 -0.3564
13057TIP3    H160662   5.942   6.717  12.591 -0.2879  1.5371 -0.8872
13057TIP3    H260663   5.863   6.675  12.470  1.3483 -2.6576 -0.5725
13058TIP3   OH260664   6.587   0.342   2.877  0.0969  0.0291 -0.7562
13058TIP3    H160665   6.548   0.255   2.892  0.4288  0.2335  1.5300
13058TIP3    H260666   6.517   0.393   2.837 -0.5853 -0.8800 -0.7395
13059TIP3   OH260667   4.323   3.717  12.149  0.7982  0.2495  0.4248
13059TIP3    H160668   4.418   3.718  12.143  0.7686 -1.3231 -0.7182
13059TIP3    H260669   4.294   3.762  12.069  0.5790  0.4272  0.6036
13060TIP3   OH260670   3.646   0.474   2.874 -0.0600 -0.0091 -0.2261
13060TIP3    H160671   3.674   0.470   2.965  1.5686  0.8398 -0.6694
13060TIP3    H260672   3.635   0.383   2.848 -1.2048 -0.2396  1.0018
13061TIP3   OH260673   3.818   3.355  16.149  0.3707  0.0212 -0.1880
13061TIP3    H160674   3.819   3.420  16.219  0.8721  0.6503 -0.7848
13061TIP3    H260675   3.787   3.275  16.192 -2.4499  1.1913  0.0645
13062TIP3   OH260676   1.893   6.703  13.062  0.0637  0.4756 -0.0550
13062TIP3    H160677   1.913   6.739  12.975 -0.8291 -1.5027 -1.1064
13062TIP3    H260678   1.896   6.779  13.120  0.8769  1.8000 -1.7757
13063TIP3   OH260679   2.989   0.293  14.962  0.0936  0.2696 -0.1580
13063TIP3    H160680   3.039   0.341  14.896  0.8088 -0.2919 -0.0247
13063TIP3    H260681   3.020   0.326  15.046 -1.6245  1.8054 -0.0995
13064TIP3   OH260682   5.250   3.423   1.083  0.2226 -0.0387  0.1008
13064TIP3    H160683   5.193   3.362   1.132 -1.3641  1.0157 -0.3903
13064TIP3    H260684   5.225   3.411   0.992 -0.1911  1.4314  0.0112
13065TIP3   OH260685   0.137   4.108   4.103  0.4441  0.3258  0.0916
13065TIP3    H160686   0.050   4.072   4.086  1.5393 -1.0778 -2.8994
13065TIP3    H260687   0.120   4.192   4.145 -2.2764 -1.0860  2.0043
13066TIP3   OH260688   4.909   2.948   1.710 -0.8357 -0.1331  0.1741
13066TIP3    H160689   4.936   3.040   1.712 -0.5639 -0.2052 -0.0625
13066TIP3    H260690   4.928   2.920   1.620 -0.6023 -0.5124  0.3426
13067TIP3   OH260691   2.393   3.214   0.904  0.5709  0.3184  0.5919
13067TIP3    H160692   2.383   3.222   0.999  0.3564 -0.9590  0.6768
13067TIP3    H260693   2.333   3.280   0.868 -1.6530 -1.2713  1.2816
13068TIP3   OH260694   0.757   2.568  17.171 -0.2807  0.1119  0.4003
13068TIP3    H160695   0.746   2.660  17.197 -0.3624 -0.1542  1.3261
13068TIP3    H260696   0.669   2.539  17.146 -0.5969 -0.2459  1.8990
13069TIP3   OH260697   4.807   0.321  14.639 -0.0393  0.1229  0.2690
13069TIP3    H160698   4.774   0.273  14.715  0.0600 -1.8369 -0.8895
13069TIP3    H260699   4.737   0.383  14.618  0.4398  1.5324  2.6582
13070TIP3   OH260700   3.352   4.624  12.117  0.4315  0.4339  0.1797
13070TIP3    H160701   3.402   4.585  12.045 -0.3468 -0.0867 -0.0828
13070TIP3    H260702   3.407   4.611  12.194 -0.3123 -2.2393  0.2926
13071TIP3   OH260703   1.173   4.626   0.180 -0.6821  0.0949 -0.5199
13071TIP3    H160704   1.135   4.602   0.095 -1.4378  1.6044 -0.6298
13071TIP3    H260705   1.113   4.589   0.245 -0.9559  0.2599 -0.6750
13072TIP3   OH260706   4.086   0.949  16.622  0.1276  0.7397  0.2662
13072TIP3    H160707   4.171   0.966  16.582  0.5656 -0.8174  0.4851
13072TIP3    H260708   4.063   1.030  16.667  0.6999  1.7318 -1.2044
13073TIP3   OH260709   1.499   5.733   4.499 -0.4868 -0.7159 -0.2809
13073TIP3    H160710   1.430   5.786   4.539  0.2115 -0.4465  0.5795
13073TIP3    H260711   1.477   5.731   4.406 -1.5033 -0.4070 -0.0486
13074TIP3   OH260712   1.682   3.052   0.246  0.2771 -0.2827  0.0433
13074TIP3    H160713   1.590   3.062   0.272  0.0608 -0.1784 -0.7439
13074TIP3    H260714   1.681   2.975   0.189  0.3363  0.9156 -1.6043
13075TIP3   OH260715   6.815   0.256   1.578  0.3284  0.1737 -0.3146
13075TIP3    H160716   6.858   0.170   1.582 -1.4148 -0.6831  0.1653
13075TIP3    H260717   6.866   0.310   1.638  0.5079 -0.9386  0.5617
13076TIP3   OH260718   4.425   4.635   3.106  0.1446 -0.1994 -0.3676
13076TIP3    H160719   4.437   4.728   3.124  0.1383 -0.1442 -0.6449
13076TIP3    H260720   4.334   4.628   3.077 -0.7538 -0.7089  2.3785
13077TIP3   OH260721   1.500   0.871  13.079  0.0746 -0.5424 -0.1176
13077TIP3    H160722   1.525   0.798  13.136 -0.1131 -0.1363  0.4839
13077TIP3    H260723   1.526   0.950  13.128  1.1302 -0.2172 -1.1629
13078TIP3   OH260724   1.109   3.195   1.754 -0.6604 -0.3441  0.0263
13078TIP3    H160725   1.080   3.104   1.749 -0.2815 -0.4390 -0.5240
13078TIP3    H260726   1.179   3.194   1.819 -1.3485 -0.2609  0.7654
13079TIP3   OH260727   5.495   2.400  14.344  0.0906 -0.2475 -0.2249
13079TIP3    H160728   5.585   2.370  14.339  0.3881  0.1662  2.0819
13079TIP3    H260729   5.447   2.342  14.283  1.7304 -1.0685 -0.7635
13080TIP3   OH260730   2.786   4.815  15.651 -0.1087 -0.0415 -0.1281
13080TIP3    H160731   2.788   4.795  15.557  2.5590 -1.2323  0.1072
13080TIP3    H260732   2.810   4.907  15.657 -1.2012  0.2797 -0.6611
13081TIP3   OH260733   0.341   3.121   1.177 -0.0125  0.8636 -0.4212
13081TIP3    H160734   0.317   3.202   1.220  1.0348  1.9468 -1.8315
13081TIP3    H260735   0.260   3.089   1.138 -0.3357  1.4886 -0.2619
13082TIP3   OH260736   4.436   3.460  16.167 -0.3788  0.0893  0.0769
13082TIP3    H160737   4.351   3.449  16.209 -0.4282  1.2668  0.3140
13082TIP3    H260738   4.477   3.532  16.216  0.7766 -0.5062  0.0035
13083TIP3   OH260739   5.359   6.196  13.342  0.1774  0.2323 -0.2674
13083TIP3    H160740   5.340   6.120  13.287 -0.8540 -0.1718  0.6308
13083TIP3    H260741   5.446   6.179  13.378  0.3024 -0.1138 -0.7315
13084TIP3   OH260742   4.319   1.793  14.114 -0.0902 -0.4882  0.5297
13084TIP3    H160743   4.273   1.849  14.178 -0.5290 -0.2579  0.0195
13084TIP3    H260744   4.249   1.757  14.060  0.4068  0.6813 -0.9175
13085TIP3   OH260745   2.125   1.532  17.150 -0.4386  0.1796  0.3012
13085TIP3    H160746   2.030   1.531  17.154 -0.3538 -0.1258  3.0481
13085TIP3    H260747   2.149   1.444  17.120 -1.0084  0.1365 -0.0289
13086TIP3   OH260748   1.335   1.993  16.500  0.2528  0.1787  0.2559
13086TIP3    H160749   1.411   1.945  16.531 -0.4188 -0.8053  0.4141
13086TIP3    H260750   1.262   1.933  16.513 -0.8812  1.9075  2.1464
13087TIP3   OH260751   0.519   2.306  16.604  0.1334  0.1976 -0.4752
13087TIP3    H160752   0.458   2.362  16.556  0.3424  0.1167 -0.8410
13087TIP3    H260753   0.485   2.217  16.591  0.3655  0.1453 -0.7392
13088TIP3   OH260754   2.234   1.121  13.245 -0.5426  0.4477 -0.0257
13088TIP3    H160755   2.260   1.198  13.294  2.0126  0.3324 -1.0918
13088TIP3    H260756   2.262   1.139  13.155  2.4107 -2.7058  0.1692
13089TIP3   OH260757   4.126   4.247  14.805 -0.5892  0.0770  0.7993
13089TIP3    H160758   4.199   4.287  14.758 -0.0609  0.0148  1.5527
13089TIP3    H260759   4.102   4.172  14.752  1.9327 -1.7316  2.0698
13090TIP3   OH260760   0.249   5.137  13.842 -0.0776  0.8605  0.3550
13090TIP3    H160761   0.324   5.175  13.888  1.1691  1.0878 -1.7867
13090TIP3    H260762   0.214   5.209  13.790  0.6412 -0.2184 -1.6589
13091TIP3   OH260763   0.233   3.381  14.299 -0.0461  0.0072 -0.4990
13091TIP3    H160764   0.319   3.422  14.287  0.0480 -0.4517 -1.4785
13091TIP3    H260765   0.251   3.287  14.297 -0.5873 -0.0918 -0.8470
13092TIP3   OH260766   4.220   2.151   1.380  0.4115  0.1006  0.3843
13092TIP3    H160767   4.197   2.080   1.440 -0.7102  0.0997 -0.0367
13092TIP3    H260768   4.288   2.114   1.323  0.2633 -0.4435  0.5604
13093TIP3   OH260769   5.761   1.292  16.206 -0.3313  0.0115  0.2045
13093TIP3    H160770   5.745   1.369  16.152  1.9324  0.8368  0.6503
13093TIP3    H260771   5.819   1.237  16.154  1.8879  0.8218  1.7211
13094TIP3   OH260772   4.055   4.567   2.732 -0.0226 -0.0906 -0.2041
13094TIP3    H160773   3.961   4.580   2.717  0.0966  0.6213 -0.3681
13094TIP3    H260774   4.092   4.655   2.726  0.6120 -0.3312  0.1753
13095TIP3   OH260775   2.802   5.867  12.130  0.0300 -0.6274  0.0051
13095TIP3    H160776   2.765   5.948  12.164  1.3503 -0.2865  0.6674
13095TIP3    H260777   2.823   5.887  12.039  1.8880  0.3284  0.6105
13096TIP3   OH260778   5.499   1.294  12.731 -0.1609  0.5175 -0.1052
13096TIP3    H160779   5.574   1.346  12.762 -1.7014  3.4352 -1.0887
13096TIP3    H260780   5.512   1.288  12.636  1.9456 -4.1928  0.3285
13097TIP3   OH260781   4.723   4.038   1.925  0.4495  0.6601 -0.2623
13097TIP3    H160782   4.778   3.974   1.880 -0.5797 -1.3574  1.2339
13097TIP3    H260783   4.763   4.122   1.906  0.9339 -0.2608 -3.6375
13098TIP3   OH260784   6.783   2.547   2.229 -0.7565 -0.6311  0.3231
13098TIP3    H160785   6.762   2.626   2.278  0.1045 -1.1080  1.4900
13098TIP3    H260786   6.711   2.538   2.167 -0.0569  1.9009 -0.8891
13099TIP3   OH260787   2.222   3.332   1.427  0.2796 -0.0007  0.3260
13099TIP3    H160788   2.277   3.312   1.502  1.3922 -2.4971 -1.0754
13099TIP3    H260789   2.136   3.297   1.450  0.5179 -0.4182  0.5885
13100TIP3   OH260790   3.121   4.769  15.464 -0.5030 -0.3081 -0.1814
13100TIP3    H160791   3.060   4.837  15.435  0.0060 -0.2558 -1.1189
13100TIP3    H260792   3.175   4.750  15.388  0.7896 -0.2179  0.6979
13101TIP3   OH260793   4.050   0.558  12.460  0.1281 -0.1053  0.0871
13101TIP3    H160794   4.029   0.505  12.538  0.7749 -1.6195 -0.7441
13101TIP3    H260795   4.035   0.498  12.387  1.1376  0.8019 -0.8615
13102TIP3   OH260796   3.607   0.086  16.207  0.3995  1.0274  0.1484
13102TIP3    H160797   3.636   0.006  16.251 -0.0204  1.3076  0.9468
13102TIP3    H260798   3.521   0.104  16.245 -1.2510 -0.2668 -2.8109
13103TIP3   OH260799   2.492   1.373  12.132  0.0666 -0.1768 -0.3180
13103TIP3    H160800   2.532   1.431  12.197 -1.6106 -0.5719  1.0886
13103TIP3    H260801   2.401   1.403  12.125 -0.3345 -1.4932 -0.9110
13104TIP3   OH260802   5.124   0.727  15.195  0.2011  0.1346  0.4533
13104TIP3    H160803   5.073   0.799  15.157 -0.1029 -1.1854 -1.7410
13104TIP3    H260804   5.125   0.745  15.289 -0.9370  2.3228  0.0788
13105TIP3   OH260805   1.918   4.586  14.370  0.2095 -0.1660 -0.3230
13105TIP3    H160806   1.979   4.522  14.335  0.3466  0.8882 -2.0645
13105TIP3    H260807   1.955   4.671  14.346 -1.0006  0.5276  0.1862
13106TIP3   OH260808   6.049   6.138  12.548  0.0414  0.2491 -0.7037
13106TIP3    H160809   5.956   6.161  12.542 -0.1584 -0.3236  0.1095
13106TIP3    H260810   6.051   6.043  12.538  0.5927  0.3073 -1.2076
13107TIP3   OH260811   3.229   6.053   0.019 -0.3173  0.3398 -0.3593
13107TIP3    H160812   3.323   6.036   0.020 -0.3035  0.4104  0.4336
13107TIP3    H260813   3.199   6.024  -0.067  0.1987 -0.9582 -0.1084
13108TIP3   OH260814   5.203   2.729  14.685  0.0947  0.3427 -0.4837
13108TIP3    H160815   5.120   2.766  14.658  0.4580  1.8262  0.3611
13108TIP3    H260816   5.184   2.682  14.766 -0.2075 -0.6749 -1.1295
13109TIP3   OH260817   3.114   4.761  11.103 -0.2674 -0.3630 -0.3818
13109TIP3    H160818   3.082   4.733  11.018  1.2211 -1.7346 -0.5150
13109TIP3    H260819   3.060   4.713  11.166 -0.8312  0.0391 -0.5581
13110TIP3   OH260820   4.227   1.472  14.358 -0.2842 -0.0993  0.2338
13110TIP3    H160821   4.160   1.460  14.425 -3.2513 -0.7146 -2.7066
13110TIP3    H260822   4.223   1.565  14.336  0.9180  0.1703  1.0955
13111TIP3   OH260823   2.146   5.991  11.650 -0.5884 -0.2543 -0.1298
13111TIP3    H160824   2.210   6.022  11.715  0.4657 -0.9637 -0.8215
13111TIP3    H260825   2.177   6.027  11.567 -1.0884 -0.6164 -0.4740
13112TIP3   OH260826   6.216   2.845   3.394 -0.0793 -0.3694  0.0356
13112TIP3    H160827   6.164   2.909   3.443  0.0473 -0.9355  0.9178
13112TIP3    H260828   6.258   2.896   3.325 -1.4790  0.1751 -0.4429
13113TIP3   OH260829   4.882   0.179   4.727 -0.5095 -0.4889 -0.1358
13113TIP3    H160830   4.925   0.185   4.642  1.8585 -1.1145  0.9860
13113TIP3    H260831   4.885   0.268   4.762  0.5442 -0.6903  0.2730
13114TIP3   OH260832   3.425   3.806  12.036  0.3605  0.6931 -0.5456
13114TIP3    H160833   3.492   3.796  11.968  1.3810 -1.1336  0.6849
13114TIP3    H260834   3.411   3.718  12.069 -0.8781  1.4097  0.9019
13115TIP3   OH260835   4.276   4.970  12.799 -0.4936 -0.1162 -0.3326
13115TIP3    H160836   4.307   4.928  12.879 -0.4545  0.7731  0.1320
13115TIP3    H260837   4.351   5.021  12.768 -0.9469  0.7034 -0.1220
13116TIP3   OH260838   4.654   0.672   0.895  0.5024 -0.1996 -0.2577
13116TIP3    H160839   4.637   0.585   0.932 -1.3012  0.4681  0.5428
13116TIP3    H260840   4.597   0.677   0.818  1.5179 -0.1953 -1.0051
13117TIP3   OH260841   2.026   2.358  16.346  0.1501  0.1440 -0.0519
13117TIP3    H160842   2.050   2.287  16.405  1.8053 -2.8308 -4.0442
13117TIP3    H260843   1.943   2.331  16.307  0.9992  0.0938 -1.9122
13118TIP3   OH260844   1.123   0.043  16.350 -0.1020  0.1251 -0.0546
13118TIP3    H160845   1.180  -0.020  16.395  0.9831  0.2260 -1.2576
13118TIP3    H260846   1.052   0.060  16.412  0.5116 -0.9716  0.9616
13119TIP3   OH260847   0.526   5.529   5.138 -0.2253  0.2273  0.3270
13119TIP3    H160848   0.498   5.536   5.229 -1.5290  1.1253 -0.1249
13119TIP3    H260849   0.456   5.480   5.095 -0.3777  1.1600 -0.5037
13120TIP3   OH260850   4.475   3.009   0.280 -0.5221 -0.0230 -0.1564
13120TIP3    H160851   4.380   3.009   0.270 -0.6310  0.5707  0.7501
13120TIP3    H260852   4.499   2.917   0.286 -1.0421 -0.1722 -0.3853
13121TIP3   OH260853   5.330   3.877   0.828  0.0361  0.7026  0.2639
13121TIP3    H160854   5.422   3.863   0.852 -0.0462 -0.5676 -0.1340
13121TIP3    H260855   5.296   3.936   0.896  0.8626  0.3374  0.9968
13122TIP3   OH260856   0.694   3.134  12.607 -0.2485  0.2758  0.4699
13122TIP3    H160857   0.708   3.203  12.672  0.0012  2.2540 -1.6171
13122TIP3    H260858   0.634   3.073  12.650 -1.5265  2.4652  1.8917
13123TIP3   OH260859   1.987   0.515  11.030  0.5135 -0.0781 -0.1982
13123TIP3    H160860   2.030   0.571  10.965  0.2894  0.4614  0.1201
13123TIP3    H260861   1.893   0.527  11.014  0.4673 -0.8267 -0.5251
13124TIP3   OH260862   1.899   0.880   6.518  0.0718 -0.1023  0.3147
13124TIP3    H160863   1.927   0.793   6.545  0.3581 -0.3446 -0.7450
13124TIP3    H260864   1.850   0.914   6.594  0.3500 -0.9935  0.9023
13125TIP3   OH260865   5.900   4.032   3.693  0.2281  0.6088  1.1342
13125TIP3    H160866   5.903   4.112   3.641 -1.4958 -0.8310 -1.2895
13125TIP3    H260867   5.976   3.981   3.664 -1.3212 -0.6508 -0.8034
13126TIP3   OH260868   1.035   1.259  16.139  0.2547 -0.5397  0.0599
13126TIP3    H160869   1.037   1.265  16.043 -0.2344 -1.8937 -0.0487
13126TIP3    H260870   1.056   1.168  16.157  0.4955 -0.2452  1.2591
13127TIP3   OH260871   4.326   5.749  13.815  0.4288 -0.1561 -0.0740
13127TIP3    H160872   4.232   5.762  13.826  0.5460 -0.3590  1.2393
13127TIP3    H260873   4.336   5.656  13.797  0.6011 -0.6398  2.4718
13128TIP3   OH260874   4.099   1.925  16.044 -0.2000  0.0379 -0.2189
13128TIP3    H160875   4.014   1.971  16.042 -0.7631 -0.9634  0.4535
13128TIP3    H260876   4.135   1.946  16.130  0.4581  0.8513 -0.6896
13129TIP3   OH260877   6.465   1.739   3.259 -0.4418  0.5419 -0.2270
13129TIP3    H160878   6.523   1.727   3.184 -0.9835  1.5682 -0.8230
13129TIP3    H260879   6.469   1.656   3.307 -0.5210 -0.3063 -1.6747
13130TIP3   OH260880   5.589   3.828  13.054 -0.8432 -0.5700 -0.8160
13130TIP3    H160881   5.526   3.892  13.020 -0.2704  0.6731  0.4043
13130TIP3    H260882   5.563   3.817  13.146  0.3548 -0.4880 -0.4629
13131TIP3   OH260883   3.841   4.910   6.280 -0.3817  0.2873  0.0581
13131TIP3    H160884   3.764   4.965   6.268  0.8143  1.7227 -1.2351
13131TIP3    H260885   3.915   4.966   6.256  0.9367 -1.6172 -0.4943
13132TIP3   OH260886   6.001   2.473   4.309 -0.4881 -0.1955  0.0143
13132TIP3    H160887   6.058   2.503   4.380 -0.5967  0.5027 -0.1918
13132TIP3    H260888   6.007   2.542   4.243  0.1576 -1.1627 -0.9595
13133TIP3   OH260889   0.822   6.608  11.442  0.3231  0.0884 -0.0887
13133TIP3    H160890   0.911   6.585  11.416  0.5428 -0.7513  1.3333
13133TIP3    H260891   0.803   6.549  11.515 -0.0475  2.6937  2.0082
13134TIP3   OH260892   3.173   2.326   4.078  0.0590 -0.7285 -0.1782
13134TIP3    H160893   3.128   2.348   4.159 -1.3946  0.0103 -1.1694
13134TIP3    H260894   3.114   2.267   4.032  0.3249 -0.1841 -1.2449
13135TIP3   OH260895   6.321   4.619   3.234  0.5262 -0.1808 -0.7653
13135TIP3    H160896   6.310   4.560   3.309  0.7285 -0.2374 -0.7796
13135TIP3    H260897   6.345   4.561   3.162 -0.4956 -0.2268 -1.0788
13136TIP3   OH260898   1.327   1.861   2.126  0.2307  0.7433  0.1432
13136TIP3    H160899   1.419   1.858   2.098  1.2300  3.2268  2.9065
13136TIP3    H260900   1.298   1.949   2.102  0.1779  1.8077  3.8373
13137TIP3   OH260901   2.074   0.145  16.378 -0.2195  0.3383  0.4426
13137TIP3    H160902   1.998   0.108  16.334  0.4304 -1.1180  0.5084
13137TIP3    H260903   2.143   0.146  16.311  0.0955  0.3435  0.7652
13138TIP3   OH260904   4.242   1.087  16.903  0.2953 -0.4483 -0.1101
13138TIP3    H160905   4.286   1.171  16.887  0.4548 -0.4328  0.3942
13138TIP3    H260906   4.151   1.103  16.878  0.2849 -0.0668  0.1589
13139TIP3   OH260907   4.908   3.080   4.429  0.4225 -0.0312 -0.6520
13139TIP3    H160908   4.815   3.067   4.412  0.5472  0.7762 -2.0408
13139TIP3    H260909   4.949   3.068   4.343  1.4807  0.5981 -0.2380
13140TIP3   OH260910   2.396   2.780  16.122  0.7340 -0.2338 -0.1878
13140TIP3    H160911   2.365   2.847  16.061 -1.0491 -1.8102 -1.0318
13140TIP3    H260912   2.461   2.731  16.072  0.7012 -0.2940 -0.1697
13141TIP3   OH260913   4.532   3.677   6.003 -0.3345  0.5663 -0.2194
13141TIP3    H160914   4.535   3.758   5.952 -0.2358 -0.5880 -2.1170
13141TIP3    H260915   4.605   3.685   6.064 -0.5019  2.0244 -0.1774
13142TIP3   OH260916   3.855   0.201  16.331  0.4036  0.3039 -0.0181
13142TIP3    H160917   3.825   0.277  16.381 -0.5011 -0.8468  1.1979
13142TIP3    H260918   3.775   0.168  16.289  0.5457 -0.8123  0.5891
13143TIP3   OH260919   0.184   3.385   2.275 -0.1997  0.5822  0.5766
13143TIP3    H160920   0.244   3.313   2.297  0.5799  0.8101 -0.7305
13143TIP3    H260921   0.239   3.449   2.230 -1.3798  0.8802 -0.4777
13144TIP3   OH260922   3.422   2.730   2.654  0.6678  0.5001 -0.1314
13144TIP3    H160923   3.370   2.808   2.670 -0.6934 -0.1421 -1.2957
13144TIP3    H260924   3.363   2.657   2.672  1.9593 -0.2813  1.0771
13145TIP3   OH260925   6.446   3.348  17.034  0.0246  0.1736  0.0768
13145TIP3    H160926   6.436   3.305  16.949 -1.3713 -0.0583  0.3379
13145TIP3    H260927   6.510   3.417  17.019  0.5649 -0.5250 -0.9132
13146TIP3   OH260928   5.768   1.764  11.224 -0.1868  0.2557 -0.3386
13146TIP3    H160929   5.807   1.697  11.169  1.1964  0.7429  0.0470
13146TIP3    H260930   5.748   1.720  11.306  2.2114  0.6895  0.4989
13147TIP3   OH260931   4.170   0.901   2.099 -0.4977  0.1543 -0.3472
13147TIP3    H160932   4.152   0.893   2.192  0.2190  1.1199 -0.1161
13147TIP3    H260933   4.085   0.916   2.059 -0.7100  0.5773  0.2567
13148TIP3   OH260934   5.012   2.055  12.331 -0.0456  0.6089 -0.2892
13148TIP3    H160935   5.106   2.036  12.330 -0.2440 -0.5737  1.5454
13148TIP3    H260936   5.004   2.136  12.381 -0.1188 -0.1201  0.9059
13149TIP3   OH260937   3.536   2.543   5.949 -0.3530 -0.6268  0.0064
13149TIP3    H160938   3.599   2.608   5.918 -0.5228 -0.4691 -0.0055
13149TIP3    H260939   3.465   2.594   5.988  0.7201 -0.8679  2.3524
13150TIP3   OH260940   2.734   5.722  14.350 -0.6706 -0.1435 -0.2027
13150TIP3    H160941   2.758   5.638  14.312  1.9476 -0.0892  1.1560
13150TIP3    H260942   2.693   5.701  14.434  1.5983 -0.0819  0.9690
13151TIP3   OH260943   2.617   5.464  13.189  0.0746 -0.3677 -0.1229
13151TIP3    H160944   2.690   5.422  13.235 -0.0751 -1.5843 -0.9513
13151TIP3    H260945   2.541   5.410  13.211 -0.5384  0.7590  0.5554
13152TIP3   OH260946   6.564   5.623   3.971  0.2771 -0.2180 -0.7566
13152TIP3    H160947   6.589   5.577   4.051  1.2999  2.2698  0.3647
13152TIP3    H260948   6.527   5.554   3.915  0.0337 -2.0713  1.6222
13153TIP3   OH260949   1.681   0.292  15.485  0.1131 -0.9054  0.0039
13153TIP3    H160950   1.630   0.372  15.470 -0.1726 -1.0068  0.4394
13153TIP3    H260951   1.616   0.223  15.494  0.4310 -1.9196 -4.3666
13154TIP3   OH260952   0.970   5.095  11.031  0.2401  0.4262  0.4804
13154TIP3    H160953   0.952   5.048  10.949 -0.2126  1.9445 -0.3106
13154TIP3    H260954   1.028   5.036  11.080  1.2476 -0.1202 -1.3127
13155TIP3   OH260955   4.100   1.783  13.953  0.6617  0.4000 -0.1114
13155TIP3    H160956   4.009   1.805  13.933  0.0765 -0.4884  1.4761
13155TIP3    H260957   4.150   1.859  13.923 -0.4316  0.3260 -2.2549
13156TIP3   OH260958   2.174   2.929  13.976 -0.0374 -0.2337  0.1807
13156TIP3    H160959   2.243   2.978  14.023 -1.0655  1.0856  0.3405
13156TIP3    H260960   2.110   2.995  13.952 -1.8240 -1.6152  1.0172
13157TIP3   OH260961   1.640   2.398   1.165  0.4245 -0.8224 -0.2597
13157TIP3    H160962   1.550   2.430   1.176  0.7050  0.0540 -0.4856
13157TIP3    H260963   1.630   2.303   1.152 -0.3877 -0.8791  0.7136
13158TIP3   OH260964   6.624   1.120  11.598  0.1723 -0.2323 -0.0687
13158TIP3    H160965   6.604   1.066  11.521  0.9543 -0.2780 -0.2438
13158TIP3    H260966   6.654   1.057  11.664  1.0850 -0.0178 -0.2739
13159TIP3   OH260967   2.059   3.157   4.735 -1.0635  0.6224 -0.0483
13159TIP3    H160968   2.061   3.118   4.647  2.7104 -1.6485  0.9312
13159TIP3    H260969   2.129   3.221   4.734  0.4810 -0.9734  1.9258
13160TIP3   OH260970   5.695   0.200  12.980 -0.4900 -0.2866 -0.5221
13160TIP3    H160971   5.677   0.111  13.012  0.1779 -0.4318 -0.5507
13160TIP3    H260972   5.736   0.188  12.895  1.3613 -0.0183  0.3055
13161TIP3   OH260973   0.367   0.631  16.515 -0.1849 -0.2743 -0.5529
13161TIP3    H160974   0.312   0.628  16.436 -1.7606 -0.4040  0.5374
13161TIP3    H260975   0.323   0.692  16.573 -1.1701 -3.1314  1.8016
13162TIP3   OH260976   4.648   3.966   1.491 -0.6276 -0.1753 -0.1013
13162TIP3    H160977   4.715   3.987   1.426 -0.7021  2.1210  0.5131
13162TIP3    H260978   4.602   3.890   1.454  1.4683 -0.9749 -1.1300
13163TIP3   OH260979   5.575   3.269   3.153  0.2932 -0.1897  0.3848
13163TIP3    H160980   5.644   3.331   3.129  0.3764 -0.8704 -1.1821
13163TIP3    H260981   5.494   3.319   3.147  0.5260  0.2478  0.8918
13164TIP3   OH260982   3.002   3.445   5.204  0.4770  0.2170  0.6531
13164TIP3    H160983   3.027   3.441   5.112  2.5557  2.2247  1.0937
13164TIP3    H260984   2.906   3.455   5.202  0.3753 -0.9942 -1.2342
13165TIP3   OH260985   5.695   2.005  11.415  0.1899  0.6623  0.5859
13165TIP3    H160986   5.726   1.939  11.353 -0.7089  1.6098 -0.8976
13165TIP3    H260987   5.747   2.083  11.395 -1.6657  1.6441 -0.5259
13166TIP3   OH260988   6.279   5.440  13.917  0.3363 -0.3484  0.1512
13166TIP3    H160989   6.264   5.434  13.822 -1.9760 -0.2807  0.4706
13166TIP3    H260990   6.325   5.522  13.929  1.2644 -0.6891 -0.9820
13167TIP3   OH260991   3.339   2.933  11.404 -0.1108  0.0454 -0.6487
13167TIP3    H160992   3.422   2.935  11.357  0.8492 -0.9130  0.9667
13167TIP3    H260993   3.301   2.849  11.382 -0.0487 -0.0536 -0.3827
13168TIP3   OH260994   6.371   6.026  11.406 -0.3614  0.1478  0.1795
13168TIP3    H160995   6.462   6.050  11.389 -0.2437 -0.3290  0.1277
13168TIP3    H260996   6.322   6.108  11.396  0.0064  0.3243 -0.1928
13169TIP3   OH260997   5.556   2.471   5.501 -0.8264  0.6257  0.0541
13169TIP3    H160998   5.589   2.473   5.411 -0.7754  0.2867  0.0662
13169TIP3    H260999   5.631   2.442   5.553 -0.8971  0.6842  0.1886
13170TIP3   OH261000   5.492   3.099  12.956 -0.2875 -0.0190 -0.3654
13170TIP3    H161001   5.447   3.015  12.946 -0.0407 -0.1123 -0.7048
13170TIP3    H261002   5.498   3.134  12.867  0.4603 -0.0893 -0.3504
13171TIP3   OH261003   3.830   5.240  14.542 -0.8525  0.5251  0.5170
13171TIP3    H161004   3.824   5.232  14.638  1.5718  1.6766  0.8157
13171TIP3    H261005   3.924   5.238  14.525 -1.2803  0.1634 -1.8911
13172TIP3   OH261006   2.380   3.807  14.544  0.5891 -0.2905  0.3373
13172TIP3    H161007   2.374   3.769  14.632  0.1368 -0.1753  0.3579
13172TIP3    H261008   2.460   3.769  14.507  0.9032 -0.1681  0.8792
13173TIP3   OH261009   3.921   0.749   0.289  0.7209  0.2127  0.2485
13173TIP3    H161010   3.963   0.671   0.327 -0.6817 -0.6899  0.0073
13173TIP3    H261011   3.859   0.777   0.356  0.9126  0.8650  0.1512
13174TIP3   OH261012   6.562   0.665  13.757 -0.4750 -0.2945  0.4198
13174TIP3    H161013   6.490   0.708  13.802  0.3035 -0.7986  2.2193
13174TIP3    H261014   6.562   0.575  13.791  2.5551  0.3833  2.4664
13175TIP3   OH261015   5.192   0.044  14.572  0.0495  0.3247 -0.1928
13175TIP3    H161016   5.264   0.026  14.511 -1.0555 -0.6012 -1.2496
13175TIP3    H261017   5.212  -0.010  14.649  1.9075  2.1550  0.6623
13176TIP3   OH261018   2.444   1.372   2.238  0.3645 -0.2930  0.0018
13176TIP3    H161019   2.468   1.289   2.197 -0.7688 -0.2713 -0.7479
13176TIP3    H261020   2.521   1.428   2.226  0.6173 -0.7909 -0.7347
13177TIP3   OH261021   0.528   3.194  13.475  0.3007 -0.0864  0.0206
13177TIP3    H161022   0.466   3.122  13.488  1.6268 -1.4658 -1.1597
13177TIP3    H261023   0.473   3.269  13.453 -1.0055 -1.0647 -0.1278
13178TIP3   OH261024   6.219   3.060  14.885 -0.4052 -0.6062  0.0918
13178TIP3    H161025   6.226   3.125  14.954 -0.9584 -1.3901  0.8941
13178TIP3    H261026   6.305   3.060  14.842 -0.0623 -0.1229  0.7824
13179TIP3   OH261027   3.277   2.923   4.198 -0.3011  0.1705  0.3539
13179TIP3    H161028   3.300   2.981   4.271 -2.2899  0.3489  0.8425
13179TIP3    H261029   3.224   2.978   4.140  0.2389 -0.3375 -0.6314
13180TIP3   OH261030   1.397   5.544  14.771 -0.2035 -0.8408 -0.3954
13180TIP3    H161031   1.472   5.532  14.829 -0.2176 -0.9560 -0.4012
13180TIP3    H261032   1.415   5.626  14.725 -0.8650 -0.0337  0.7755
13181TIP3   OH261033   6.390   3.350  15.364 -0.6991  0.2485 -0.4618
13181TIP3    H161034   6.303   3.375  15.396 -0.5182 -0.8350  0.9099
13181TIP3    H261035   6.409   3.268  15.409 -0.0348 -0.8304 -2.6576
13182TIP3   OH261036   1.511   3.608  16.772  0.8839  0.1151 -0.1846
13182TIP3    H161037   1.426   3.599  16.727  0.2418 -0.1522  1.0701
13182TIP3    H261038   1.517   3.702  16.792  1.0507  0.1920 -0.5867
13183TIP3   OH261039   4.886   3.068   2.488 -0.7975 -0.2088  0.3563
13183TIP3    H161040   4.890   3.015   2.568  0.9322 -2.0544 -0.9103
13183TIP3    H261041   4.805   3.041   2.445 -0.8922 -0.4140  0.6636
13184TIP3   OH261042   1.969   2.488   4.598  0.4415  0.1260 -0.2753
13184TIP3    H161043   1.909   2.563   4.592 -0.6082 -0.6932 -0.2493
13184TIP3    H261044   2.019   2.504   4.678 -0.8707  0.0318  0.5904
13185TIP3   OH261045   2.116   4.681   5.679 -0.2879  0.1191 -0.0669
13185TIP3    H161046   2.171   4.603   5.684 -2.4797 -1.3864  1.9036
13185TIP3    H261047   2.131   4.726   5.762  0.5438  1.5431 -0.9659
13186TIP3   OH261048   4.421   4.528  14.443 -0.1570 -0.2786 -0.3238
13186TIP3    H161049   4.406   4.527  14.538 -0.5367 -1.1684 -0.3976
13186TIP3    H261050   4.493   4.591  14.432 -0.4617  0.2334  0.4988
13187TIP3   OH261051   3.590   1.251  16.219 -0.0778 -0.5846 -0.2828
13187TIP3    H161052   3.499   1.224  16.224  0.2564 -1.6631  0.3364
13187TIP3    H261053   3.636   1.189  16.276  0.4347  2.6061  2.9540
13188TIP3   OH261054   0.409   1.618   5.186  0.4375 -0.3044 -0.2832
13188TIP3    H161055   0.450   1.646   5.104  0.5722 -0.0942 -0.1419
13188TIP3    H261056   0.424   1.524   5.189  1.5462 -0.1185  0.1301
13189TIP3   OH261057   0.671   5.848   0.023  0.1824 -0.0369  0.0525
13189TIP3    H161058   0.586   5.812   0.049 -0.3557  0.1145 -1.4765
13189TIP3    H261059   0.657   5.882  -0.065  1.2271  2.0496  0.6451
13190TIP3   OH261060   0.638   4.088   2.554 -0.0886  0.3473  0.4875
13190TIP3    H161061   0.643   4.183   2.546 -0.9825  0.3956  0.3646
13190TIP3    H261062   0.638   4.072   2.649 -0.4285  0.5095  0.5182
13191TIP3   OH261063   4.380   6.107  12.019  0.3950  0.2797  0.4839
13191TIP3    H161064   4.380   6.063  12.104  1.4556  1.3736  1.0651
13191TIP3    H261065   4.342   6.193  12.036  0.4893  0.4551 -0.1699
13192TIP3   OH261066   4.362   5.229   0.116  0.0605 -0.4120 -0.2392
13192TIP3    H161067   4.398   5.228   0.028  0.4899  0.4407 -0.0773
13192TIP3    H261068   4.383   5.316   0.150  0.0082 -0.7752  0.7487
13193TIP3   OH261069   5.791   2.013  11.052 -0.0745  0.0991 -0.0503
13193TIP3    H161070   5.808   1.985  10.962  1.3214  1.3108 -0.1827
13193TIP3    H261071   5.789   1.931  11.102  0.3083 -0.5035 -1.0002
13194TIP3   OH261072   6.492   3.048   2.073 -0.1732  0.3964  0.0269
13194TIP3    H161073   6.512   3.127   2.023 -0.4682  0.2783 -0.2756
13194TIP3    H261074   6.446   3.081   2.151 -2.2019  0.3625 -1.1215
13195TIP3   OH261075   2.001   0.350  14.069  0.0215  0.9277 -0.1077
13195TIP3    H161076   1.974   0.261  14.048 -2.2132  1.2848  1.1136
13195TIP3    H261077   1.925   0.404  14.046  1.1370  2.4587 -0.2906
13196TIP3   OH261078   6.048   2.497   2.659  0.0212 -0.2042 -0.3101
13196TIP3    H161079   6.112   2.547   2.711 -0.4237  0.0245  0.0240
13196TIP3    H261080   5.963   2.534   2.684 -0.3421 -1.3776  0.2124
13197TIP3   OH261081   6.010   1.136   3.913 -0.1161  0.1319  0.1788
13197TIP3    H161082   5.967   1.079   3.977 -1.8342 -0.4947 -1.4602
13197TIP3    H261083   5.978   1.223   3.934  1.1902  0.2777  1.6384
13198TIP3   OH261084   0.317   6.123  11.815 -0.1870  0.2488 -0.5399
13198TIP3    H161085   0.391   6.149  11.760  0.8958 -0.3922  0.5914
13198TIP3    H261086   0.324   6.028  11.821 -0.8282  0.2326 -0.0324
13199TIP3   OH261087   3.399   4.133   2.367  0.5247  0.0198 -0.0652
13199TIP3    H161088   3.486   4.134   2.405  0.6192 -1.3320 -0.2364
13199TIP3    H261089   3.403   4.197   2.295  1.3236  0.0695  0.0243
13200TIP3   OH261090   4.683   3.468   3.337 -0.0348  0.6532  0.5187
13200TIP3    H161091   4.591   3.472   3.365  0.3309  1.3174  1.6947
13200TIP3    H261092   4.730   3.515   3.407  1.1958  0.2721 -0.0559
13201TIP3   OH261093   3.578   6.218  15.702 -0.0951  0.0925 -0.1537
13201TIP3    H161094   3.496   6.190  15.660 -0.1481 -0.2636  0.1858
13201TIP3    H261095   3.570   6.188  15.793  0.9823 -1.1152 -0.4449
13202TIP3   OH261096   3.560   3.237  12.529 -0.4008  0.1818  0.6198
13202TIP3    H161097   3.497   3.164  12.519  1.3413 -1.2368 -0.3256
13202TIP3    H261098   3.547   3.268  12.618  0.0476 -2.4742  1.6499
13203TIP3   OH261099   2.194   6.317  11.652  0.0622 -0.4247 -0.2920
13203TIP3    H161100   2.148   6.324  11.736  0.0818 -0.3200 -0.2914
13203TIP3    H261101   2.285   6.299  11.676  0.4391  1.4836 -0.2615
13204TIP3   OH261102   3.266   2.189   1.241 -0.5122  0.2566 -0.2186
13204TIP3    H161103   3.219   2.181   1.158  0.7400  1.3602 -1.0473
13204TIP3    H261104   3.350   2.228   1.217  0.7588 -1.4904  1.2612
13205TIP3   OH261105   2.006   1.702  13.686 -0.5853  0.2110 -0.0779
13205TIP3    H161106   2.096   1.711  13.718 -0.3488  0.6080 -0.8290
13205TIP3    H261107   1.974   1.623  13.728 -0.5165  1.0701  1.6415
13206TIP3   OH261108   5.972   3.109  16.579 -0.4462  0.5465  0.3414
13206TIP3    H161109   6.061   3.114  16.544 -0.4789  0.6836  0.2768
13206TIP3    H261110   5.983   3.077  16.668 -0.3809 -0.0382  0.1279
13207TIP3   OH261111   1.146   2.651   3.074 -0.3913  0.0042 -0.2053
13207TIP3    H161112   1.152   2.677   2.983  2.1227 -1.3479 -0.4652
13207TIP3    H261113   1.229   2.679   3.113 -0.5232 -1.3918  1.1396
13208TIP3   OH261114   1.126   1.067  16.564 -0.0658  0.1868 -0.4293
13208TIP3    H161115   1.166   1.077  16.650 -0.7773  1.3242 -0.2269
13208TIP3    H261116   1.198   1.081  16.502  0.2892  0.0903 -0.0385
13209TIP3   OH261117   6.049   5.960   1.972 -0.3465 -0.4588 -0.0777
13209TIP3    H161118   6.139   5.991   1.968 -0.6730  0.3406 -1.5777
13209TIP3    H261119   6.005   6.021   2.031 -0.2580  0.0724 -0.5605
13210TIP3   OH261120   0.823   1.844   3.825  0.2617  0.0607  0.5427
13210TIP3    H161121   0.770   1.764   3.820  0.6398 -0.1679  0.0860
13210TIP3    H261122   0.764   1.910   3.860 -0.7782  0.1917 -1.3795
13211TIP3   OH261123   2.972   6.343  10.941 -0.0478  0.0711 -0.0220
13211TIP3    H161124   3.017   6.278  10.995 -0.2488 -1.4484 -1.6497
13211TIP3    H261125   2.879   6.325  10.954 -0.1269  0.6363  0.2239
13212TIP3   OH261126   4.851   2.864   0.345 -0.0491 -0.1532  0.2209
13212TIP3    H161127   4.919   2.808   0.382  2.2233  3.1617  1.2693
13212TIP3    H261128   4.796   2.887   0.420  0.6273  1.1676  0.3282
13213TIP3   OH261129   1.257   0.337   3.518 -0.9888  0.2007  0.2159
13213TIP3    H161130   1.271   0.362   3.609  0.3577 -2.4318  0.7898
13213TIP3    H261131   1.283   0.414   3.467 -0.6752  1.2984  1.9950
13214TIP3   OH261132   4.460   5.879  17.075  0.3914  0.0408 -0.0952
13214TIP3    H161133   4.548   5.855  17.103  0.4112  0.5551  0.2712
13214TIP3    H261134   4.471   5.960  17.026  0.1929 -0.1900 -0.5276
13215TIP3   OH261135   0.888   1.848  15.374 -0.4239  0.1166  0.2226
13215TIP3    H161136   0.834   1.770  15.381 -0.2728 -0.1936 -1.8228
13215TIP3    H261137   0.944   1.846  15.453 -2.2888 -0.3652  1.5692
13216TIP3   OH261138   2.689   2.877  13.321 -0.2813 -0.0914  0.8105
13216TIP3    H161139   2.711   2.792  13.357  1.4246  0.1196  0.3118
13216TIP3    H261140   2.686   2.936  13.397 -0.5257 -0.4026  1.0415
13217TIP3   OH261141   1.702   2.566   0.927 -0.1724  0.5731 -0.2657
13217TIP3    H161142   1.660   2.520   1.000 -0.3586  0.8284 -0.2087
13217TIP3    H261143   1.794   2.544   0.933 -0.0431  1.3304  0.6015
13218TIP3   OH261144   0.486   2.358   3.127 -0.2978  0.4130 -0.7128
13218TIP3    H161145   0.503   2.383   3.036 -1.6837 -0.0927 -1.1259
13218TIP3    H261146   0.563   2.387   3.175  0.2590  1.0623 -1.9862
13219TIP3   OH261147   3.942   3.302   1.304  0.0593  0.2800  0.5876
13219TIP3    H161148   3.976   3.321   1.392 -0.9511  1.8480  0.6468
13219TIP3    H261149   3.869   3.242   1.319  0.3523 -0.0445  0.7459
13220TIP3   OH261150   1.420   0.028  12.346  0.3484 -0.0900  0.3706
13220TIP3    H161151   1.421  -0.049  12.290  2.6694  0.7294 -0.7811
13220TIP3    H261152   1.406   0.101  12.286  2.1095  0.7210  0.8976
13221TIP3   OH261153   3.394   2.825  14.771  0.1352  0.3429  0.0923
13221TIP3    H161154   3.404   2.910  14.812  1.2179  0.3199 -0.1021
13221TIP3    H261155   3.451   2.828  14.695 -0.0326 -0.4541 -0.0729
13222TIP3   OH261156   2.327   6.125  15.087 -0.1459 -0.0562 -0.0668
13222TIP3    H161157   2.264   6.151  15.021  0.2331  2.4239  0.5083
13222TIP3    H261158   2.399   6.085  15.038 -0.1902  1.1109 -1.0837
13223TIP3   OH261159   4.349   0.638  16.613 -0.5232 -0.0182 -0.3754
13223TIP3    H161160   4.437   0.601  16.619 -0.5696 -0.1178 -0.3043
13223TIP3    H261161   4.337   0.687  16.694 -0.1889  0.7673 -0.7925
13224TIP3   OH261162   4.218   4.347   3.246  0.1623  0.3122  1.0682
13224TIP3    H161163   4.289   4.320   3.187 -0.3528  0.0359  0.5643
13224TIP3    H261164   4.200   4.270   3.299 -1.6471 -0.5282 -0.7098
13225TIP3   OH261165   1.883   6.227  14.747  0.3753  0.2355 -0.5083
13225TIP3    H161166   1.809   6.258  14.800  0.0555  0.4015 -1.0502
13225TIP3    H261167   1.911   6.303  14.697  1.2083  0.2884  0.0217
13226TIP3   OH261168   6.378   4.919  13.118 -0.4826  0.0020 -0.4750
13226TIP3    H161169   6.461   4.920  13.165 -0.8394  0.3790  0.1496
13226TIP3    H261170   6.387   4.986  13.051 -0.9165  1.2543  0.6951
13227TIP3   OH261171   5.483   5.210  13.947  0.4383  0.0224  0.0080
13227TIP3    H161172   5.490   5.276  14.016 -0.9905  0.8463 -0.6196
13227TIP3    H261173   5.473   5.127  13.994 -0.4983  0.5761  0.7896
13228TIP3   OH261174   3.014   2.364   2.003  0.0233 -0.4370  0.0614
13228TIP3    H161175   2.966   2.445   1.985 -0.7178 -1.5288 -3.2496
13228TIP3    H261176   2.949   2.306   2.042 -0.7742 -1.1341 -2.2772
13229TIP3   OH261177   5.480   2.578  13.793  0.5724 -0.3214 -0.4984
13229TIP3    H161178   5.534   2.550  13.867 -0.0227 -0.7186 -0.2076
13229TIP3    H261179   5.541   2.588  13.720  0.8438 -1.9918 -0.5027
13230TIP3   OH261180   2.260   5.905   2.762 -0.1843 -0.4515 -0.0577
13230TIP3    H161181   2.305   5.879   2.682  2.1180  1.6404  0.4898
13230TIP3    H261182   2.240   5.823   2.807  0.3555 -1.5427 -1.7682
13231TIP3   OH261183   6.811   5.815  12.055  0.4590  0.0266 -0.3765
13231TIP3    H161184   6.752   5.792  12.127 -0.7943  1.1602 -1.0194
13231TIP3    H261185   6.834   5.730  12.016  1.6480 -0.6351  1.7200
13232TIP3   OH261186   3.895   3.815   1.286  0.4367  0.0434  1.4638
13232TIP3    H161187   3.835   3.883   1.257  0.9821  0.6963  1.8662
13232TIP3    H261188   3.847   3.733   1.271  0.5191  0.3721 -0.8319
13233TIP3   OH261189   5.913   1.113  16.045 -0.2673 -0.3099 -0.3984
13233TIP3    H161190   5.966   1.088  15.969  1.1363  2.4161 -0.3815
13233TIP3    H261191   5.968   1.090  16.120  1.3210  3.1324 -0.3894
13234TIP3   OH261192   5.340   4.857   0.603  0.2866  0.0743  0.2181
13234TIP3    H161193   5.392   4.890   0.676 -2.5500  0.7736  2.0423
13234TIP3    H261194   5.390   4.879   0.525  0.6610  4.7133  1.6113
13235TIP3   OH261195   0.458   3.897  12.712 -0.5089  0.2772  0.7800
13235TIP3    H161196   0.495   3.813  12.740 -0.9550  0.6721  2.6034
13235TIP3    H261197   0.532   3.946  12.678 -0.2557 -0.8673 -0.3703
13236TIP3   OH261198   2.700   4.852   3.835 -0.2393 -0.5361 -0.0793
13236TIP3    H161199   2.735   4.835   3.748 -1.1718 -1.7658 -0.2146
13236TIP3    H261200   2.730   4.778   3.888  1.9530  1.1469  1.1392
13237TIP3   OH261201   2.263   4.700  10.656  0.0654 -0.0501  0.1389
13237TIP3    H161202   2.242   4.644  10.731  0.2685  0.0314  0.2572
13237TIP3    H261203   2.248   4.644  10.580  1.5798 -0.7112  0.3083
13238TIP3   OH261204   2.694   2.219   1.358  0.1023  0.4818  0.3074
13238TIP3    H161205   2.722   2.299   1.402 -2.4700  1.1360  0.8354
13238TIP3    H261206   2.598   2.223   1.359 -0.0557 -0.3719 -3.8034
13239TIP3   OH261207   3.690   3.597  12.117  0.0060  0.3967  0.3242
13239TIP3    H161208   3.748   3.556  12.053 -0.1650 -0.3235  0.6235
13239TIP3    H261209   3.737   3.591  12.200 -0.6571 -0.5290  0.6336
13240TIP3   OH261210   2.985   1.493  14.080 -0.1522 -0.4106 -0.5580
13240TIP3    H161211   2.931   1.510  14.157 -2.3616  0.8893 -2.3172
13240TIP3    H261212   3.073   1.517  14.106 -0.7113 -0.7316  1.7928
13241TIP3   OH261213   1.465   2.386  15.525 -0.2823  0.3514 -0.0674
13241TIP3    H161214   1.425   2.400  15.611 -0.3335  0.1824 -0.0645
13241TIP3    H261215   1.392   2.372  15.466 -0.1965 -0.7554  0.0810
13242TIP3   OH261216   1.825   4.911   5.422 -0.2927 -0.1574 -0.1112
13242TIP3    H161217   1.735   4.935   5.400 -0.4020  1.1423  1.7320
13242TIP3    H261218   1.827   4.816   5.410 -1.1736  0.1117 -2.7045
13243TIP3   OH261219   2.262   0.313   2.146 -0.4341  0.1044  0.1699
13243TIP3    H161220   2.284   0.406   2.138  0.7754 -0.2819 -1.0887
13243TIP3    H261221   2.290   0.290   2.235 -2.2686  1.3257  1.0966
13244TIP3   OH261222   0.872   5.980  13.720  0.6169 -0.5540 -0.6514
13244TIP3    H161223   0.945   5.989  13.658  1.8636  1.2935  0.9915
13244TIP3    H261224   0.852   6.070  13.745 -1.4861 -1.1324 -0.1924
13245TIP3   OH261225   3.014   3.037   2.162 -0.1672  1.0660  0.3028
13245TIP3    H161226   3.023   2.947   2.193  1.0316  1.1552  0.2231
13245TIP3    H261227   2.969   3.083   2.233 -0.1406  0.5638  0.6434
13246TIP3   OH261228   0.243   2.659   6.118 -0.0852  0.3806 -0.0584
13246TIP3    H161229   0.185   2.687   6.188  0.0108 -0.1820  0.2498
13246TIP3    H261230   0.184   2.638   6.045 -0.1795  1.0211 -0.1648
13247TIP3   OH261231   5.489   3.367  13.093 -0.3529 -0.8979 -0.2222
13247TIP3    H161232   5.489   3.291  13.034  0.1776 -1.8532  0.9778
13247TIP3    H261233   5.576   3.407  13.081 -0.0029 -1.4705  0.3798
13248TIP3   OH261234   5.660   6.095   5.094  0.0643  0.0798  0.1713
13248TIP3    H161235   5.688   6.089   5.185 -1.1530  2.3646  0.7421
13248TIP3    H261236   5.568   6.067   5.096 -0.0396  0.3810 -0.2981
13249TIP3   OH261237   3.495   4.953   1.945  0.1564 -0.1142 -0.1097
13249TIP3    H161238   3.581   4.920   1.972 -0.0571 -0.9322 -0.4054
13249TIP3    H261239   3.485   5.034   1.994  1.1888  0.0985 -0.2235
13250TIP3   OH261240   1.217   5.951  12.090 -0.3803 -1.2267 -0.0637
13250TIP3    H161241   1.273   5.875  12.105  1.5454 -0.0266 -0.8319
13250TIP3    H261242   1.265   6.003  12.025 -3.2119 -0.9347 -1.9659
13251TIP3   OH261243   2.361   0.899  14.321 -1.2511  0.4519  0.4016
13251TIP3    H161244   2.424   0.842  14.365 -1.3772 -0.9737 -1.2060
13251TIP3    H261245   2.397   0.987  14.332  0.5342 -0.2351  0.3337
13252TIP3   OH261246   1.798   2.888   4.048 -0.4525 -0.4703 -0.4650
13252TIP3    H161247   1.793   2.920   4.139  1.8608  0.8281 -0.7537
13252TIP3    H261248   1.779   2.794   4.055  0.1671 -0.4791  1.4302
13253TIP3   OH261249   1.559   1.045  16.620  0.5602  0.0162 -0.7941
13253TIP3    H161250   1.615   1.013  16.548  1.0325 -0.3371 -0.2706
13253TIP3    H261251   1.572   1.140  16.619  1.2756 -0.0740 -0.5951
13254TIP3   OH261252   5.723   2.506   3.171 -0.4074 -0.1166 -0.1019
13254TIP3    H161253   5.751   2.426   3.216  1.3389 -0.8541 -2.3784
13254TIP3    H261254   5.793   2.569   3.189 -0.9715  0.3846  0.3322
13255TIP3   OH261255   5.583   6.338   3.031  0.3133 -0.0928 -0.1339
13255TIP3    H161256   5.544   6.324   3.118 -0.0887 -0.7103 -0.4080
13255TIP3    H261257   5.515   6.308   2.970  0.8604 -0.3043 -0.6394
13256TIP3   OH261258   3.632   0.196   2.809 -0.4550 -0.4447 -0.1557
13256TIP3    H161259   3.649   0.126   2.746  1.9157 -0.2569  0.2633
13256TIP3    H261260   3.608   0.150   2.890  0.9523 -0.7692  0.0788
13257TIP3   OH261261   3.094   0.982  15.709 -0.1006  0.2047 -0.0558
13257TIP3    H161262   3.184   1.011  15.728 -0.0367  0.1504 -0.2785
13257TIP3    H261263   3.096   0.957  15.617 -0.5707  1.0517 -0.2942
13258TIP3   OH261264   1.084   4.549  15.665 -0.2382  0.8552 -0.2051
13258TIP3    H161265   1.121   4.632  15.694  0.2980  0.5386  0.0348
13258TIP3    H261266   1.021   4.526  15.734  1.3569 -0.1130  0.9742
13259TIP3   OH261267   6.454   5.712  12.289  0.5920  0.5205 -0.6931
13259TIP3    H161268   6.395   5.688  12.218  0.8029  1.0602 -1.0482
13259TIP3    H261269   6.430   5.654  12.361  0.7488 -0.3919 -1.3827
13260TIP3   OH261270   4.140   5.482  16.660 -0.0231  0.2985  0.3438
13260TIP3    H161271   4.108   5.486  16.570 -2.2254 -1.7090  1.0042
13260TIP3    H261272   4.099   5.556  16.704  0.4807  0.8522 -0.1068
13261TIP3   OH261273   5.556   6.166   4.863 -0.1349  0.3645 -0.4856
13261TIP3    H161274   5.615   6.167   4.939 -0.8184  0.2093  0.0471
13261TIP3    H261275   5.607   6.124   4.794 -0.0827 -0.9531  0.3452
13262TIP3   OH261276   3.346   0.338   4.273 -0.0201  0.1525 -0.7590
13262TIP3    H161277   3.440   0.347   4.256 -0.5262  0.6558 -3.5716
13262TIP3    H261278   3.315   0.427   4.286 -0.2089  0.0463 -0.4852
13263TIP3   OH261279   2.498   4.773   4.370 -0.1303 -0.3635  0.0135
13263TIP3    H161280   2.478   4.857   4.412 -0.1666 -0.1339 -0.4568
13263TIP3    H261281   2.434   4.766   4.299  1.4788  0.4228 -1.5626
13264TIP3   OH261282   1.840   0.151   1.573 -0.6113 -0.1760 -0.1731
13264TIP3    H161283   1.856   0.213   1.503 -1.4696  0.0365 -0.1910
13264TIP3    H261284   1.875   0.068   1.540  0.3331  0.2397 -0.2391
13265TIP3   OH261285   2.135   0.246   2.684  0.1524 -0.2019  0.2435
13265TIP3    H161286   2.179   0.291   2.756 -0.0770 -0.1503  0.3524
13265TIP3    H261287   2.160   0.295   2.606  0.1463 -0.0677  0.3256
13266TIP3   OH261288   3.231   0.814  13.958  0.2716 -0.6920 -0.5950
13266TIP3    H161289   3.225   0.816  13.862  0.1331 -1.4814 -0.6017
13266TIP3    H261290   3.237   0.721  13.980 -0.4210 -0.5515  0.2023
13267TIP3   OH261291   5.338   0.799   6.463 -0.6928 -0.7105  0.0169
13267TIP3    H161292   5.326   0.865   6.394 -1.6827  0.6688  1.4879
13267TIP3    H261293   5.330   0.716   6.417 -1.4290  0.1913 -1.5353
13268TIP3   OH261294   4.126   6.445   4.758 -0.2261 -0.5079  0.6730
13268TIP3    H161295   4.179   6.478   4.831 -1.0644  1.1855  0.5121
13268TIP3    H261296   4.118   6.519   4.698  0.0396 -1.7460 -0.9256
13269TIP3   OH261297   3.039   0.706  13.701 -0.5760  0.3017  0.6693
13269TIP3    H161298   2.963   0.698  13.644 -1.8595  2.3692  2.0470
13269TIP3    H261299   3.070   0.616  13.712 -0.6251 -0.2180 -2.7952
13270TIP3   OH261300   0.453   0.021  12.266  0.1000  0.0367 -0.4252
13270TIP3    H161301   0.480   0.046  12.354 -0.1357  0.0013 -0.3413
13270TIP3    H261302   0.511  -0.051  12.242 -0.6650 -0.8018  0.1956
13271TIP3   OH261303   6.075   5.838   6.261  0.2690 -0.6493 -0.1367
13271TIP3    H161304   6.019   5.791   6.198  0.8012  0.1035 -1.1655
13271TIP3    H261305   6.112   5.768   6.315 -2.1650 -1.1439  1.0078
13272TIP3   OH261306   5.073   5.539   5.648 -0.3376 -0.2875 -0.1160
13272TIP3    H161307   5.079   5.634   5.649  2.1250 -0.3629  3.2089
13272TIP3    H261308   5.010   5.518   5.717 -0.4067 -1.0792 -0.4063
13273TIP3   OH261309   3.264   3.192  13.940  0.4093  0.1627  0.0831
13273TIP3    H161310   3.246   3.135  14.015  1.0075  1.5245  1.2848
13273TIP3    H261311   3.346   3.158  13.904  1.4281  0.9910  1.5491
13274TIP3   OH261312   6.747   5.954  15.732  0.5183  0.1925  0.2468
13274TIP3    H161313   6.781   5.874  15.773  1.6362 -0.3097 -1.5495
13274TIP3    H261314   6.743   5.932  15.639 -1.6476  1.3843  0.0302
13275TIP3   OH261315   0.304   6.412   6.224  0.0665 -0.3790  0.2552
13275TIP3    H161316   0.235   6.475   6.245  0.7453  0.7690 -0.8850
13275TIP3    H261317   0.264   6.351   6.163 -0.1420 -0.1117  0.1227
13276TIP3   OH261318   6.239   5.454  14.281 -0.0767 -0.1436  0.3768
13276TIP3    H161319   6.268   5.475  14.370  1.3933 -1.9027  0.3437
13276TIP3    H261320   6.198   5.369  14.288 -2.4401  0.9163 -0.1771
13277TIP3   OH261321   5.695   3.091  11.137  0.3985  0.4941  0.0339
13277TIP3    H161322   5.624   3.129  11.189  0.6019 -0.0999  0.7448
13277TIP3    H261323   5.667   3.104  11.046 -0.4995  0.5128  0.3041
13278TIP3   OH261324   4.723   3.492   2.174 -0.0266  0.6546 -0.1035
13278TIP3    H161325   4.729   3.396   2.174 -1.4136  0.5564  0.2912
13278TIP3    H261326   4.805   3.521   2.135  0.7595 -0.6720  0.5307
13279TIP3   OH261327   3.730   0.289  15.468 -0.2562  1.0839  0.1344
13279TIP3    H161328   3.654   0.268  15.523 -1.4108 -1.3593 -2.2654
13279TIP3    H261329   3.805   0.281  15.526 -1.4722 -0.8991  1.4832
13280TIP3   OH261330   5.218   2.211   4.856 -0.2721  0.8340  0.2813
13280TIP3    H161331   5.216   2.222   4.761  0.5261  0.1935  0.1882
13280TIP3    H261332   5.151   2.272   4.889 -0.2387  1.3743 -0.6516
13281TIP3   OH261333   1.334   2.728   1.265 -0.3068 -0.1463  0.4592
13281TIP3    H161334   1.259   2.718   1.323  0.2885 -2.8463  0.8069
13281TIP3    H261335   1.335   2.649   1.212  2.2289 -0.1123  0.3734
13282TIP3   OH261336   0.603   2.803   0.631  0.4031 -0.4102 -0.4805
13282TIP3    H161337   0.663   2.763   0.569 -0.5295 -0.2105 -1.5346
13282TIP3    H261338   0.525   2.746   0.630 -1.0796  1.5833 -2.2694
13283TIP3   OH261339   4.617   0.084   4.071 -0.2379  0.0127 -0.0942
13283TIP3    H161340   4.641   0.006   4.020 -0.5566 -1.1949  1.5647
13283TIP3    H261341   4.571   0.049   4.148 -0.6818  1.8650  0.5011
13284TIP3   OH261342   0.620   1.636   0.363 -0.2832 -0.7213  0.1336
13284TIP3    H161343   0.670   1.555   0.369  2.2418  0.7530 -0.3159
13284TIP3    H261344   0.646   1.687   0.440 -1.9804 -0.3897  0.5138
13285TIP3   OH261345   4.287   5.015   3.172 -0.0064 -0.2813  0.3439
13285TIP3    H161346   4.298   4.977   3.085  2.2844 -1.3704  1.0587
13285TIP3    H261347   4.199   4.991   3.198  0.0740 -1.8770 -0.7876
13286TIP3   OH261348   1.975   5.210  14.255 -0.3532 -0.1994 -0.8045
13286TIP3    H161349   1.955   5.138  14.195  0.9215 -1.8456  0.7025
13286TIP3    H261350   2.047   5.177  14.309 -1.0426  1.4939  1.2024
13287TIP3   OH261351   1.623   0.740  13.404  0.1239  0.1065  0.2425
13287TIP3    H161352   1.671   0.662  13.377  1.9402  0.7396  1.5251
13287TIP3    H261353   1.679   0.780  13.471 -1.9376  1.1841  1.3456
13288TIP3   OH261354   1.329   5.685  12.137  0.0993  0.2782 -0.3941
13288TIP3    H161355   1.288   5.615  12.187  0.3710  0.5668  0.2455
13288TIP3    H261356   1.367   5.642  12.061  0.0268 -0.2260 -0.1472
13289TIP3   OH261357   5.001   1.508   2.513 -0.1806  0.3899  0.5952
13289TIP3    H161358   5.024   1.415   2.512  1.1325  0.6999  1.2298
13289TIP3    H261359   5.067   1.549   2.569 -0.0892  1.8657 -0.5565
13290TIP3   OH261360   0.467   2.351   0.634 -0.3546 -0.2074 -0.4110
13290TIP3    H161361   0.502   2.365   0.546  0.3131 -1.6549 -0.3897
13290TIP3    H261362   0.507   2.269   0.663 -0.5957  0.2372  1.2334
13291TIP3   OH261363   5.435   2.893  13.462  0.2370  0.0029  0.0031
13291TIP3    H161364   5.463   2.969  13.512 -0.3042  0.7191 -0.7691
13291TIP3    H261365   5.342   2.907  13.446 -0.0461 -1.1966  0.5029
13292TIP3   OH261366   3.826   1.032   5.683  1.3244 -0.3427  0.3943
13292TIP3    H161367   3.867   1.117   5.696 -0.8082  0.8808 -0.8123
13292TIP3    H261368   3.802   1.003   5.771  1.9845  0.3233  0.7949
13293TIP3   OH261369   2.264   4.203  14.257  0.4141 -0.3320 -0.3022
13293TIP3    H161370   2.309   4.131  14.213 -0.5915 -0.8509 -0.4926
13293TIP3    H261371   2.243   4.170  14.344 -1.2181 -0.7479 -0.8350
13294TIP3   OH261372   6.175   6.219  12.799  0.3261 -0.1947 -0.0356
13294TIP3    H161373   6.155   6.261  12.882  1.1089  2.4571 -1.1288
13294TIP3    H261374   6.133   6.133  12.804 -1.6650  0.8621  2.1343
13295TIP3   OH261375   3.099   3.135  11.844 -0.0390  0.3675 -0.4966
13295TIP3    H161376   3.150   3.073  11.793  0.4818  0.4728 -0.1133
13295TIP3    H261377   3.015   3.142  11.798 -0.0297 -0.4626 -0.6546
13296TIP3   OH261378   3.969   4.950   2.292  0.0607  0.6154 -0.3978
13296TIP3    H161379   3.985   5.019   2.228 -2.3951  2.7204  1.1273
13296TIP3    H261380   4.023   4.877   2.264 -0.0299  1.9006 -4.1434
13297TIP3   OH261381   3.814   0.359  17.289  0.6093 -0.1390 -0.0922
13297TIP3    H161382   3.748   0.420  17.320  1.0825  0.0502  0.5593
13297TIP3    H261383   3.892   0.414  17.275  1.3309 -0.7290  1.4447
13298TIP3   OH261384   4.280   4.743   3.617 -0.2488 -0.2867  0.3694
13298TIP3    H161385   4.218   4.727   3.689  1.3414  0.1571  1.8769
13298TIP3    H261386   4.230   4.724   3.538 -2.9273  1.9163  1.4355
13299TIP3   OH261387   2.791   0.431  13.422  0.3397 -0.3504  0.4054
13299TIP3    H161388   2.837   0.424  13.339  0.7324 -0.1823  0.6079
13299TIP3    H261389   2.719   0.368  13.416 -1.6876  2.0119 -1.3948
13300TIP3   OH261390   4.052   2.707  11.935 -0.3288 -0.2132 -0.6998
13300TIP3    H161391   4.111   2.649  11.887 -0.1338 -0.3535 -0.2922
13300TIP3    H261392   3.971   2.658  11.943  0.6711 -1.5118  1.9599
13301TIP3   OH261393   3.074   3.720   3.132 -0.2367  0.3337  0.0087
13301TIP3    H161394   3.096   3.777   3.206 -0.4960 -0.1056  0.4286
13301TIP3    H261395   3.057   3.780   3.059  3.0017  0.6915 -0.5306
13302TIP3   OH261396   3.797   3.328   0.003  0.0072  0.1593  0.3405
13302TIP3    H161397   3.710   3.341  -0.034 -0.1628  0.7471  0.9253
13302TIP3    H261398   3.835   3.416   0.006 -0.0116  0.1355  1.6259
13303TIP3   OH261399   6.566   2.915  11.176  1.5841  0.1986 -0.4100
13303TIP3    H161400   6.655   2.919  11.142  1.6192  0.7462 -0.2465
13303TIP3    H261401   6.520   2.986  11.132  1.4272  0.4123  0.0961
13304TIP3   OH261402   6.673   4.098   4.051  0.0726 -0.0715 -0.4957
13304TIP3    H161403   6.611   4.089   3.980 -0.3919  1.2345 -0.2774
13304TIP3    H261404   6.627   4.065   4.128 -0.3816  0.9244 -0.3276
13305TIP3   OH261405   3.974   4.180   6.371  0.6352  0.0221  0.3466
13305TIP3    H161406   3.944   4.137   6.290  0.0833  0.7520  0.1585
13305TIP3    H261407   3.902   4.238   6.395  1.1619  0.4530  0.8913
13306TIP3   OH261408   5.015   4.677  11.315  0.3388  0.5232  0.4080
13306TIP3    H161409   4.983   4.731  11.243 -1.7372 -0.7104  0.3753
13306TIP3    H261410   5.012   4.588  11.281  2.5549  0.2275  0.8920
13307TIP3   OH261411   3.248   6.219  11.814 -0.1749 -0.5235  0.0066
13307TIP3    H161412   3.248   6.308  11.779 -1.2098 -1.3956 -2.3806
13307TIP3    H261413   3.318   6.175  11.766 -1.1475 -1.5581 -0.4999
13308TIP3   OH261414   1.778   2.520  14.004 -0.2434  0.0329 -0.0092
13308TIP3    H161415   1.714   2.466  14.050 -0.4388 -0.4324 -0.8222
13308TIP3    H261416   1.742   2.608  14.007  0.1779  0.1760  1.5091
13309TIP3   OH261417   0.459   5.810   1.362  0.0171 -0.2701  0.1753
13309TIP3    H161418   0.539   5.780   1.319  0.5860 -0.1335  1.1103
13309TIP3    H261419   0.490   5.848   1.444 -1.0840 -0.8896  0.8840
13310TIP3   OH261420   0.733   6.121  14.602 -0.3949  0.1800 -0.3266
13310TIP3    H161421   0.705   6.044  14.652 -0.2428  0.0921 -0.3769
13310TIP3    H261422   0.655   6.177  14.598 -0.5992 -0.1191 -0.5691
13311TIP3   OH261423   1.252   0.835   3.164  0.1864 -0.1410 -0.0471
13311TIP3    H161424   1.189   0.907   3.160  0.7182  0.5012  2.0553
13311TIP3    H261425   1.199   0.756   3.169 -0.4213  0.2155 -0.7480
13312TIP3   OH261426   0.642   6.288  15.115  0.1494 -0.2062 -0.6891
13312TIP3    H161427   0.596   6.262  15.195  1.2405 -0.3280 -0.0949
13312TIP3    H261428   0.644   6.384  15.119  0.7031 -0.2352 -0.2883
13313TIP3   OH261429   4.844   3.115  11.093  0.3118  0.5821  0.1557
13313TIP3    H161430   4.758   3.092  11.128  0.2673  0.7973  0.1857
13313TIP3    H261431   4.826   3.182  11.028  0.3918  0.1700 -0.2938
13314TIP3   OH261432   0.391   4.933   5.887  0.4150  0.6738 -0.4376
13314TIP3    H161433   0.462   4.994   5.906 -0.9036  2.4209 -0.8755
13314TIP3    H261434   0.346   4.922   5.971 -1.0363  2.6050 -0.9098
13315TIP3   OH261435   0.394   0.669  13.749  0.1033  0.2568  0.1913
13315TIP3    H161436   0.326   0.639  13.688 -0.0129  1.1381 -0.1238
13315TIP3    H261437   0.351   0.669  13.834 -0.1986  0.4940  0.0413
13316TIP3   OH261438   0.909   5.091  15.346 -0.4003  0.0930  0.1677
13316TIP3    H161439   0.923   5.184  15.325  1.4317 -0.2196 -0.0361
13316TIP3    H261440   0.821   5.073  15.314 -0.2918  1.4370 -0.9428
13317TIP3   OH261441   2.136   1.413   6.044  0.0837  0.0333  0.5009
13317TIP3    H161442   2.176   1.480   6.100 -1.1360  1.5472 -0.4014
13317TIP3    H261443   2.094   1.462   5.974 -1.2418 -1.6600  0.0702
13318TIP3   OH261444   5.107   4.746  17.137  0.6144 -0.3181  0.5566
13318TIP3    H161445   5.058   4.778  17.213  2.1864 -0.3914  1.6176
13318TIP3    H261446   5.132   4.657  17.162  1.4274 -0.2170  0.0828
13319TIP3   OH261447   1.327   2.177  15.976 -0.1867  0.1558  0.0169
13319TIP3    H161448   1.247   2.178  16.029  0.2955 -0.7278  0.7813
13319TIP3    H261449   1.358   2.086  15.981  1.3311  0.6784  0.4587
13320TIP3   OH261450   1.965   0.616  16.639 -0.0996 -0.0835 -0.1489
13320TIP3    H161451   2.020   0.665  16.577 -0.6970 -0.0960 -0.6893
13320TIP3    H261452   1.962   0.527  16.604 -0.0918 -0.1942  0.1270
13321TIP3   OH261453   0.295   0.931   0.336 -0.0786 -0.4336 -0.0415
13321TIP3    H161454   0.291   0.886   0.252  1.2350  0.2794 -0.4995
13321TIP3    H261455   0.388   0.950   0.349 -0.3245 -0.1065  1.3456
13322TIP3   OH261456   3.592   5.005   2.930  0.5920 -0.6164 -0.3854
13322TIP3    H161457   3.659   5.068   2.905 -1.5300  1.8688 -0.0143
13322TIP3    H261458   3.639   4.938   2.980  3.2989 -0.6982 -2.9372
13323TIP3   OH261459   5.855   1.455   4.748  0.1803  0.1225  0.0249
13323TIP3    H161460   5.808   1.401   4.811 -1.0154  0.2512 -0.7408
13323TIP3    H261461   5.947   1.443   4.771 -0.1755 -0.7024  1.0889
13324TIP3   OH261462   5.851   1.677   5.747 -0.5008 -0.3367  0.2398
13324TIP3    H161463   5.923   1.665   5.809 -0.6802  0.2680  0.5646
13324TIP3    H261464   5.790   1.606   5.768 -1.0433  0.4759  1.4345
13325TIP3   OH261465   0.665   1.643   3.762  0.1259  0.6765 -1.0014
13325TIP3    H161466   0.588   1.612   3.809  0.6827  1.8604  0.7424
13325TIP3    H261467   0.631   1.706   3.699 -0.4182  0.5735 -0.8138
13326TIP3   OH261468   1.699   0.607  11.711 -0.2801  0.3333 -0.0419
13326TIP3    H161469   1.626   0.640  11.659 -0.5560  0.5009  0.4509
13326TIP3    H261470   1.772   0.604  11.649 -0.7851 -0.1660 -0.6206
13327TIP3   OH261471   2.293   0.921  15.164 -0.0145 -0.4428 -0.2471
13327TIP3    H161472   2.343   0.903  15.084 -1.1731  1.6687 -1.5189
13327TIP3    H261473   2.358   0.948  15.228  0.7028  0.2038 -1.2283
13328TIP3   OH261474   6.459   3.322   0.156 -0.2248  0.0306  0.3103
13328TIP3    H161475   6.534   3.329   0.096 -0.8194  0.4233 -0.3974
13328TIP3    H261476   6.456   3.229   0.179  0.6258  0.0541  0.5345
13329TIP3   OH261477   4.930   6.810  14.532 -0.5852  0.4663 -0.3071
13329TIP3    H161478   4.898   6.851  14.612 -0.3941 -1.1728  0.6252
13329TIP3    H261479   5.022   6.836  14.526  0.2719 -1.8759  1.6858
13330TIP3   OH261480   5.536   4.498   4.417 -0.1711 -0.1694  0.3381
13330TIP3    H161481   5.512   4.503   4.510 -0.4614  0.7506  0.2178
13330TIP3    H261482   5.625   4.462   4.417 -0.1529 -0.1292  0.9731
13331TIP3   OH261483   3.111   3.257   1.778  0.0234 -0.2153  0.0547
13331TIP3    H161484   3.110   3.262   1.873 -0.0015 -1.2969  0.1150
13331TIP3    H261485   3.047   3.189   1.756  0.6741 -0.5980 -0.6870
13332TIP3   OH261486   0.452   3.926  12.026 -0.3044  0.5998  0.4567
13332TIP3    H161487   0.466   3.833  12.008 -0.1072  0.6524  0.3374
13332TIP3    H261488   0.404   3.959  11.950 -1.1040  0.4127  0.8783
13333TIP3   OH261489   2.676   2.542  12.592  0.5421 -0.0217  0.5591
13333TIP3    H161490   2.653   2.449  12.587 -0.7978  0.1650  2.7583
13333TIP3    H261491   2.771   2.542  12.606  0.8823 -0.9756 -1.4684
13334TIP3   OH261492   1.444   1.597   4.778 -0.5140 -0.0275 -0.1733
13334TIP3    H161493   1.399   1.659   4.835 -0.5117 -0.0117 -0.1891
13334TIP3    H261494   1.487   1.536   4.838 -0.7310 -0.1692 -0.1595
13335TIP3   OH261495   1.061   3.476  13.856 -0.1727  0.4759 -0.2092
13335TIP3    H161496   1.103   3.401  13.898 -1.4844  0.5445  1.2711
13335TIP3    H261497   1.132   3.537  13.840  0.9024 -1.0342 -1.3523
13336TIP3   OH261498   3.235   6.473   3.152  0.8023  0.2710 -0.7280
13336TIP3    H161499   3.171   6.438   3.214 -1.7343  2.1905 -2.1643
13336TIP3    H261500   3.297   6.401   3.139  0.2734 -0.8496  2.4495
13337TIP3   OH261501   5.864   4.756   2.621  0.9388 -0.0913 -0.5926
13337TIP3    H161502   5.828   4.703   2.550 -0.1949  0.6231 -0.5560
13337TIP3    H261503   5.958   4.738   2.619  0.6005 -1.9443 -0.7127
13338TIP3   OH261504   5.914   2.307  14.623 -0.2493 -0.5809  0.0328
13338TIP3    H161505   5.948   2.233  14.673 -0.6656  1.3500  3.2773
13338TIP3    H261506   5.991   2.351  14.590  0.3089  0.9383  3.1896
13339TIP3   OH261507   6.553   6.467   0.212  0.1131  0.3974  0.2533
13339TIP3    H161508   6.563   6.538   0.276 -0.3506  0.6723  0.0193
13339TIP3    H261509   6.467   6.481   0.174  1.2388  1.4744 -1.9716
13340TIP3   OH261510   5.948   3.306  14.085 -0.0200 -0.1820  0.4426
13340TIP3    H161511   5.898   3.305  14.166  1.7850  2.7165  1.6929
13340TIP3    H261512   5.989   3.220  14.080 -1.5718 -1.0084  1.6709
13341TIP3   OH261513   0.159   0.391  12.181  0.2681 -0.1575 -0.0503
13341TIP3    H161514   0.243   0.352  12.155  0.1331 -0.1029 -0.5683
13341TIP3    H261515   0.163   0.393  12.277  1.9494  2.2132 -0.1304
13342TIP3   OH261516   3.909   4.048  10.873 -0.9034 -0.2445  0.3383
13342TIP3    H161517   3.875   4.135  10.895 -0.7829  0.0731 -0.7162
13342TIP3    H261518   3.908   4.045  10.777  1.5233 -0.4404  0.2878
13343TIP3   OH261519   4.093   3.729   6.267 -0.2762 -0.2300  0.4987
13343TIP3    H161520   4.022   3.757   6.325  0.8399  0.0653  1.7497
13343TIP3    H261521   4.085   3.787   6.190 -0.9209  0.2983  0.9562
13344TIP3   OH261522   5.453   4.032   3.485 -0.3053 -0.4771 -0.1285
13344TIP3    H161523   5.410   3.947   3.479 -0.9214 -0.0878 -1.3840
13344TIP3    H261524   5.387   4.090   3.522 -0.0385 -0.4253  0.2755
13345TIP3   OH261525   2.116   3.540  12.994  0.7872  0.8497 -0.0186
13345TIP3    H161526   2.107   3.592  13.074  0.3410 -1.1162  1.2306
13345TIP3    H261527   2.029   3.506  12.978  1.2919 -0.3233 -0.2702
13346TIP3   OH261528   5.387   3.890   0.012  0.6095 -0.6271  0.4154
13346TIP3    H161529   5.293   3.890  -0.006  0.2955  0.3560  1.9714
13346TIP3    H261530   5.403   3.806   0.054  0.3777 -0.7081  0.3440
13347TIP3   OH261531   5.067   6.445   1.529  0.3004 -0.2359 -0.3562
13347TIP3    H161532   5.161   6.438   1.547 -0.0569 -0.2125  1.6855
13347TIP3    H261533   5.046   6.366   1.480  1.0829 -1.0676  0.6246
13348TIP3   OH261534   0.021   0.316  12.965  0.4919 -0.0237 -0.6841
13348TIP3    H161535   0.041   0.408  12.945 -0.3942  0.1593 -0.7529
13348TIP3    H261536   0.104   0.280  12.996  0.6553  1.0350  0.1839
13349TIP3   OH261537   2.390   5.283   3.646 -0.1430  0.9926 -0.2238
13349TIP3    H161538   2.364   5.372   3.672 -0.6408  1.5863 -2.6008
13349TIP3    H261539   2.482   5.291   3.622 -0.1096  0.7934 -0.1593
13350TIP3   OH261540   0.984   3.695  13.310  0.1983 -0.1748  0.5462
13350TIP3    H161541   1.048   3.753  13.352  0.1715 -0.2307  0.6639
13350TIP3    H261542   0.994   3.713  13.217 -0.1902  0.4181  0.6171
13351TIP3   OH261543   1.959   5.567   5.438 -0.4104  0.1913 -0.3370
13351TIP3    H161544   1.879   5.595   5.484 -1.5817 -3.1901 -0.1556
13351TIP3    H261545   2.005   5.512   5.502 -0.1218 -1.4030 -1.8777
13352TIP3   OH261546   6.401   0.991   5.204 -0.2222 -1.1380 -0.1798
13352TIP3    H161547   6.387   0.907   5.160  1.1999 -2.0152  0.9932
13352TIP3    H261548   6.319   1.008   5.251 -0.5269 -1.8478 -0.4530
13353TIP3   OH261549   2.970   0.836  12.379  0.5729  0.0065  0.0885
13353TIP3    H161550   2.952   0.846  12.285  0.7770  1.5822  0.2020
13353TIP3    H261551   2.971   0.926  12.412  0.5200 -0.5459  1.5999
13354TIP3   OH261552   5.590   2.192  12.271 -0.3790  0.1692  0.0641
13354TIP3    H161553   5.667   2.201  12.328  0.3755 -2.3973 -0.4960
13354TIP3    H261554   5.545   2.276  12.280  2.0610  1.4561  1.0227
13355TIP3   OH261555   4.114   1.454  16.225  0.0295 -0.0191  0.1812
13355TIP3    H161556   4.135   1.459  16.318 -1.0929  1.2780  0.3765
13355TIP3    H261557   4.142   1.538  16.189 -0.0374 -0.3030 -0.5555
13356TIP3   OH261558   5.308   1.001  13.721  0.4312 -0.3893 -0.1374
13356TIP3    H161559   5.233   0.961  13.765  1.7284 -1.1940  1.3767
13356TIP3    H261560   5.269   1.066  13.662 -1.4842 -1.2670  0.1193
13357TIP3   OH261561   6.304   6.094   1.916 -0.1567  0.6376  0.2908
13357TIP3    H161562   6.377   6.047   1.877 -0.2782  1.0693 -0.4601
13357TIP3    H261563   6.342   6.175   1.948 -0.1878  0.5849  0.4600
13358TIP3   OH261564   5.521   0.199  14.132 -0.6016  0.2688  0.1844
13358TIP3    H161565   5.431   0.176  14.110 -0.6626 -0.5969  1.3234
13358TIP3    H261566   5.519   0.294  14.146 -1.3202  0.2603  0.1442
13359TIP3   OH261567   0.786   3.083   6.053 -0.2269 -0.5516 -0.4477
13359TIP3    H161568   0.846   3.033   6.109 -0.0531  1.1001  0.9059
13359TIP3    H261569   0.720   3.020   6.025  0.0351 -1.5625  1.1454
13360TIP3   OH261570   1.480   0.828   5.812 -0.4648 -1.3115  0.3458
13360TIP3    H161571   1.436   0.752   5.851  0.0928 -1.2358  1.1482
13360TIP3    H261572   1.570   0.822   5.845  0.0186 -1.2378 -0.9427
13361TIP3   OH261573   6.356   3.331  16.758 -0.9447  0.5300 -0.1784
13361TIP3    H161574   6.335   3.308  16.668 -0.3337 -1.3278  0.1218
13361TIP3    H261575   6.272   3.345  16.800 -1.4406 -2.1739 -0.1667
13362TIP3   OH261576   3.234   1.967  14.442  0.0168 -0.2410  0.3039
13362TIP3    H161577   3.213   1.893  14.384 -0.6672 -0.2746  0.5891
13362TIP3    H261578   3.298   2.018  14.393  1.1547 -1.4824  0.4549
13363TIP3   OH261579   6.703   0.366   3.700  0.0062  0.2281  0.3321
13363TIP3    H161580   6.742   0.327   3.622 -1.5633  0.5972 -0.6626
13363TIP3    H261581   6.765   0.435   3.726  0.6418 -0.0384 -0.4494
13364TIP3   OH261582   0.666   2.398  11.474  0.3089 -0.0137  0.6139
13364TIP3    H161583   0.647   2.460  11.403 -0.5977  0.1913  1.0270
13364TIP3    H261584   0.676   2.314  11.430  2.3133  0.5498 -0.0382
13365TIP3   OH261585   1.228   6.103  11.671 -0.2400 -0.1915 -0.1514
13365TIP3    H161586   1.310   6.094  11.718  0.8278  0.4251 -1.8470
13365TIP3    H261587   1.254   6.123  11.581 -2.2465  2.2806 -0.2405
13366TIP3   OH261588   1.113   4.413   5.360  0.0428  0.1453 -0.3458
13366TIP3    H161589   1.104   4.387   5.268  0.6740  1.8596 -0.9069
13366TIP3    H261590   1.087   4.335   5.409  0.4522 -1.0522 -1.9759
13367TIP3   OH261591   1.353   3.142  14.143 -0.4493  0.3443 -0.2358
13367TIP3    H161592   1.444   3.139  14.115 -0.3357  1.2476  0.0026
13367TIP3    H261593   1.357   3.128  14.238 -0.6778 -0.9752 -0.4212
13368TIP3   OH261594   2.477   6.497  17.041  0.1641 -0.2036  0.6686
13368TIP3    H161595   2.446   6.568  16.985 -0.3423 -0.0634  1.1152
13368TIP3    H261596   2.460   6.417  16.991  1.5968  0.0351 -0.2360
13369TIP3   OH261597   2.547   5.867   2.690 -0.5294  0.2226  0.3665
13369TIP3    H161598   2.509   5.822   2.615  1.3045  0.7311 -0.9050
13369TIP3    H261599   2.600   5.801   2.733  0.5336  0.6059 -0.3299
13370TIP3   OH261600   2.440   6.574   1.199 -0.2720  0.3402 -0.2694
13370TIP3    H161601   2.491   6.640   1.245  0.8324 -1.6305  1.4272
13370TIP3    H261602   2.386   6.623   1.137  0.1925  2.8264  1.2638
13371TIP3   OH261603   0.867   3.261  11.768 -0.3898 -0.4846  0.1392
13371TIP3    H161604   0.785   3.287  11.810 -0.2234  0.1368  0.0735
13371TIP3    H261605   0.923   3.232  11.840 -0.4841 -0.4307  0.2328
13372TIP3   OH261606   0.279   5.905  12.388 -0.4127  1.1436  0.3485
13372TIP3    H161607   0.245   5.874  12.305 -0.3952  0.6328  0.5295
13372TIP3    H261608   0.315   5.827  12.430 -0.4680  1.3857  0.8557
13373TIP3   OH261609   1.758   1.915   1.656  0.5810  0.9832  0.0283
13373TIP3    H161610   1.783   1.983   1.718  0.9046  1.0713 -0.1998
13373TIP3    H261611   1.839   1.890   1.614  0.4045  0.7160 -0.1546
13374TIP3   OH261612   5.453   0.664  11.266 -0.3935  0.4801  0.3799
13374TIP3    H161613   5.464   0.670  11.171 -0.6931 -0.9728  0.2476
13374TIP3    H261614   5.489   0.746  11.299 -0.0586  0.8927 -0.9722
13375TIP3   OH261615   5.500   3.226  14.655  0.4499  0.3508 -0.2234
13375TIP3    H161616   5.509   3.142  14.612  0.5029  1.3263 -2.1729
13375TIP3    H261617   5.451   3.280  14.593 -0.1959  1.5550  1.2851
13376TIP3   OH261618   4.790   5.791   4.878 -0.1634  0.5543 -0.0027
13376TIP3    H161619   4.734   5.796   4.955  0.0964  0.5443  0.1857
13376TIP3    H261620   4.776   5.875   4.834 -3.7417 -1.1450 -2.3473
13377TIP3   OH261621   3.826   6.278  17.236 -0.1018 -0.8460 -0.1999
13377TIP3    H161622   3.880   6.316  17.166 -1.1299 -0.7520 -0.9443
13377TIP3    H261623   3.842   6.334  17.312  0.4568 -0.5278 -0.5480
13378TIP3   OH261624   2.597   6.199  13.310 -0.1987 -0.3863  0.1142
13378TIP3    H161625   2.501   6.199  13.316 -0.1010  0.1335  1.9784
13378TIP3    H261626   2.626   6.235  13.393  1.6604 -1.2924 -0.1220
13379TIP3   OH261627   5.138   0.411   2.963 -0.6196  0.5313  0.1023
13379TIP3    H161628   5.152   0.484   2.902 -1.5283  0.1321 -0.5957
13379TIP3    H261629   5.104   0.341   2.908  3.1337 -1.4897  0.1752
13380TIP3   OH261630   2.599   2.825   6.387 -0.2742 -0.6025 -0.0654
13380TIP3    H161631   2.578   2.888   6.318 -0.0013 -0.4124  0.0211
13380TIP3    H261632   2.515   2.792   6.416 -0.6193  1.7447  1.7896
13381TIP3   OH261633   3.564   5.918  10.645 -0.0531 -0.3216  0.6389
13381TIP3    H161634   3.491   5.856  10.649  0.3571 -0.7414  1.6036
13381TIP3    H261635   3.631   5.873  10.594  1.3930 -1.8902  3.8044
13382TIP3   OH261636   3.390   4.317   3.071  0.4110  0.1892 -0.0717
13382TIP3    H161637   3.455   4.276   3.015  0.0748  0.0821 -0.3868
13382TIP3    H261638   3.354   4.245   3.123  0.8711  0.3216  0.4306
13383TIP3   OH261639   1.452   6.509   5.566  0.0672  0.1423 -1.0728
13383TIP3    H161640   1.482   6.460   5.489  1.9140  0.4038 -0.5375
13383TIP3    H261641   1.476   6.600   5.549  1.7762 -0.0001  0.4088
13384TIP3   OH261642   4.195   5.549  15.707  0.3653  0.0222 -0.6751
13384TIP3    H161643   4.204   5.508  15.621  1.0423 -0.1571 -0.5234
13384TIP3    H261644   4.105   5.581  15.710  0.3249 -0.0308 -1.4231
13385TIP3   OH261645   4.303   1.809  15.217  0.0656 -0.1455 -0.5203
13385TIP3    H161646   4.369   1.821  15.150  0.5556 -0.3728 -0.0819
13385TIP3    H261647   4.268   1.897  15.232 -0.1851 -0.1285 -1.2095
13386TIP3   OH261648   3.432   1.625  12.236 -0.4848 -0.5197  0.5071
13386TIP3    H161649   3.357   1.684  12.233 -0.4488 -0.5479 -2.0073
13386TIP3    H261650   3.458   1.615  12.145  2.3186 -0.8654  1.3087
13387TIP3   OH261651   5.748   4.671   1.135 -0.4816 -0.4165  0.4673
13387TIP3    H161652   5.771   4.729   1.208 -0.1071 -1.3727  1.1211
13387TIP3    H261653   5.830   4.625   1.114 -0.5363 -0.0209 -0.6859
13388TIP3   OH261654   4.856   4.065  11.535  0.0652 -0.1546 -0.3862
13388TIP3    H161655   4.809   4.083  11.616  0.0994  0.7691 -0.5677
13388TIP3    H261656   4.826   4.133  11.474 -0.3029 -1.1102 -1.2834
13389TIP3   OH261657   3.704   3.097  10.675  0.1331 -0.4514  0.4511
13389TIP3    H161658   3.751   3.064  10.751 -0.6474  1.3158  1.7471
13389TIP3    H261659   3.613   3.069  10.689  0.1121 -0.7029 -0.1717
13390TIP3   OH261660   4.134   4.587  12.182  0.2843 -0.6743  1.0433
13390TIP3    H161661   4.060   4.577  12.242 -0.2221 -0.5353  0.4390
13390TIP3    H261662   4.101   4.560  12.097  0.9592 -0.7127  0.7870
13391TIP3   OH261663   4.190   2.567  15.534  0.2722  0.1145 -0.6948
13391TIP3    H161664   4.193   2.648  15.483 -0.7007  1.6929  1.6546
13391TIP3    H261665   4.261   2.576  15.597 -1.3715  0.2594  1.1666
13392TIP3   OH261666   0.648   3.465   1.517 -0.1760 -0.2799  0.3371
13392TIP3    H161667   0.611   3.528   1.455  2.1780  1.0308  0.1901
13392TIP3    H261668   0.583   3.460   1.587 -1.3278  0.7757 -0.6262
13393TIP3   OH261669   1.587   3.236  12.053 -0.0966  1.0773 -0.2086
13393TIP3    H161670   1.496   3.261  12.072 -0.7725 -2.4598  1.6079
13393TIP3    H261671   1.581   3.182  11.974  0.0691 -1.0889  1.2201
13394TIP3   OH261672   1.916   6.484  15.484 -0.1022 -0.3903  0.2665
13394TIP3    H161673   1.888   6.565  15.527  1.5457  1.1310 -1.4835
13394TIP3    H261674   1.872   6.485  15.399  0.3161 -1.1112  0.0373
13395TIP3   OH261675   2.629   3.639   0.037  0.1710  0.2102 -0.1130
13395TIP3    H161676   2.625   3.603  -0.052  0.0483 -0.3761  0.1200
13395TIP3    H261677   2.719   3.670   0.046 -0.1525  1.3797 -0.8610
13396TIP3   OH261678   2.042   5.410  16.654  0.0726 -0.3886 -0.1234
13396TIP3    H161679   2.105   5.482  16.659  0.6756 -1.0618  3.6259
13396TIP3    H261680   2.034   5.390  16.561 -0.0080  4.4037 -1.2478
13397TIP3   OH261681   0.706   4.885   1.764 -0.4356 -0.4938 -0.1776
13397TIP3    H161682   0.708   4.938   1.843 -0.8530 -0.9688  0.1566
13397TIP3    H261683   0.615   4.855   1.758 -1.1147  1.8648 -2.3810
13398TIP3   OH261684   2.392   5.161   6.657  0.1588  0.4610 -0.2407
13398TIP3    H161685   2.421   5.188   6.569  0.6306 -1.0114 -0.5628
13398TIP3    H261686   2.356   5.073   6.643  0.5457  0.0872  1.1016
13399TIP3   OH261687   5.334   6.055   3.220  0.1657  0.1831 -0.1477
13399TIP3    H161688   5.337   5.962   3.243  3.5103 -0.1132 -1.5001
13399TIP3    H261689   5.317   6.056   3.126  0.0264  0.9347 -0.1178
13400TIP3   OH261690   2.295   3.520  16.710 -0.5462  0.3712  0.3043
13400TIP3    H161691   2.254   3.508  16.795 -1.3777 -0.4369 -0.2088
13400TIP3    H261692   2.352   3.444  16.699  1.2710  1.5949  1.1111
13401TIP3   OH261693   1.761   2.107  16.212 -0.1635  0.2934 -0.0502
13401TIP3    H161694   1.675   2.101  16.171  0.1826  0.6663 -0.8500
13401TIP3    H261695   1.758   2.046  16.286 -1.2596  0.6406  0.1915
13402TIP3   OH261696   6.459   1.754  17.212 -0.3333 -0.0306 -0.2423
13402TIP3    H161697   6.451   1.760  17.307 -0.9208 -1.2393 -0.1947
13402TIP3    H261698   6.476   1.843  17.183 -2.4471  0.7332  0.7804
13403TIP3   OH261699   6.281   2.343  15.423 -0.4578  0.6145 -0.0896
13403TIP3    H161700   6.373   2.328  15.401 -0.5473 -1.2506  0.7277
13403TIP3    H261701   6.233   2.284  15.365 -0.8816 -1.7270  2.5509
13404TIP3   OH261702   6.372   0.489   3.630 -0.1504  0.1174  0.1565
13404TIP3    H161703   6.277   0.500   3.633 -0.2064 -0.5388  1.1827
13404TIP3    H261704   6.398   0.523   3.545 -0.9673  2.8227  0.9561
13405TIP3   OH261705   4.059   4.456   0.325 -0.8050  0.1081  0.0549
13405TIP3    H161706   4.148   4.490   0.333 -0.5151 -0.1627 -1.7984
13405TIP3    H261707   4.003   4.534   0.326 -0.3049  0.5319 -1.8747
13406TIP3   OH261708   1.692   1.103  15.760  0.5224 -0.0255 -0.4970
13406TIP3    H161709   1.722   1.159  15.831  0.0880  0.2568 -0.5295
13406TIP3    H261710   1.723   1.146  15.680 -1.1413  1.0317 -0.6099
13407TIP3   OH261711   2.045   3.601   2.061  0.1812 -0.2569 -0.5682
13407TIP3    H161712   2.096   3.679   2.084 -0.0549  0.2011 -1.5796
13407TIP3    H261713   2.109   3.530   2.062  0.6349  0.1430 -0.7573
13408TIP3   OH261714   5.064   3.035  12.084 -0.2654  0.8551  0.0160
13408TIP3    H161715   5.051   3.098  12.013  0.3088  0.8597 -0.0875
13408TIP3    H261716   5.016   2.957  12.056  1.8595  0.0173 -1.4908
13409TIP3   OH261717   0.672   0.790   4.943 -0.2412  0.1908 -0.5881
13409TIP3    H161718   0.736   0.788   5.015 -0.4789 -0.0062 -0.3860
13409TIP3    H261719   0.714   0.741   4.873  0.2594  0.9081 -0.8032
13410TIP3   OH261720   5.709   0.122  14.307  0.0713 -0.3644 -0.1925
13410TIP3    H161721   5.642   0.130  14.240  0.6141  1.0251 -0.5916
13410TIP3    H261722   5.672   0.167  14.383 -0.6359 -2.1296  0.5337
13411TIP3   OH261723   3.159   3.215   1.490 -0.3606  0.9500 -0.4114
13411TIP3    H161724   3.202   3.131   1.476 -5.4011 -1.7027 -1.4019
13411TIP3    H261725   3.135   3.214   1.583  0.5869  1.8720 -0.1450
13412TIP3   OH261726   0.046   2.536   1.864  0.0989  0.3329 -0.1428
13412TIP3    H161727  -0.019   2.481   1.908  0.2792  2.3477  2.7603
13412TIP3    H261728   0.126   2.484   1.864 -0.5286 -0.6380 -0.2526
13413TIP3   OH261729   3.717   0.775  14.217  0.4029 -0.3102 -0.5160
13413TIP3    H161730   3.805   0.743  14.193  0.6237  0.1061 -0.2716
13413TIP3    H261731   3.675   0.794  14.133  0.9982  0.6751 -0.5968
13414TIP3   OH261732   4.119   5.404  16.133 -0.4160  0.0378  0.1229
13414TIP3    H161733   4.071   5.483  16.110  0.6782  1.2766  1.9880
13414TIP3    H261734   4.182   5.392  16.061  1.1964  2.3685  1.0908
13415TIP3   OH261735   4.046   5.214   3.522 -0.1176 -0.1247 -0.0125
13415TIP3    H161736   4.070   5.306   3.536 -2.9707  0.4343  1.6575
13415TIP3    H261737   4.064   5.172   3.606 -0.1330 -0.7820 -0.3405
13416TIP3   OH261738   6.025   3.641  15.525  0.1645  0.7123 -0.1957
13416TIP3    H161739   6.069   3.572  15.474  0.8425  0.8352  0.2143
13416TIP3    H261740   5.953   3.670  15.469  0.5011  0.3838 -0.8068
13417TIP3   OH261741   5.150   4.234  16.649  0.2522  0.4992  0.0599
13417TIP3    H161742   5.173   4.151  16.607 -1.9358  0.1378 -0.4935
13417TIP3    H261743   5.216   4.296  16.619  0.7405 -0.5865 -1.1185
13418TIP3   OH261744   4.983   6.373   2.583 -0.2361 -0.1273 -0.4367
13418TIP3    H161745   4.938   6.434   2.641  1.4485  0.4884  0.2529
13418TIP3    H261746   5.036   6.318   2.642 -0.4090 -1.1111 -1.1859
13419TIP3   OH261747   1.976   4.712  12.128 -0.3415 -0.0547  0.2674
13419TIP3    H161748   1.887   4.747  12.122 -0.2823 -0.4149 -4.6385
13419TIP3    H261749   2.031   4.778  12.087  0.6038 -2.7690 -3.1631
13420TIP3   OH261750   3.232   4.369  12.142  0.5831  0.0057  0.1704
13420TIP3    H161751   3.319   4.371  12.183  1.1775  0.0296 -1.0674
13420TIP3    H261752   3.189   4.294  12.183  0.2545  1.4459  2.6100
13421TIP3   OH261753   6.194   1.583  15.153 -0.0411 -0.2031  0.0491
13421TIP3    H161754   6.227   1.672  15.163  0.0063 -0.0784 -1.1055
13421TIP3    H261755   6.134   1.588  15.078 -0.4861 -1.0141  0.3487
13422TIP3   OH261756   4.204   6.724   4.192  0.4676  0.8447  0.5143
13422TIP3    H161757   4.208   6.812   4.154 -0.5540 -0.5294 -2.9776
13422TIP3    H261758   4.290   6.711   4.232  0.4335  3.6200  1.5644
13423TIP3   OH261759   0.824   2.437   5.090  0.3111  0.1902  0.4847
13423TIP3    H161760   0.879   2.479   5.025 -1.1337  1.9213  0.3323
13423TIP3    H261761   0.778   2.509   5.133 -1.1890 -1.1339  1.1770
13424TIP3   OH261762   0.325   3.563  12.598  0.1924 -0.6037  0.2714
13424TIP3    H161763   0.328   3.582  12.692 -0.8893  2.9436 -0.3296
13424TIP3    H261764   0.412   3.587  12.566 -0.1649  0.4239  0.0342
13425TIP3   OH261765   5.843   6.386  13.889 -0.4236 -0.2796  0.4638
13425TIP3    H161766   5.876   6.313  13.837 -0.4660 -1.4248  2.0160
13425TIP3    H261767   5.748   6.381  13.879 -0.3703  0.3099 -0.4006
13426TIP3   OH261768   1.326   5.401   4.403 -0.2803 -0.6129 -0.2436
13426TIP3    H161769   1.344   5.468   4.337 -0.9704  0.2884  0.4725
13426TIP3    H261770   1.318   5.320   4.353  0.8728 -0.2203 -1.0859
13427TIP3   OH261771   5.689   1.490   6.091 -0.5694 -0.2781 -0.0397
13427TIP3    H161772   5.709   1.398   6.073 -4.8221 -1.2373 -0.4152
13427TIP3    H261773   5.708   1.501   6.184  1.6314 -0.9951 -0.3627
13428TIP3   OH261774   3.440   3.427  13.908 -0.0073 -0.6476  0.6264
13428TIP3    H161775   3.370   3.388  13.960 -1.5463 -0.9384 -1.5873
13428TIP3    H261776   3.495   3.352  13.883  0.3031 -0.6084  1.1825
13429TIP3   OH261777   4.490   2.429   4.396  0.2404 -0.2770  0.3659
13429TIP3    H161778   4.581   2.413   4.374  0.3077 -0.3736  0.7260
13429TIP3    H261779   4.476   2.521   4.373  0.0081 -0.6792 -1.1346
13430TIP3   OH261780   4.840   0.975  13.270  0.4723  0.4069  0.2175
13430TIP3    H161781   4.923   1.006  13.234  0.8949 -1.2110 -0.2413
13430TIP3    H261782   4.774   1.027  13.224  1.0470 -1.0549 -2.3318
13431TIP3   OH261783   0.648   6.325  12.031 -0.1140  0.1732 -0.5698
13431TIP3    H161784   0.702   6.402  12.013  1.4485 -0.9819 -0.9185
13431TIP3    H261785   0.563   6.346  11.992  1.2104  0.4581 -3.4565
13432TIP3   OH261786   6.444   2.014  16.334  0.0867 -0.0308 -0.3248
13432TIP3    H161787   6.500   1.945  16.369 -0.9167 -0.2121  0.9859
13432TIP3    H261788   6.421   1.985  16.246  1.2158 -0.4454 -0.4898
13433TIP3   OH261789   6.789   3.967  11.377 -0.5773  0.0255  0.6917
13433TIP3    H161790   6.761   4.027  11.308  0.4185  0.1441  0.3880
13433TIP3    H261791   6.879   3.993  11.397 -0.5146 -0.6566  1.3291
13434TIP3   OH261792   3.767   1.025   4.623  0.0339  0.3042  0.0962
13434TIP3    H161793   3.824   1.102   4.622  1.3604 -0.5388  3.4564
13434TIP3    H261794   3.690   1.054   4.672  0.1731 -0.2102  0.6327
13435TIP3   OH261795   4.483   1.009   4.927  0.0020  0.5861 -0.2902
13435TIP3    H161796   4.465   1.080   4.865 -0.5049  0.5752 -0.1591
13435TIP3    H261797   4.535   1.051   4.996 -0.6774  0.9441  0.0161
13436TIP3   OH261798   2.961   0.062  11.727  0.5785 -0.2012 -0.5338
13436TIP3    H161799   2.912   0.102  11.799 -1.9785 -1.7296 -1.3983
13436TIP3    H261800   2.906   0.075  11.650  0.4603 -3.8770 -1.1363
13437TIP3   OH261801   3.295   1.266  13.273 -0.1639  0.1565  0.4950
13437TIP3    H161802   3.272   1.300  13.187 -0.6352  0.3813  0.7092
13437TIP3    H261803   3.368   1.206  13.256 -0.9561 -0.6234 -0.1972
13438TIP3   OH261804   0.435   0.643   3.172  0.1992  0.1295  0.3815
13438TIP3    H161805   0.423   0.599   3.088 -0.1231 -0.3408  0.6770
13438TIP3    H261806   0.368   0.712   3.173 -0.7307 -0.7867  0.8790
13439TIP3   OH261807   2.245   6.629   2.389  0.1907 -0.4051 -0.0509
13439TIP3    H161808   2.339   6.649   2.389 -0.0128  0.5888 -0.5549
13439TIP3    H261809   2.216   6.652   2.478  0.3252 -0.2467 -0.0474
13440TIP3   OH261810   3.644   5.780  16.583 -0.7495 -0.5078 -0.2221
13440TIP3    H161811   3.708   5.772  16.513 -1.4284 -1.0221 -0.7961
13440TIP3    H261812   3.693   5.759  16.663  0.0352  0.1314 -0.5266
13441TIP3   OH261813   3.241   5.282  15.092  0.1931 -0.3534 -0.3940
13441TIP3    H161814   3.333   5.260  15.081  0.6787  0.8691  1.0335
13441TIP3    H261815   3.223   5.343  15.020  0.9390  0.6009  0.1986
13442TIP3   OH261816   3.686   6.578   4.635 -0.1123 -0.4580 -0.0200
13442TIP3    H161817   3.665   6.559   4.543 -0.7658 -1.5984  0.3551
13442TIP3    H261818   3.725   6.665   4.633  1.8035 -1.3132 -1.6490
13443TIP3   OH261819   2.360   4.624  15.981  0.1561 -0.0404  0.0570
13443TIP3    H161820   2.441   4.658  15.944 -0.5795  0.3498 -1.2132
13443TIP3    H261821   2.387   4.576  16.059  1.6274 -0.0534 -0.4586
13444TIP3   OH261822   1.848   3.905   2.118  0.7400 -0.1831  0.0898
13444TIP3    H161823   1.856   3.909   2.022 -1.4699 -0.0475 -0.1132
13444TIP3    H261824   1.824   3.814   2.136  1.4913 -0.2932  0.5550
13445TIP3   OH261825   5.657   1.213   0.470  0.2943 -0.1234  0.1193
13445TIP3    H161826   5.668   1.217   0.565  2.2460  0.5898 -0.1221
13445TIP3    H261827   5.743   1.189   0.436  0.6979  3.5499 -1.7288
13446TIP3   OH261828   1.086   0.635  14.881  0.0652  0.6144 -0.3914
13446TIP3    H161829   1.094   0.546  14.849 -1.7282  0.3657 -0.1966
13446TIP3    H261830   1.112   0.690  14.807 -1.1906 -0.0211 -1.3166
13447TIP3   OH261831   5.692   5.158  16.470 -0.5272 -0.0354 -0.2546
13447TIP3    H161832   5.680   5.066  16.495  1.9153 -0.4575 -0.5164
13447TIP3    H261833   5.610   5.182  16.428 -2.4178 -1.1340  2.6152
13448TIP3   OH261834   2.972   3.005   4.583 -0.1752 -0.5934 -0.5113
13448TIP3    H161835   3.050   3.022   4.636 -0.2365  0.3380 -0.7211
13448TIP3    H261836   2.913   2.958   4.642  0.4237 -1.0605 -0.2664
13449TIP3   OH261837   2.261   6.613   4.460  0.2541  0.6265  0.4273
13449TIP3    H161838   2.248   6.641   4.551 -0.4375  1.0298  0.2010
13449TIP3    H261839   2.199   6.541   4.448  0.7997  0.1357  0.4629
13450TIP3   OH261840   6.517   1.890  13.382  0.0080  0.2720  0.1001
13450TIP3    H161841   6.525   1.816  13.442  0.3307  1.1395  1.1316
13450TIP3    H261842   6.536   1.967  13.435 -1.3206  1.1938 -0.7253
13451TIP3   OH261843   3.882   4.599   3.355  0.3671  0.0227  0.4589
13451TIP3    H161844   3.860   4.509   3.381  1.1469 -0.5858 -0.9202
13451TIP3    H261845   3.799   4.645   3.356 -0.8480 -1.8840 -3.2774
13452TIP3   OH261846   2.623   0.494   0.022  0.1033 -0.1605  0.1640
13452TIP3    H161847   2.604   0.534   0.107 -0.4768 -0.0504 -0.0156
13452TIP3    H261848   2.617   0.399   0.038  0.7064 -0.1588  0.4093
13453TIP3   OH261849   2.995   0.662  17.285  0.4976 -0.4342  0.1257
13453TIP3    H161850   2.966   0.654  17.195 -0.0058  0.1657  0.2273
13453TIP3    H261851   3.079   0.709  17.279  0.2368  0.0206 -0.0026
13454TIP3   OH261852   5.632   5.255  11.092  0.0762  0.5071  0.2443
13454TIP3    H161853   5.595   5.273  11.178 -0.4309  1.6553 -0.2123
13454TIP3    H261854   5.642   5.341  11.051  0.2479 -0.0342 -0.8695
13455TIP3   OH261855   3.091   5.742  12.855  0.1788 -0.0700 -0.3476
13455TIP3    H161856   3.070   5.832  12.882  2.1841 -0.1385  1.6497
13455TIP3    H261857   3.123   5.751  12.765 -0.7680  1.0575 -0.5849
13456TIP3   OH261858   6.763   2.697   5.120  0.5080  0.3727 -0.0205
13456TIP3    H161859   6.685   2.673   5.171 -0.6234  2.3965 -0.7209
13456TIP3    H261860   6.816   2.617   5.118 -0.4819 -0.3992  2.3745
13457TIP3   OH261861   4.823   2.226  16.793 -1.0428  0.0915  0.0996
13457TIP3    H161862   4.848   2.302  16.845 -1.0156  0.2068 -0.0823
13457TIP3    H261863   4.845   2.151  16.849 -1.7182  0.2333  0.5531
13458TIP3   OH261864   1.511   0.731   2.473  0.0746  0.1161 -0.6219
13458TIP3    H161865   1.442   0.783   2.515 -0.4025 -0.7859 -0.2978
13458TIP3    H261866   1.474   0.644   2.464  1.1627 -0.3717 -0.4716
13459TIP3   OH261867   1.075   6.005   5.784 -0.3074  0.0613  0.4937
13459TIP3    H161868   1.160   5.976   5.752 -0.8174  1.1461 -1.9934
13459TIP3    H261869   1.052   5.942   5.852  2.6442 -0.0085  1.4789
13460TIP3   OH261870   2.826   1.736  14.208 -0.1970 -0.3002  0.5493
13460TIP3    H161871   2.775   1.667  14.166 -0.2859 -0.3455  0.7375
13460TIP3    H261872   2.764   1.781  14.265 -0.1433 -0.0569  0.4205
13461TIP3   OH261873   2.258   2.802  11.267 -0.5942  0.1006 -0.2520
13461TIP3    H161874   2.183   2.774  11.213 -0.9665 -3.7962  2.0949
13461TIP3    H261875   2.334   2.781  11.213 -1.0774 -0.4144 -0.7498
13462TIP3   OH261876   2.880   1.544  12.506  0.6121 -0.0083  0.3255
13462TIP3    H161877   2.810   1.540  12.571  0.1187  0.1150 -0.1922
13462TIP3    H261878   2.879   1.635  12.475  0.5761 -0.1633 -0.1358
13463TIP3   OH261879   2.166   6.442   6.229  0.1271  0.0625  0.1127
13463TIP3    H161880   2.093   6.381   6.223  0.4009 -0.2238 -0.3590
13463TIP3    H261881   2.221   6.405   6.298  0.3214 -0.2601 -0.2114
13464TIP3   OH261882   1.609   3.041  11.882  0.0611 -0.3558 -0.1158
13464TIP3    H161883   1.599   3.067  11.790  2.0506 -0.2991 -0.3304
13464TIP3    H261884   1.530   2.990  11.900 -0.9178  0.6103 -1.5053
13465TIP3   OH261885   3.637   6.358  15.464 -0.5768 -0.1727 -0.0621
13465TIP3    H161886   3.541   6.355  15.457 -0.4884 -0.8398 -0.9027
13465TIP3    H261887   3.662   6.271  15.495 -0.2656  0.1070  0.4831
13466TIP3   OH261888   2.133   3.571   3.490 -0.0523  0.2541  0.3393
13466TIP3    H161889   2.226   3.551   3.481 -0.3536 -0.0635 -2.5998
13466TIP3    H261890   2.128   3.666   3.479 -0.1819  0.1327 -0.7085
13467TIP3   OH261891   5.466   2.589   4.663  0.1718  0.5030 -0.2482
13467TIP3    H161892   5.481   2.601   4.570 -1.3812 -1.6399 -0.8273
13467TIP3    H261893   5.440   2.675   4.695  0.2472  1.1526 -1.8932
13468TIP3   OH261894   0.837   1.041  14.304 -0.0998 -0.3545  0.0539
13468TIP3    H161895   0.930   1.024  14.318 -0.0792  0.0046  0.3420
13468TIP3    H261896   0.821   1.016  14.213  0.0249 -1.5475  0.3466
13469TIP3   OH261897   2.118   3.483  15.595  0.0745  0.1381 -0.0102
13469TIP3    H161898   2.179   3.534  15.543 -0.7475  0.4735 -0.6610
13469TIP3    H261899   2.132   3.392  15.568 -2.4287  0.5731 -3.0730
13470TIP3   OH261900   4.909   2.053  10.788 -0.2497  0.3511  0.4884
13470TIP3    H161901   4.982   2.006  10.829  1.6024  0.8340 -2.1273
13470TIP3    H261902   4.833   1.996  10.802  1.4688 -2.2467 -0.4037
13471TIP3   OH261903   3.351   0.498  11.079 -0.4101 -0.4850  1.0061
13471TIP3    H161904   3.445   0.502  11.060 -0.8447  2.1673 -0.8071
13471TIP3    H261905   3.343   0.520  11.172  0.5691  2.0220  0.5183
13472TIP3   OH261906   4.120   3.500  12.544  0.2544 -0.2913  0.0798
13472TIP3    H161907   4.032   3.523  12.575  1.1844  1.3248  1.5829
13472TIP3    H261908   4.115   3.406  12.527 -1.9460 -0.1090 -0.4912
13473TIP3   OH261909   0.453   0.112   1.233  0.4022 -0.4512  0.0255
13473TIP3    H161910   0.366   0.075   1.244  0.0132 -0.2036 -2.0378
13473TIP3    H261911   0.508   0.061   1.293 -1.2313 -0.2364  1.7585
13474TIP3   OH261912   1.572   2.069   4.539 -0.2036  0.5254 -0.0761
13474TIP3    H161913   1.497   2.009   4.537  0.4399 -0.3021  0.4631
13474TIP3    H261914   1.642   2.019   4.579  0.5029  1.4713 -0.1072
13475TIP3   OH261915   2.257   1.474  15.346  0.6762  0.1499 -0.5198
13475TIP3    H161916   2.291   1.532  15.278 -0.4251  1.2569 -0.1450
13475TIP3    H261917   2.309   1.494  15.424  1.7406 -0.9103 -0.9463
13476TIP3   OH261918   5.059   1.124   1.598  0.4127 -0.3176 -0.2702
13476TIP3    H161919   5.119   1.058   1.565 -0.3839 -1.6483  0.8853
13476TIP3    H261920   5.115   1.198   1.623  1.7175 -1.9294  1.7856
13477TIP3   OH261921   5.178   6.759   1.422 -0.1144  0.4423  1.0509
13477TIP3    H161922   5.188   6.848   1.455 -0.7535  0.6745  0.6187
13477TIP3    H261923   5.199   6.704   1.498  0.1132  0.9543  1.3689
13478TIP3   OH261924   1.639   5.481  13.981 -0.2292  0.2275 -0.7668
13478TIP3    H161925   1.700   5.417  14.017  0.9047  0.8397 -1.5625
13478TIP3    H261926   1.571   5.428  13.939 -0.7445 -0.4617  0.8999
13479TIP3   OH261927   3.595   0.297  12.679  0.5344  0.6432  0.5989
13479TIP3    H161928   3.565   0.308  12.588 -0.3515  1.7702  1.0118
13479TIP3    H261929   3.645   0.377  12.697  0.8183  0.3578  1.0549
13480TIP3   OH261930   1.287   2.989   6.556 -0.0048  0.0385 -0.0709
13480TIP3    H161931   1.215   2.927   6.543  0.0343 -0.1295  0.5178
13480TIP3    H261932   1.341   2.950   6.625  1.2202 -0.3383 -1.2230
13481TIP3   OH261933   3.844   6.593  15.028 -0.0078 -1.1096 -0.4034
13481TIP3    H161934   3.840   6.568  15.121  5.1943  0.2250  0.3498
13481TIP3    H261935   3.848   6.510  14.981  0.7351 -1.8113  0.8554
13482TIP3   OH261936   5.713   1.796   5.491  0.1896 -0.7761  0.0510
13482TIP3    H161937   5.794   1.810   5.441  1.3250 -1.2305  1.7061
13482TIP3    H261938   5.733   1.722   5.549 -1.9016 -1.8296 -0.5095
13483TIP3   OH261939   3.827   4.363  15.878 -0.2306  0.2964  0.0218
13483TIP3    H161940   3.783   4.437  15.920 -0.8890 -0.0422 -0.0618
13483TIP3    H261941   3.907   4.350  15.930 -1.5743 -0.8375  1.8853
13484TIP3   OH261942   1.220   5.715  15.580 -0.3830  0.0553 -0.2506
13484TIP3    H161943   1.303   5.673  15.602 -0.6201  0.0654  0.6817
13484TIP3    H261944   1.158   5.642  15.572 -0.3035  0.0558 -0.8370
13485TIP3   OH261945   2.001   4.676   5.427  0.4045  0.3938  0.0542
13485TIP3    H161946   2.030   4.766   5.410  0.0890  0.4990  0.0527
13485TIP3    H261947   2.030   4.656   5.515  2.8595 -0.4808 -0.9117
13486TIP3   OH261948   3.458   3.360   5.269  0.9088 -0.2919  0.0285
13486TIP3    H161949   3.533   3.383   5.324  2.3821 -0.5848 -1.8076
13486TIP3    H261950   3.412   3.443   5.254  2.1278  0.2714 -0.6510
13487TIP3   OH261951   1.234   1.714  12.747  0.1818  0.1709 -0.7803
13487TIP3    H161952   1.148   1.714  12.705 -0.6664 -0.7098  0.8893
13487TIP3    H261953   1.295   1.694  12.676 -1.2799 -1.9494 -1.5200
13488TIP3   OH261954   2.105   0.288  11.117 -0.5310  0.0054 -0.1817
13488TIP3    H161955   2.073   0.377  11.098  0.7232  0.3734 -0.5667
13488TIP3    H261956   2.148   0.297  11.203 -0.0742 -0.1510 -0.3959
13489TIP3   OH261957   3.059   3.639   2.102 -0.0534  0.1569 -0.2533
13489TIP3    H161958   2.992   3.571   2.099 -0.5975  0.6179  1.1025
13489TIP3    H261959   3.102   3.626   2.187  0.3708  1.0033 -0.3314
13490TIP3   OH261960   6.053   3.096   0.069 -0.4856 -0.2070 -0.0323
13490TIP3    H161961   5.960   3.112   0.057 -0.6494 -0.7487  0.5159
13490TIP3    H261962   6.060   3.002   0.085  0.2053 -0.2539 -0.5605
13491TIP3   OH261963   3.556   3.227   5.997 -0.0745  0.0191 -0.2818
13491TIP3    H161964   3.615   3.193   6.064  0.1000  0.6467 -0.1136
13491TIP3    H261965   3.491   3.278   6.046 -0.1238  0.2274 -0.5611
13492TIP3   OH261966   3.330   2.110   1.528 -0.2740 -0.0172  0.7489
13492TIP3    H161967   3.297   2.106   1.439  0.6746 -2.7186  0.4727
13492TIP3    H261968   3.425   2.124   1.518 -0.5477  2.5468  1.4160
13493TIP3   OH261969   5.645   4.737  14.447 -0.0506  0.2122 -0.6060
13493TIP3    H161970   5.565   4.787  14.432 -0.9033 -0.4720  1.4745
13493TIP3    H261971   5.616   4.646  14.452  0.6137  0.1125  1.8252
13494TIP3   OH261972   4.713   4.649  11.515 -0.5530  0.8732 -0.3300
13494TIP3    H161973   4.735   4.593  11.441  0.4637  2.4151 -1.2102
13494TIP3    H261974   4.764   4.729  11.501 -0.6440  1.3353  1.8242
13495TIP3   OH261975   5.128   3.114  16.494 -0.6486 -0.3366  0.7261
13495TIP3    H161976   5.036   3.098  16.515 -0.4464 -0.3399  1.6279
13495TIP3    H261977   5.176   3.058  16.554 -0.0693 -0.8699 -0.2366
13496TIP3   OH261978   4.085   5.550  16.396  0.7067  0.0897  0.0515
13496TIP3    H161979   4.157   5.606  16.370  1.2006 -0.7546 -0.4309
13496TIP3    H261980   4.085   5.479  16.332 -2.3268  1.5353 -1.6265
13497TIP3   OH261981   3.368   3.918   0.454  0.1772 -0.3666  0.2491
13497TIP3    H161982   3.400   3.829   0.467  0.3403 -0.0898  1.8995
13497TIP3    H261983   3.277   3.907   0.427 -0.4789 -1.0196  2.5781
13498TIP3   OH261984   1.845   4.707   1.598  0.0314 -0.2623  0.2737
13498TIP3    H161985   1.829   4.615   1.574 -0.3024 -0.3169  0.6984
13498TIP3    H261986   1.772   4.730   1.655 -0.5978  0.6736 -0.8925
13499TIP3   OH261987   5.464   5.309  16.120  0.2349 -0.0545  0.6277
13499TIP3    H161988   5.369   5.315  16.131  0.3009 -0.3905  1.3745
13499TIP3    H261989   5.481   5.216  16.104  0.2703  0.2399 -1.1381
13500TIP3   OH261990   6.035   4.081  11.127 -0.2804 -0.2968  0.3837
13500TIP3    H161991   5.943   4.062  11.145 -0.6579  0.3511 -0.7739
13500TIP3    H261992   6.033   4.138  11.050  1.1290 -0.9175 -0.1405
13501TIP3   OH261993   5.254   2.401   6.210 -0.2709 -0.0445  0.5259
13501TIP3    H161994   5.339   2.444   6.223  0.7905 -1.9098 -0.0639
13501TIP3    H261995   5.214   2.402   6.297  1.5261 -1.5495  1.4022
13502TIP3   OH261996   2.567   3.772   3.053  0.2945  0.2276 -0.7293
13502TIP3    H161997   2.567   3.760   2.958 -1.3693 -0.4687 -0.6605
13502TIP3    H261998   2.574   3.684   3.089  0.8700  0.4856 -0.1930
13503TIP3   OH261999   4.120   5.923  15.743 -0.5440 -0.6572 -0.0246
13503TIP3    H162000   4.115   5.998  15.683  1.2772 -1.3395 -1.0869
13503TIP3    H262001   4.064   5.857  15.703 -1.3350 -0.2282  0.3691
13504TIP3   OH262002   2.331   3.514   0.703  0.3565 -0.6470 -0.1395
13504TIP3    H162003   2.305   3.491   0.792 -1.5444 -1.1901 -0.8067
13504TIP3    H262004   2.291   3.599   0.687  2.4486  0.4336  0.2399
13505TIP3   OH262005   0.616   3.699  13.438 -0.0034 -0.2672 -0.0328
13505TIP3    H162006   0.671   3.703  13.517 -1.5086 -1.7432  1.1235
13505TIP3    H262007   0.625   3.609  13.407 -0.4713 -0.0590 -0.7932
13506TIP3   OH262008   6.683   2.643   2.772 -0.6497  0.2853  0.2730
13506TIP3    H162009   6.598   2.629   2.815 -1.3091  1.8378 -0.4802
13506TIP3    H262010   6.729   2.705   2.829 -0.8907  1.1052 -0.4052
13507TIP3   OH262011   1.458   3.598   4.963 -0.3172 -0.0992 -0.1141
13507TIP3    H162012   1.437   3.593   4.869  0.2332  1.4888 -0.3343
13507TIP3    H262013   1.391   3.655   5.000  1.6395  2.3952 -0.2534
13508TIP3   OH262014   6.677   3.264  12.218 -0.0079 -0.1864 -0.4439
13508TIP3    H162015   6.657   3.333  12.155  0.7624 -1.5874 -2.2257
13508TIP3    H262016   6.736   3.305  12.281 -1.6123  1.5134  0.0021
13509TIP3   OH262017   0.994   4.225   3.267 -0.5604 -0.5405 -0.1261
13509TIP3    H162018   1.075   4.178   3.286 -0.8275 -0.7319  0.5532
13509TIP3    H262019   0.950   4.171   3.202  0.9506  0.7663 -2.2837
13510TIP3   OH262020   6.672   4.801   4.052  0.4884 -0.3664 -0.0072
13510TIP3    H162021   6.654   4.737   3.982  0.1583  0.9693 -1.1657
13510TIP3    H262022   6.677   4.748   4.132 -1.0587 -1.6926 -0.7555
13511TIP3   OH262023   5.216   3.375   4.752 -0.1879  0.4611  0.8031
13511TIP3    H162024   5.124   3.395   4.730 -0.6784  0.1944  2.5287
13511TIP3    H262025   5.265   3.452   4.722 -0.0350 -1.9102 -5.8938
13512TIP3   OH262026   3.782   6.439  14.061  0.0073 -0.0673 -0.3743
13512TIP3    H162027   3.734   6.521  14.073 -0.3709 -0.5820  1.9000
13512TIP3    H262028   3.716   6.370  14.075  0.8170 -0.7556  0.1430
13513TIP3   OH262029   3.955   5.885  15.404 -1.0095 -0.2671  0.2158
13513TIP3    H162030   4.023   5.952  15.393 -2.5241  1.2139 -0.3039
13513TIP3    H262031   3.902   5.891  15.325 -2.5578 -0.4502  1.2134
13514TIP3   OH262032   2.265   2.424  15.647 -0.5980  0.1604 -0.1412
13514TIP3    H162033   2.306   2.346  15.686 -0.7342  0.9599  1.6733
13514TIP3    H262034   2.177   2.427  15.685 -1.2266  0.2356 -1.5627
13515TIP3   OH262035   5.343   3.113  16.295 -0.2414  0.3003 -0.0825
13515TIP3    H162036   5.366   3.195  16.252  1.0676  0.1987  0.4074
13515TIP3    H262037   5.260   3.131  16.340 -0.7209  0.9098 -1.2003
13516TIP3   OH262038   6.572   5.389   0.666  0.2537 -0.4984 -0.0394
13516TIP3    H162039   6.551   5.319   0.604  1.0517 -2.7918  2.2050
13516TIP3    H262040   6.659   5.419   0.640 -0.0062 -0.4594 -0.8926
13517TIP3   OH262041   4.856   2.563  13.499  0.0229 -0.5837 -0.0957
13517TIP3    H162042   4.806   2.644  13.500  1.4693  0.3559 -1.8901
13517TIP3    H262043   4.870   2.542  13.592 -0.1311  1.3578  0.3705
13518TIP3   OH262044   0.516   1.516  15.916 -0.6330  0.0196 -0.5863
13518TIP3    H162045   0.481   1.568  15.988  0.5110  1.7055 -1.2098
13518TIP3    H262046   0.535   1.430  15.954  0.0440  0.9260  1.1514
13519TIP3   OH262047   6.046   5.747  14.113 -0.2090  0.3407  0.7562
13519TIP3    H162048   5.978   5.699  14.066  0.4676  0.5370 -0.4200
13519TIP3    H262049   6.056   5.699  14.196 -1.7743  0.3103  0.9398
13520TIP3   OH262050   0.643   3.507   6.485  0.2376 -0.3553 -0.5136
13520TIP3    H162051   0.679   3.474   6.403  0.5528 -0.0095 -0.5167
13520TIP3    H262052   0.554   3.472   6.488  0.1002 -0.0744 -1.1750
13521TIP3   OH262053   1.591   3.880  12.787  0.4490  0.0175 -0.8083
13521TIP3    H162054   1.642   3.802  12.768  0.1984 -0.3756  0.0707
13521TIP3    H262055   1.653   3.940  12.829  0.4985  0.0403 -0.9159
13522TIP3   OH262056   0.451   2.741   2.927 -0.0738 -0.7049  0.3567
13522TIP3    H162057   0.510   2.666   2.919 -0.1077 -0.5645 -1.3056
13522TIP3    H262058   0.393   2.718   3.000  0.5031 -1.8853  0.4555
13523TIP3   OH262059   5.923   2.373   1.163  0.0050  0.4934 -0.0777
13523TIP3    H162060   5.860   2.440   1.138 -0.8498 -0.6261 -1.0042
13523TIP3    H262061   5.919   2.370   1.259 -1.3067  0.4848 -0.1252
13524TIP3   OH262062   2.805   3.085   4.288 -0.1185 -0.3967 -0.0789
13524TIP3    H162063   2.883   3.113   4.336 -0.6870  0.2173  0.4971
13524TIP3    H262064   2.733   3.098   4.350 -0.5453 -2.0135 -0.2149
13525TIP3   OH262065   4.297   6.279   2.452  0.4153 -0.0749 -0.3923
13525TIP3    H162066   4.286   6.349   2.388  1.1482  0.6317  0.2432
13525TIP3    H262067   4.333   6.206   2.402  3.0994  1.1863 -0.3953
13526TIP3   OH262068   0.738   1.253   2.755  0.3402  0.1553 -0.4106
13526TIP3    H162069   0.738   1.347   2.776 -1.0392  0.1136 -0.1365
13526TIP3    H262070   0.805   1.216   2.811 -0.4432  0.6957  0.9158
13527TIP3   OH262071   0.517   6.451  13.869 -0.1310  0.3379  0.1940
13527TIP3    H162072   0.558   6.455  13.955  1.8917 -0.5908 -0.6797
13527TIP3    H262073   0.519   6.358  13.846  0.4698  0.7005 -1.3342
13528TIP3   OH262074   5.028   6.197  15.889  0.2240 -0.0016  0.0467
13528TIP3    H162075   5.090   6.139  15.847  0.9217  0.0272  1.0108
13528TIP3    H262076   5.029   6.277  15.836  0.5718 -0.2152 -0.2703
13529TIP3   OH262077   1.730   2.955  14.221 -0.6680 -0.2546 -0.5429
13529TIP3    H162078   1.793   2.883  14.228 -0.4232 -0.0610 -0.7130
13529TIP3    H262079   1.739   2.986  14.131 -0.1382  0.5569 -0.2176
13530TIP3   OH262080   5.291   4.066   5.230  0.2770  0.0456 -0.3154
13530TIP3    H162081   5.339   4.146   5.208 -0.6135  0.1789 -1.8952
13530TIP3    H262082   5.203   4.081   5.195 -0.0388 -1.4293 -0.1798
13531TIP3   OH262083   5.767   1.509   6.362  0.8916 -0.2214 -0.0250
13531TIP3    H162084   5.823   1.582   6.388  0.9845  0.9555 -3.2627
13531TIP3    H262085   5.708   1.495   6.436 -0.2219  4.2795  0.0470
13532TIP3   OH262086   6.034   1.145  14.460  0.2311 -0.5472  0.4635
13532TIP3    H162087   5.996   1.129  14.374 -0.0232 -0.0657  0.4827
13532TIP3    H262088   6.092   1.221  14.448 -0.3547 -0.0227  0.8612
13533TIP3   OH262089   3.065   4.033   4.451  0.6610 -0.3156  0.4128
13533TIP3    H162090   2.995   3.992   4.502  0.4546  1.0208  1.2400
13533TIP3    H262091   3.145   3.992   4.482  0.1988 -2.3835 -1.0601
13534TIP3   OH262092   2.448   0.397   4.423  0.0486 -0.3100  0.2754
13534TIP3    H162093   2.460   0.455   4.348  1.1549 -1.1269 -0.1971
13534TIP3    H262094   2.388   0.329   4.392  1.8464 -1.6178 -0.4574
13535TIP3   OH262095   6.042   0.021  15.531 -0.0491 -0.2237  0.7939
13535TIP3    H162096   6.095  -0.059  15.525 -0.7811 -0.6087 -0.7130
13535TIP3    H262097   6.075   0.077  15.461 -1.4768 -0.3656  0.0050
13536TIP3   OH262098   5.385   3.391   1.351 -0.2753  0.1561  0.4989
13536TIP3    H162099   5.341   3.413   1.269 -0.7841 -4.0642 -0.4668
13536TIP3    H262100   5.318   3.349   1.404  1.0404 -0.7223  1.4908
13537TIP3   OH262101   4.327   2.776  15.901 -0.1136 -0.2630  0.4551
13537TIP3    H162102   4.242   2.820  15.900 -0.4316 -0.8718 -1.1026
13537TIP3    H262103   4.389   2.846  15.923 -0.7982  0.6184 -0.3631
13538TIP3   OH262104   2.091   4.309  14.869  0.1347 -0.1121  0.4291
13538TIP3    H162105   2.112   4.354  14.787  0.9706 -1.9113 -0.3755
13538TIP3    H262106   2.166   4.326  14.925 -0.1751  0.6341  0.6255
13539TIP3   OH262107   1.599   2.066  11.260  0.1297 -0.1054 -0.3948
13539TIP3    H162108   1.637   2.051  11.174  1.2529  0.6847 -0.0582
13539TIP3    H262109   1.513   2.025  11.257 -0.1097  0.4993 -2.1168
13540TIP3   OH262110   2.715   6.478   2.316  0.0780  0.0367 -0.6948
13540TIP3    H162111   2.798   6.486   2.270  0.1239  0.2143 -0.5835
13540TIP3    H262112   2.731   6.519   2.401  0.5964 -2.0625  0.2481
13541TIP3   OH262113   6.757   5.983  16.088 -0.1185 -0.1531 -0.4070
13541TIP3    H162114   6.669   6.021  16.095 -0.1338 -0.4189  1.0102
13541TIP3    H262115   6.747   5.913  16.024 -1.0199 -0.4082  0.0009
13542TIP3   OH262116   3.855   5.236  16.676  0.2402  0.4192  0.7548
13542TIP3    H162117   3.865   5.304  16.609 -1.5212 -0.5261 -0.4983
13542TIP3    H262118   3.855   5.284  16.759 -0.0102  1.8397 -0.0559
13543TIP3   OH262119   4.603   4.457  14.745  0.0631 -0.0725 -0.2651
13543TIP3    H162120   4.522   4.471  14.794  0.5869  1.1472  0.2699
13543TIP3    H262121   4.608   4.531  14.684  1.2909  0.4334  0.4272
13544TIP3   OH262122   0.860   5.539  13.355  0.0269 -0.0805  0.7863
13544TIP3    H162123   0.856   5.626  13.315  0.9204 -0.7951 -0.9328
13544TIP3    H262124   0.920   5.490  13.299  2.0966 -0.8638  3.5773
13545TIP3   OH262125   5.376   1.295   3.987  0.1559 -0.0670 -0.5936
13545TIP3    H162126   5.360   1.368   3.928  1.0448 -1.1547 -2.2285
13545TIP3    H262127   5.392   1.220   3.930 -1.7027 -1.7908  1.0385
13546TIP3   OH262128   4.387   1.041   4.033 -0.0086  0.0269 -0.2724
13546TIP3    H162129   4.392   0.954   4.072 -0.6156 -0.2472 -0.8007
13546TIP3    H262130   4.478   1.071   4.031  0.0025  0.1536  1.5609
13547TIP3   OH262131   6.707   0.226   5.411 -0.5400  0.0636 -0.1123
13547TIP3    H162132   6.783   0.284   5.414  0.9346 -1.8218 -0.2370
13547TIP3    H262133   6.662   0.241   5.495  0.5924  0.3549  0.4496
13548TIP3   OH262134   4.024   5.671  13.731  0.5282 -0.1204  0.0972
13548TIP3    H162135   4.020   5.751  13.678  1.5673  1.0545  1.7693
13548TIP3    H262136   3.933   5.656  13.757  0.3337  0.5468 -0.1757
13549TIP3   OH262137   3.766   4.146  10.636 -0.0894  0.3447 -0.2662
13549TIP3    H162138   3.837   4.195  10.595  1.8821 -1.7138  0.5582
13549TIP3    H262139   3.766   4.061  10.591 -2.7235  0.6406 -0.9408
13550TIP3   OH262140   4.848   3.253  16.390  0.0475  0.2301 -0.5021
13550TIP3    H162141   4.788   3.315  16.432 -0.3056  0.2528 -1.0378
13550TIP3    H262142   4.929   3.302  16.379 -0.4877  0.8820 -1.6932
13551TIP3   OH262143   0.989   2.237   1.596 -0.4560 -0.0771  0.2967
13551TIP3    H162144   1.015   2.304   1.533  0.3285 -0.5823  0.0606
13551TIP3    H262145   0.910   2.198   1.560 -0.7940  0.5831  0.3317
13552TIP3   OH262146   6.268   4.779  14.131  0.4936  0.4410  0.1194
13552TIP3    H162147   6.234   4.691  14.143 -0.9870  0.8810 -0.7367
13552TIP3    H262148   6.305   4.778  14.042 -1.7788  1.3784 -0.8662
13553TIP3   OH262149   5.128   6.256  16.827  0.0188 -0.2695 -0.0711
13553TIP3    H162150   5.176   6.321  16.775 -0.8854  0.0570 -0.5098
13553TIP3    H262151   5.193   6.188  16.846  0.9885  0.7839  0.4480
13554TIP3   OH262152   4.861   6.419  11.644 -0.0070  0.3488 -0.0396
13554TIP3    H162153   4.874   6.375  11.729  0.9538  1.9841  0.6831
13554TIP3    H262154   4.772   6.453  11.649  0.2322  0.9004  0.5283
13555TIP3   OH262155   2.509   3.371   2.035 -0.0810 -0.5240  0.6075
13555TIP3    H162156   2.570   3.324   2.092 -0.0751  0.4320  1.3963
13555TIP3    H262157   2.464   3.302   1.986  2.4438 -1.1844 -0.8157
13556TIP3   OH262158   1.152   4.563  16.271 -0.0033  0.1960 -0.1027
13556TIP3    H162159   1.141   4.654  16.242 -1.8559 -0.1022 -0.3834
13556TIP3    H262160   1.151   4.512  16.190 -0.6239 -0.2268  0.1747
13557TIP3   OH262161   5.719   4.319   0.531  0.1686 -0.0706  0.2250
13557TIP3    H162162   5.678   4.251   0.477  0.4254 -0.0440 -0.0024
13557TIP3    H262163   5.807   4.329   0.495 -0.1432  0.9751 -0.2796
13558TIP3   OH262164   4.676   2.632   3.000 -0.0011 -0.5128  0.6510
13558TIP3    H162165   4.610   2.610   2.934 -0.3930  0.2063  0.7993
13558TIP3    H262166   4.627   2.641   3.081  0.0186  1.6886  0.4424
13559TIP3   OH262167   1.926   4.599  13.207 -1.0598  0.2245  0.2186
13559TIP3    H162168   1.922   4.509  13.174  0.7495 -0.6629  2.3117
13559TIP3    H262169   1.956   4.650  13.132  2.5609 -1.6705  0.2909
13560TIP3   OH262170   6.205   2.825   4.215 -0.2185 -0.2651 -0.3389
13560TIP3    H162171   6.258   2.775   4.152  1.2578 -1.1556  1.5458
13560TIP3    H262172   6.208   2.772   4.295 -0.4376  1.7943  1.0585
13561TIP3   OH262173   4.307   2.232   0.135 -1.0570 -0.2267  0.1758
13561TIP3    H162174   4.217   2.209   0.158 -1.2090 -0.0842 -0.2816
13561TIP3    H262175   4.301   2.316   0.090 -0.3797  1.3535  2.8951
13562TIP3   OH262176   3.720   1.651   6.014  0.0144  0.1768  0.3014
13562TIP3    H162177   3.716   1.560   6.044 -1.8132  0.5626  1.2801
13562TIP3    H262178   3.700   1.703   6.092 -0.5054  1.3764 -0.6157
13563TIP3   OH262179   4.730   0.545   9.869 -0.4401  0.7216 -0.4402
13563TIP3    H162180   4.651   0.599   9.867 -1.5580 -0.8755 -0.7041
13563TIP3    H262181   4.783   0.582   9.938 -2.0979  0.9266  0.7610
13564TIP3   OH262182   0.707   3.293   3.859 -0.1772 -0.4495 -0.8689
13564TIP3    H162183   0.631   3.336   3.822  1.1875  1.0756 -1.9651
13564TIP3    H262184   0.782   3.331   3.812  1.2108 -2.3936 -0.2914
13565TIP3   OH262185   3.124   1.792   2.269  0.0734  0.4969 -0.3439
13565TIP3    H162186   3.212   1.823   2.250  0.3440  1.6490  2.6015
13565TIP3    H262187   3.071   1.872   2.278 -0.4640 -0.0501  1.5442
13566TIP3   OH262188   5.784   0.106  10.924  0.1799 -0.0999  0.0330
13566TIP3    H162189   5.698   0.072  10.899  0.4561  0.1014 -1.1887
13566TIP3    H262190   5.813   0.158  10.849  1.6449 -0.6734  0.1768
13567TIP3   OH262191   5.029   2.868   6.575 -0.4351  0.3725  0.2591
13567TIP3    H162192   5.038   2.899   6.665 -1.1980 -1.5805  1.0289
13567TIP3    H262193   4.946   2.906   6.545  0.1396  1.5526  0.1455
13568TIP3   OH262194   5.979   2.380  13.656  0.2918 -0.0511  0.0133
13568TIP3    H162195   5.996   2.395  13.563 -0.6023  0.0755 -0.1366
13568TIP3    H262196   6.043   2.314  13.683  1.3572  0.7934 -0.3913
13569TIP3   OH262197   6.749   4.437  14.082 -0.2343  0.0483 -0.0549
13569TIP3    H162198   6.660   4.406  14.095  0.1160 -2.3512 -2.9617
13569TIP3    H262199   6.791   4.425  14.168 -2.2475 -0.1523  0.9398
13570TIP3   OH262200   2.108   6.750  11.468 -0.0785  0.3591 -0.6578
13570TIP3    H162201   2.203   6.741  11.454  0.8554  1.6209  3.9793
13570TIP3    H262202   2.083   6.827  11.417  1.8215  1.2313 -0.3226
13571TIP3   OH262203   4.384   2.625  13.013 -0.1532  0.2313 -0.0995
13571TIP3    H162204   4.373   2.714  12.982 -0.4067  0.2233 -0.0311
13571TIP3    H262205   4.296   2.596  13.037  0.0522  0.2965  0.7699
13572TIP3   OH262206   3.497   3.055   1.561  0.1898 -0.0965 -0.2095
13572TIP3    H162207   3.455   2.969   1.559  2.1404 -1.0712 -0.5284
13572TIP3    H262208   3.566   3.047   1.628  1.1368  0.8439 -1.0456
13573TIP3   OH262209   0.097   6.240  15.222  0.7114 -0.4350  0.1168
13573TIP3    H162210   0.185   6.275  15.232  0.5992 -0.3458  0.7749
13573TIP3    H262211   0.040   6.302  15.268  0.3911 -0.8984  0.3477
13574TIP3   OH262212   6.442   0.046  16.538  0.2030 -0.2747  0.0926
13574TIP3    H162213   6.360   0.049  16.588  0.2395  1.3384  0.0834
13574TIP3    H262214   6.417   0.071  16.449  0.7011  0.2658  0.0995
13575TIP3   OH262215   0.735   1.228   2.472  0.4458 -0.5534 -0.2793
13575TIP3    H162216   0.699   1.316   2.462 -1.4195 -1.2351  0.1687
13575TIP3    H262217   0.740   1.214   2.567 -0.9815 -1.5651 -0.3228
13576TIP3   OH262218   0.491   0.191  13.549  0.3066  0.0145  0.6108
13576TIP3    H162219   0.480   0.268  13.605 -2.4239  0.7241 -0.8038
13576TIP3    H262220   0.556   0.218  13.483 -0.8150  1.2051 -0.0175
13577TIP3   OH262221   3.619   5.961   4.848  0.2400  0.0281 -0.3962
13577TIP3    H162222   3.598   5.980   4.939  0.7820 -0.0197 -0.2649
13577TIP3    H262223   3.540   5.918   4.815  0.7346 -1.6763  0.5804
13578TIP3   OH262224   5.666   4.389  12.418  0.4802 -0.1116 -0.6604
13578TIP3    H162225   5.729   4.461  12.429 -0.4866  0.9592 -1.9717
13578TIP3    H262226   5.694   4.323  12.482  1.3064  1.4755  0.6590
13579TIP3   OH262227   6.733   6.336  16.228  0.2666  0.2822  0.3212
13579TIP3    H162228   6.802   6.370  16.171  0.1667 -0.7297 -0.4223
13579TIP3    H262229   6.779   6.280  16.291  0.3120  0.9383  0.8745
13580TIP3   OH262230   5.287   3.304   2.729 -0.4312 -0.3471 -0.6832
13580TIP3    H162231   5.381   3.315   2.711 -0.5235 -1.1031 -1.7012
13580TIP3    H262232   5.245   3.371   2.674 -0.4845 -0.0179 -0.2382
13581TIP3   OH262233   5.721   2.701   5.775  0.4292  0.2555 -0.2468
13581TIP3    H162234   5.741   2.690   5.868  0.9914  4.4945  0.2455
13581TIP3    H262235   5.804   2.684   5.731  1.2940  2.4772  0.4547
13582TIP3   OH262236   1.072   3.060  11.418 -0.3771 -0.1704  0.7562
13582TIP3    H162237   1.155   3.055  11.463 -0.3161  2.6152  1.0089
13582TIP3    H262238   1.006   3.047  11.486 -0.1919 -1.0500  0.7734
13583TIP3   OH262239   0.036   6.300  12.485 -0.4835  0.5163 -0.2860
13583TIP3    H162240  -0.055   6.302  12.456  0.1574  0.7933 -2.3136
13583TIP3    H262241   0.053   6.208  12.504 -1.3079  0.5276  0.5551
13584TIP3   OH262242   0.737   6.752  15.702 -0.5169 -0.4951  0.4328
13584TIP3    H162243   0.652   6.747  15.745 -2.1865  0.6804 -2.6110
13584TIP3    H262244   0.751   6.845  15.685  0.6165 -0.8334 -0.5748
13585TIP3   OH262245   4.559   0.051  12.005  0.1123 -0.1419 -0.1050
13585TIP3    H162246   4.466   0.056  12.025 -0.2428  0.5552 -1.8972
13585TIP3    H262247   4.599   0.119  12.059 -0.5900  0.4874 -0.3770
13586TIP3   OH262248   5.054   1.225   6.529  0.4524  0.5442  0.6839
13586TIP3    H162249   4.989   1.170   6.573 -0.8712  1.8062  0.3311
13586TIP3    H262250   5.086   1.172   6.456 -2.1094  0.8772 -0.7269
13587TIP3   OH262251   1.795   4.001  12.437  0.2646  0.6409 -0.3184
13587TIP3    H162252   1.795   4.093  12.411 -2.1965  0.9876  0.7757
13587TIP3    H262253   1.840   4.000  12.521 -0.1416  0.9271 -0.0980
13588TIP3   OH262254   3.244   2.494   2.016 -0.7091 -0.0451 -0.0787
13588TIP3    H162255   3.301   2.454   1.951 -0.4590  1.0762 -0.5591
13588TIP3    H262256   3.178   2.427   2.034 -0.6904 -0.4283 -1.3724
13589TIP3   OH262257   1.095   2.908  15.023  0.0151  0.5589 -0.3879
13589TIP3    H162258   1.087   2.954  14.939  0.1727 -0.8301 -1.1779
13589TIP3    H262259   1.060   2.820  15.006  4.8854 -1.5204 -0.4894
13590TIP3   OH262260   0.966   0.393   3.444 -0.3712 -0.2327  0.0336
13590TIP3    H162261   1.042   0.338   3.461  0.1969  0.3190 -0.6726
13590TIP3    H262262   0.959   0.451   3.520 -0.7065 -0.9762  0.5716
13591TIP3   OH262263   4.763   5.315   0.026  0.0179  0.4297 -0.4191
13591TIP3    H162264   4.686   5.271   0.062  0.2334 -0.5250 -1.1158
13591TIP3    H262265   4.728   5.374  -0.041 -0.0543 -0.5169 -1.2248
13592TIP3   OH262266   4.303   2.459   0.598 -0.5689 -0.2831 -0.7624
13592TIP3    H162267   4.295   2.539   0.546 -0.9851 -0.2513 -0.6508
13592TIP3    H262268   4.234   2.402   0.566  0.4434 -1.0362 -1.6054
13593TIP3   OH262269   0.390   0.396   1.231 -0.4468  0.4773 -0.1861
13593TIP3    H162270   0.432   0.311   1.242  1.5230  1.4754  0.0698
13593TIP3    H262271   0.310   0.377   1.181 -0.4444 -1.6192  0.5729
13594TIP3   OH262272   4.434   0.781   6.293 -0.3561 -0.7270 -0.4034
13594TIP3    H162273   4.421   0.691   6.265 -2.3657 -0.1816 -1.3587
13594TIP3    H262274   4.351   0.805   6.334  0.7734  0.1382  1.4529
13595TIP3   OH262275   6.123   3.589   3.717  0.5988 -0.4723  0.0100
13595TIP3    H162276   6.191   3.527   3.745 -0.0703 -1.3439 -0.2692
13595TIP3    H262277   6.148   3.672   3.758  1.1025 -1.1015  1.0049
13596TIP3   OH262278   0.204   2.166   4.293 -0.0451 -0.4098 -0.1812
13596TIP3    H162279   0.214   2.089   4.349  0.9681 -1.1008 -1.2802
13596TIP3    H262280   0.256   2.145   4.215 -0.0098  1.2638 -0.6149
13597TIP3   OH262281   4.461   0.460  13.429 -0.7810 -0.2381  0.1461
13597TIP3    H162282   4.397   0.390  13.418  0.1540 -1.2823  1.3578
13597TIP3    H262283   4.413   0.540  13.407 -2.9771 -0.8303  2.6460
13598TIP3   OH262284   1.112   2.990  15.981 -0.1768  0.3801 -0.1818
13598TIP3    H162285   1.106   2.912  15.927 -0.5644  1.1512 -1.2560
13598TIP3    H262286   1.027   3.032  15.974 -0.0037  0.8502  0.4612
13599TIP3   OH262287   3.075   5.276   3.729  0.4285  0.3277  0.6915
13599TIP3    H162288   3.163   5.297   3.760  0.7278 -1.9243  1.4268
13599TIP3    H262289   3.089   5.223   3.650 -0.3018  2.0171 -0.6022
13600TIP3   OH262290   2.198   5.179   4.597  0.5857 -0.0949 -0.6148
13600TIP3    H162291   2.232   5.096   4.564  0.8122 -0.2215 -0.0806
13600TIP3    H262292   2.117   5.193   4.549  0.0191 -1.1323  0.0079
13601TIP3   OH262293   3.522   6.444   4.793 -0.6770  0.0984 -0.0296
13601TIP3    H162294   3.577   6.379   4.837  1.2193  2.0249  0.5226
13601TIP3    H262295   3.580   6.485   4.730 -2.1798  0.4866 -1.1636
13602TIP3   OH262296   4.928   2.696   0.938  0.6029 -0.3888  0.6185
13602TIP3    H162297   4.915   2.787   0.966  0.5815 -1.0086  2.6582
13602TIP3    H262298   4.846   2.672   0.894  0.8498  0.7683 -0.5043
13603TIP3   OH262299   6.538   3.782  13.472 -0.1764  0.6369  0.0875
13603TIP3    H162300   6.543   3.742  13.385  0.0939 -0.2216  0.5023
13603TIP3    H262301   6.623   3.823  13.484 -0.6609  1.9052 -0.5933
13604TIP3   OH262302   2.970   4.733   5.727  0.0022  0.0943 -0.0340
13604TIP3    H162303   3.017   4.815   5.740 -0.2736  0.2074  0.2589
13604TIP3    H262304   3.028   4.680   5.672  0.5811  0.1363  0.5398
13605TIP3   OH262305   1.799   3.436   5.815  0.4051 -0.6868 -0.0289
13605TIP3    H162306   1.799   3.515   5.761  1.3730 -0.3024  0.5055
13605TIP3    H262307   1.779   3.365   5.755 -0.9644  0.0219 -0.4257
13606TIP3   OH262308   1.973   5.086   5.571  0.4467 -0.2635 -0.2737
13606TIP3    H162309   1.881   5.088   5.599  0.8633 -2.8350  1.4839
13606TIP3    H262310   1.973   5.027   5.495  0.6867 -0.5439 -0.0568
13607TIP3   OH262311   3.546   4.273  13.491  0.4899  0.2019 -0.2059
13607TIP3    H162312   3.520   4.338  13.557  1.5378 -0.8169  1.2589
13607TIP3    H262313   3.615   4.223  13.534 -0.4696 -2.0356 -1.2265
13608TIP3   OH262314   4.227   0.911  13.856  0.0624 -0.3649  0.7067
13608TIP3    H162315   4.289   0.945  13.920  1.6860 -2.4426  0.2795
13608TIP3    H262316   4.147   0.894  13.905  0.6183  0.0348  1.7477
13609TIP3   OH262317   5.472   5.586   5.512 -0.1690  0.7642  0.2505
13609TIP3    H162318   5.402   5.597   5.447  0.4366  0.9927 -0.3595
13609TIP3    H262319   5.487   5.675   5.546  0.8193  0.9521 -0.6523
13610TIP3   OH262320   5.720   5.403   6.308 -0.2581  0.2822  0.1168
13610TIP3    H162321   5.688   5.490   6.287 -0.0002  0.4170  0.2760
13610TIP3    H262322   5.768   5.414   6.391 -1.1064 -0.2064  0.6827
13611TIP3   OH262323   3.476   5.861   3.251 -0.3534 -0.0436  0.3245
13611TIP3    H162324   3.397   5.827   3.210 -0.4090 -1.1538  1.3225
13611TIP3    H262325   3.446   5.898   3.334 -0.0279  0.8385  0.0542
13612TIP3   OH262326   1.166   5.519   0.384 -0.4012 -0.3870 -0.0451
13612TIP3    H162327   1.229   5.447   0.395  1.5854  1.4290  0.9913
13612TIP3    H262328   1.169   5.540   0.291  1.4883  0.4673  0.1801
13613TIP3   OH262329   2.087   4.398   4.311 -0.7287 -0.0926 -0.1245
13613TIP3    H162330   2.006   4.416   4.263 -1.2485 -3.1588 -0.5201
13613TIP3    H262331   2.141   4.348   4.248  0.4755 -0.1533  0.9329
13614TIP3   OH262332   3.883   0.592  11.367 -0.0229 -0.6589 -0.4092
13614TIP3    H162333   3.851   0.522  11.310 -0.8115  0.9291 -1.9950
13614TIP3    H262334   3.818   0.598  11.437 -2.1003  1.0523 -2.4061
13615TIP3   OH262335   2.617   3.477  11.916 -0.5555 -0.1583  0.4680
13615TIP3    H162336   2.530   3.450  11.885 -0.6855  0.2535  0.4763
13615TIP3    H262337   2.600   3.550  11.975 -0.3528 -1.2589  1.9208
13616TIP3   OH262338   5.200   3.830  12.879 -0.5850 -0.7295  0.1592
13616TIP3    H162339   5.193   3.892  12.952  1.3969  0.0195 -0.2743
13616TIP3    H262340   5.214   3.885  12.802 -0.1284 -1.6523 -0.4208
13617TIP3   OH262341   5.314   3.553   3.881  0.0359  0.2930  0.5520
13617TIP3    H162342   5.302   3.459   3.894 -0.7476  0.0721 -1.6551
13617TIP3    H262343   5.397   3.561   3.835 -1.0590  0.4889 -1.4353
13618TIP3   OH262344   2.093   3.425   3.998  0.1788 -0.3187  0.3212
13618TIP3    H162345   2.088   3.491   3.929 -0.8159  1.1648  1.7929
13618TIP3    H262346   2.020   3.365   3.979  0.1449 -0.1397 -0.1256
13619TIP3   OH262347   3.325   2.784   4.451  0.2873 -0.3197 -0.0426
13619TIP3    H162348   3.296   2.736   4.374  1.5401  1.7787 -1.8718
13619TIP3    H262349   3.247   2.833   4.479  0.1541 -0.1399 -0.7191
13620TIP3   OH262350   3.250   5.001  11.030  0.5902  0.1696 -0.5993
13620TIP3    H162351   3.191   4.927  11.046  0.7986  0.0898 -0.2104
13620TIP3    H262352   3.336   4.969  11.058  0.4688  1.0015  0.7439
13621TIP3   OH262353   0.523   0.912   3.237 -0.1846  0.1463  0.2035
13621TIP3    H162354   0.464   0.882   3.307 -1.5062  0.8540 -0.5841
13621TIP3    H262355   0.466   0.928   3.162  1.3027 -1.2007 -1.2521
13622TIP3   OH262356   1.448   6.135  16.710 -0.4174 -0.1440  0.5266
13622TIP3    H162357   1.370   6.154  16.658  0.0094  0.0031 -0.0584
13622TIP3    H262358   1.484   6.055  16.672  0.5352  0.5966 -0.1482
13623TIP3   OH262359   2.867   5.345  12.882 -0.0172 -0.5211  0.3002
13623TIP3    H162360   2.778   5.377  12.897 -0.7038 -1.8544 -0.8230
13623TIP3    H262361   2.879   5.276  12.948 -0.0612 -0.8125  0.0026
13624TIP3   OH262362   4.957   6.056   4.992  0.3710  0.1218 -0.2934
13624TIP3    H162363   4.931   6.115   5.063  0.2629 -0.3393  0.0573
13624TIP3    H262364   5.048   6.079   4.973  0.1101  0.8698 -0.6341
13625TIP3   OH262365   0.403   1.088   5.946 -0.6950  0.1638  0.4733
13625TIP3    H162366   0.487   1.111   5.906 -0.5365 -2.1546 -0.6137
13625TIP3    H262367   0.340   1.095   5.874 -0.8399 -1.5186  0.4191
13626TIP3   OH262368   3.973   2.242  17.176  0.1857  0.1392  1.1704
13626TIP3    H162369   4.052   2.232  17.123 -1.0587 -3.4195 -0.0782
13626TIP3    H262370   3.905   2.267  17.114 -0.2366  0.7911  1.8799
13627TIP3   OH262371   0.820   3.566   0.781 -0.5835  0.2839 -0.2845
13627TIP3    H162372   0.737   3.614   0.776 -1.3310 -1.0048 -0.4078
13627TIP3    H262373   0.809   3.494   0.719  1.0879  0.7908 -1.1911
13628TIP3   OH262374   6.814   1.472  12.928  0.1209  0.2540  0.0663
13628TIP3    H162375   6.738   1.495  12.981  0.5709 -0.7077  1.1388
13628TIP3    H262376   6.876   1.544  12.942  0.8118 -0.6873  1.9973
13629TIP3   OH262377   3.407   5.334   4.813 -0.0494 -0.1101 -0.0369
13629TIP3    H162378   3.391   5.280   4.891 -1.4416  0.4151  0.0499
13629TIP3    H262379   3.405   5.424   4.845  1.3796  0.0291 -0.3381
13630TIP3   OH262380   2.057   6.100  15.712  0.0176 -0.3743  0.6129
13630TIP3    H162381   1.984   6.087  15.652  0.6811  0.7013 -0.4485
13630TIP3    H262382   2.098   6.014  15.719  0.0016 -0.4853 -0.5758
13631TIP3   OH262383   4.048   2.358  15.034 -0.0189  0.2597  0.3031
13631TIP3    H162384   3.956   2.383  15.040  0.2614  1.1983  0.8163
13631TIP3    H262385   4.086   2.385  15.118  0.0435 -3.0419  1.3958
13632TIP3   OH262386   3.184   6.414  16.724 -0.1592  0.5733 -0.1483
13632TIP3    H162387   3.111   6.469  16.752 -0.3319  1.3013 -1.9441
13632TIP3    H262388   3.238   6.404  16.802 -1.2407  1.5193  0.7400
13633TIP3   OH262389   2.748   3.235  15.527 -0.4010  0.0398 -0.2853
13633TIP3    H162390   2.742   3.195  15.613 -1.0896  0.6312 -0.0526
13633TIP3    H262391   2.780   3.165  15.470  1.3037 -0.0022  0.6859
13634TIP3   OH262392   4.925   1.963  12.634 -0.5536  0.0390 -0.6462
13634TIP3    H162393   4.865   2.023  12.589 -2.9715 -0.9607  1.1368
13634TIP3    H262394   4.870   1.888  12.658  1.1242 -0.3717  2.0739
13635TIP3   OH262395   3.733   3.028   0.245 -0.5401  0.2572  1.0385
13635TIP3    H162396   3.809   3.067   0.202 -0.7947  0.1487  0.4914
13635TIP3    H262397   3.717   3.085   0.321 -0.6115  0.9380  0.5195
13636TIP3   OH262398   2.266   3.263  15.821  0.2607  0.4102  0.0288
13636TIP3    H162399   2.332   3.259  15.891 -1.2678 -0.2822  1.4612
13636TIP3    H262400   2.222   3.347  15.834  0.1816  0.4146 -0.2789
13637TIP3   OH262401   0.329   0.920  12.934 -0.4511 -0.3297  0.5505
13637TIP3    H162402   0.347   1.002  12.887  0.8568 -0.4197  0.8574
13637TIP3    H262403   0.251   0.939  12.986 -1.7284 -0.1214 -1.3849
13638TIP3   OH262404   3.501   2.550   3.549 -0.0266 -0.4729  0.9392
13638TIP3    H162405   3.496   2.469   3.499 -3.1991  0.9619 -1.3053
13638TIP3    H262406   3.446   2.534   3.626 -1.9578 -0.0133 -0.2974
13639TIP3   OH262407   3.615   4.811   4.232 -0.4443 -0.6650  0.0491
13639TIP3    H162408   3.615   4.752   4.308 -0.0149  1.9942  2.1825
13639TIP3    H262409   3.548   4.876   4.253 -0.4019  0.0295 -1.9439
13640TIP3   OH262410   2.952   4.239   5.735 -0.1672 -0.4519  0.6141
13640TIP3    H162411   2.911   4.262   5.651 -0.2497 -2.4398  0.0846
13640TIP3    H262412   3.043   4.268   5.725 -0.4213  0.2427  0.2338
13641TIP3   OH262413   5.208   6.445   0.560  0.0006 -0.6506 -0.2000
13641TIP3    H162414   5.157   6.367   0.536 -0.6096  0.0555 -1.1886
13641TIP3    H262415   5.295   6.410   0.583 -0.1301 -1.5755 -1.0684
13642TIP3   OH262416   5.414   0.863  15.723 -0.5558 -0.0453  0.3198
13642TIP3    H162417   5.322   0.890  15.724 -0.3316  0.9009 -1.7376
13642TIP3    H262418   5.462   0.940  15.754 -0.3034  0.2074 -0.6819
13643TIP3   OH262419   0.458   4.212   3.816  1.1053 -0.5463 -0.0494
13643TIP3    H162420   0.379   4.160   3.828  0.4274  0.2558 -0.9098
13643TIP3    H262421   0.469   4.217   3.721 -0.1522  2.7720 -0.0848
13644TIP3   OH262422   4.854   2.515  12.166  0.1889 -0.5601 -0.2546
13644TIP3    H162423   4.807   2.537  12.247  0.5163 -0.9302  0.0411
13644TIP3    H262424   4.936   2.477  12.196  0.7264  0.1879 -0.7748
13645TIP3   OH262425   2.928   6.355   4.434 -0.3184 -0.9518 -0.0180
13645TIP3    H162426   3.013   6.370   4.393 -1.6846 -0.7321 -2.8442
13645TIP3    H262427   2.888   6.442   4.439 -0.7787 -1.1843  0.4660
13646TIP3   OH262428   3.862   1.668  14.090 -0.0199 -0.4192  0.0683
13646TIP3    H162429   3.945   1.691  14.048  0.9078 -1.9920  0.9996
13646TIP3    H262430   3.849   1.737  14.155  1.0205 -0.6526  0.5392
13647TIP3   OH262431   5.703   4.362  12.970  0.0296 -0.0684  0.0388
13647TIP3    H162432   5.733   4.273  12.988 -0.1080 -0.1015  0.1074
13647TIP3    H262433   5.721   4.409  13.052 -0.3865 -0.1634  0.1855
13648TIP3   OH262434   0.758   5.591  15.611 -0.0198  0.1457 -0.1006
13648TIP3    H162435   0.814   5.516  15.592 -0.2636 -0.1473  0.3100
13648TIP3    H262436   0.699   5.560  15.680 -0.8026  0.3861 -0.6434
13649TIP3   OH262437   1.031   1.287  10.934  0.1189  0.1289  0.0594
13649TIP3    H162438   1.060   1.221  10.871 -0.2240 -1.4040  1.4387
13649TIP3    H262439   1.110   1.309  10.984  0.1799  0.5602 -0.2298
13650TIP3   OH262440   2.016   4.467  17.292 -0.1056 -0.3922 -0.3023
13650TIP3    H162441   2.098   4.446  17.248 -0.5994 -0.4999 -1.1745
13650TIP3    H262442   1.977   4.538  17.241 -0.8365 -0.7337 -0.2367
13651TIP3   OH262443   3.550   4.087  15.005 -0.0282 -0.0878  0.2386
13651TIP3    H162444   3.545   4.181  14.991 -0.6198 -0.2675 -0.7962
13651TIP3    H262445   3.637   4.072  15.042  0.0961  0.8495  0.3179
13652TIP3   OH262446   5.657   5.549  13.100  0.3203 -0.5396 -0.3746
13652TIP3    H162447   5.596   5.618  13.075 -0.1338 -1.1978 -1.0977
13652TIP3    H262448   5.606   5.491  13.157  0.6844 -0.3156  0.1843
13653TIP3   OH262449   1.213   2.558   6.760  0.7258  0.0034 -0.3465
13653TIP3    H162450   1.162   2.536   6.838  0.9955 -1.4895 -0.5609
13653TIP3    H262451   1.289   2.605   6.794 -0.2828  1.3479  0.0682
13654TIP3   OH262452   3.693   2.457  15.880 -0.0337 -0.3091 -0.3159
13654TIP3    H162453   3.645   2.540  15.881  1.6811  0.6994  0.7267
13654TIP3    H262454   3.634   2.396  15.835 -1.5001  1.3512 -0.7175
13655TIP3   OH262455   2.782   1.882  15.567 -0.1498 -0.1807  0.0759
13655TIP3    H162456   2.793   1.806  15.510  2.7408  0.6306 -0.5043
13655TIP3    H262457   2.758   1.953  15.508 -0.2861 -0.0523  0.2858
13656TIP3   OH262458   3.648   0.583  12.364 -0.4503 -0.0194 -0.3828
13656TIP3    H162459   3.670   0.654  12.304 -1.0073 -0.0859 -0.6694
13656TIP3    H262460   3.652   0.623  12.451  0.0952  0.1432 -0.4791
13657TIP3   OH262461   0.664   5.805  15.941 -0.2263  0.4284  0.2275
13657TIP3    H162462   0.695   5.836  15.856 -2.1854  1.0583 -0.2650
13657TIP3    H262463   0.653   5.711  15.930 -0.0341  0.4409 -0.0695
13658TIP3   OH262464   4.787   6.296  14.911  0.1069 -0.2539  0.5720
13658TIP3    H162465   4.853   6.301  14.980 -0.0698 -1.5562  0.8546
13658TIP3    H262466   4.709   6.337  14.949  0.0104 -0.9650  1.1453
13659TIP3   OH262467   3.724   5.075   2.355  0.3104 -1.0257 -0.0373
13659TIP3    H162468   3.740   5.119   2.272  0.7771 -5.2546 -2.3368
13659TIP3    H262469   3.796   5.013   2.364  0.1763 -0.7923  3.5089
13660TIP3   OH262470   0.321   6.630   2.750  0.3796 -0.2383  0.2890
13660TIP3    H162471   0.308   6.692   2.678  2.1378  1.0650  1.0387
13660TIP3    H262472   0.267   6.664   2.821  1.3280  0.4766  0.6931
13661TIP3   OH262473   3.817   1.152   4.321  0.3985 -0.5000 -0.4981
13661TIP3    H162474   3.767   1.234   4.315 -0.4377 -0.9442  0.4139
13661TIP3    H262475   3.877   1.156   4.246 -0.2973  0.4995 -1.0167
13662TIP3   OH262476   4.196   1.674  16.082  0.6610 -0.1134 -0.1153
13662TIP3    H162477   4.139   1.750  16.072  0.1633 -0.4279  0.3204
13662TIP3    H262478   4.275   1.709  16.124  0.0245 -0.0123  1.0186
13663TIP3   OH262479   5.923   2.355  11.610  0.0403 -0.0160  0.1491
13663TIP3    H162480   5.937   2.449  11.608 -1.5618  0.2224 -0.7716
13663TIP3    H262481   5.984   2.323  11.676  0.7460  1.6329  0.3199
13664TIP3   OH262482   5.939   2.986  13.378 -0.3670  0.0404  0.8268
13664TIP3    H162483   5.913   3.065  13.426 -0.5216 -1.8163  3.9333
13664TIP3    H262484   5.938   2.917  13.444  1.9168 -2.1565 -1.3587
13665TIP3   OH262485   2.308   0.356   3.482  0.5659  0.6369 -0.0092
13665TIP3    H162486   2.302   0.335   3.389  0.4627  0.2971  0.0751
13665TIP3    H262487   2.307   0.452   3.485 -0.4430  0.6339 -0.2868
13666TIP3   OH262488   5.053   3.582   3.259  0.0056 -0.1870 -0.2686
13666TIP3    H162489   5.144   3.587   3.231 -0.0442  2.3067 -0.1141
13666TIP3    H262490   5.056   3.578   3.354 -0.0556  1.2457 -0.1939
13667TIP3   OH262491   2.264   5.792  10.625  0.4834  0.2548 -0.0046
13667TIP3    H162492   2.325   5.719  10.638  0.9198  0.3370 -1.3918
13667TIP3    H262493   2.321   5.868  10.608  0.0469  1.0412  1.9583
13668TIP3   OH262494   5.462   0.890   3.635  1.0367  0.1692  0.5357
13668TIP3    H162495   5.372   0.859   3.648  0.6729  1.2951  0.7862
13668TIP3    H262496   5.516   0.811   3.643  0.1447 -0.3832  1.2366
13669TIP3   OH262497   0.055   6.015  12.487  0.5626  0.2463 -0.1739
13669TIP3    H162498   0.149   6.002  12.475  0.7134  1.1836 -0.0706
13669TIP3    H262499   0.015   5.978  12.409  0.9991 -0.4513 -0.0631
13670TIP3   OH262500   3.917   2.233   4.171  0.0864  0.5234 -0.4654
13670TIP3    H162501   3.970   2.304   4.209 -0.0963 -0.0096  0.8040
13670TIP3    H262502   3.829   2.269   4.168 -0.3640 -0.2993  1.9604
13671TIP3   OH262503   3.751   6.300   5.415 -0.2360 -0.3231 -0.5261
13671TIP3    H162504   3.770   6.349   5.335 -0.9104 -0.6180 -0.8735
13671TIP3    H262505   3.837   6.272   5.447  0.1728  1.2070 -0.2375
13672TIP3   OH262506   2.270   3.808   2.705 -0.3086 -0.4688  0.9530
13672TIP3    H162507   2.197   3.868   2.719  1.0571  1.3014  0.7121
13672TIP3    H262508   2.244   3.727   2.748 -3.3671 -0.6211 -1.0286
13673TIP3   OH262509   0.005   2.350   2.474 -0.2474 -0.3048 -0.4558
13673TIP3    H162510   0.088   2.327   2.432  1.0053  0.2739  1.6097
13673TIP3    H262511  -0.042   2.267   2.479  0.3423 -0.7041 -1.3853
13674TIP3   OH262512   3.919   4.000  14.921 -0.4806 -0.1504 -0.0838
13674TIP3    H162513   3.946   3.981  15.011 -0.5115  0.2040  0.0004
13674TIP3    H262514   3.892   4.092  14.923 -1.1737 -0.3460 -0.2955
13675TIP3   OH262515   1.881   4.462  16.898 -0.0362 -0.1865 -0.2796
13675TIP3    H162516   1.974   4.483  16.903 -0.3141  1.5889 -1.8974
13675TIP3    H262517   1.873   4.378  16.941  2.2688 -0.1893  0.2064
13676TIP3   OH262518   4.362   4.669  16.239  0.1202  0.3381  0.0588
13676TIP3    H162519   4.403   4.710  16.315 -0.3387  0.0639  0.4590
13676TIP3    H262520   4.426   4.604  16.210 -1.6245 -2.8839  3.0866
13677TIP3   OH262521   4.926   6.538   3.808  0.0248  0.6593 -0.3988
13677TIP3    H162522   4.901   6.542   3.716  1.9174  1.2545 -0.9040
13677TIP3    H262523   4.948   6.447   3.824  1.2614  0.8469 -0.9783
13678TIP3   OH262524   6.763   6.257   2.531  0.4407  0.1035  0.8099
13678TIP3    H162525   6.763   6.179   2.587 -0.4838 -0.0621  0.5995
13678TIP3    H262526   6.832   6.241   2.467 -0.2079 -0.8598  0.3430
13679TIP3   OH262527   2.831   3.937   3.119  0.6007  0.1278  0.0527
13679TIP3    H162528   2.819   3.971   3.031 -0.7981  1.6933  0.8170
13679TIP3    H262529   2.888   4.001   3.162  0.4974 -0.1121  0.5584
13680TIP3   OH262530   2.321   2.721  15.384  0.1828 -0.0616  0.0767
13680TIP3    H162531   2.226   2.727  15.389  0.1539  0.9722 -1.2278
13680TIP3    H262532   2.349   2.706  15.474 -1.2743 -1.6150  0.2974
13681TIP3   OH262533   4.609   1.705  12.145 -0.0687  0.4049 -0.5504
13681TIP3    H162534   4.621   1.636  12.079  1.0433  1.3603 -1.3761
13681TIP3    H262535   4.694   1.712  12.188 -0.2715  1.0439 -0.2541
13682TIP3   OH262536   4.236   2.087   3.676  0.0643 -0.7722  0.3132
13682TIP3    H162537   4.318   2.039   3.682  0.0947 -0.5824  1.7062
13682TIP3    H262538   4.171   2.023   3.648  0.7544 -0.8293 -1.2062
13683TIP3   OH262539   0.359   4.066  16.257  0.2037 -0.0212  0.5978
13683TIP3    H162540   0.339   4.094  16.346 -0.0006 -1.4002  0.9998
13683TIP3    H262541   0.436   4.117  16.232 -2.0548  3.2670  0.1037
13684TIP3   OH262542   3.813   4.300  12.052  0.1296 -0.5140 -0.2013
13684TIP3    H162543   3.764   4.221  12.029 -0.1821  0.0382 -1.5147
13684TIP3    H262544   3.753   4.351  12.106  0.0840 -0.8825  0.0900
13685TIP3   OH262545   6.029   1.406  15.901 -0.2870 -0.3740 -0.5837
13685TIP3    H162546   5.978   1.326  15.913  1.7598 -1.3760  1.8611
13685TIP3    H262547   5.968   1.476  15.926 -0.8077 -1.4847  1.4622
13686TIP3   OH262548   3.529   6.478  12.315 -0.1016  0.2107  0.3502
13686TIP3    H162549   3.567   6.524  12.389 -1.5121  0.4920  0.9231
13686TIP3    H262550   3.458   6.425  12.353 -0.1169 -0.5013 -0.6387
13687TIP3   OH262551   4.260   1.774   3.402  0.1482  0.3770  0.5898
13687TIP3    H162552   4.274   1.868   3.390 -0.0880  0.5229  1.4248
13687TIP3    H262553   4.348   1.737   3.409  0.3387  0.1727 -2.2824
13688TIP3   OH262554   0.716   0.708  15.752 -0.6841 -0.6754  0.2112
13688TIP3    H162555   0.638   0.760  15.769 -1.3336 -1.0134 -1.6297
13688TIP3    H262556   0.714   0.691  15.658  1.5228 -0.8200  0.1514
13689TIP3   OH262557   2.186   0.306   3.162  0.0545 -0.0563 -0.0817
13689TIP3    H162558   2.134   0.308   3.082  1.5327  1.9219 -1.0243
13689TIP3    H262559   2.238   0.226   3.154 -2.4187 -1.7944  0.6473
13690TIP3   OH262560   0.614   1.432  13.358  0.0514 -0.3454 -0.2262
13690TIP3    H162561   0.581   1.394  13.277 -0.3762  1.5366 -0.9619
13690TIP3    H262562   0.537   1.440  13.414  0.0248 -0.0165 -0.3062
13691TIP3   OH262563   0.264   3.264   4.105 -0.3729  0.0505 -0.5124
13691TIP3    H162564   0.303   3.326   4.167  1.8386  0.7178 -2.4972
13691TIP3    H262565   0.337   3.210   4.075 -1.9907 -2.4898 -0.0607
13692TIP3   OH262566   4.574   2.172   0.069  0.1958  0.0131  0.1283
13692TIP3    H162567   4.479   2.176   0.079  0.3846  0.6476  1.7313
13692TIP3    H262568   4.587   2.128  -0.015 -1.5058 -0.4991  0.1165
13693TIP3   OH262569   3.423   1.933  12.384 -0.0509  0.0370  0.0835
13693TIP3    H162570   3.486   1.984  12.333  0.2109  0.1172  0.4889
13693TIP3    H262571   3.458   1.933  12.473 -0.7007  0.1979  0.3361
13694TIP3   OH262572   5.569   4.809   5.289  0.0649  0.4240 -0.7323
13694TIP3    H162573   5.642   4.747   5.301  0.6580  1.2696  0.0678
13694TIP3    H262574   5.491   4.758   5.311  0.6153  0.1528  0.6887
13695TIP3   OH262575   4.265   2.735   6.102 -0.3962  0.2922 -0.3867
13695TIP3    H162576   4.219   2.657   6.132 -1.0786 -0.1994 -2.6266
13695TIP3    H262577   4.355   2.706   6.089 -0.4097  0.1630 -0.1940
13696TIP3   OH262578   2.385   1.646  15.135 -0.4412 -0.9515  0.3658
13696TIP3    H162579   2.457   1.612  15.188 -0.0873 -0.0335  0.4914
13696TIP3    H262580   2.414   1.637  15.045 -0.0522 -0.3478  0.4254
13697TIP3   OH262581   6.117   5.842  12.016  0.2302 -0.0196 -0.3194
13697TIP3    H162582   6.116   5.844  11.920 -0.6188 -0.3198 -0.3206
13697TIP3    H262583   6.162   5.761  12.038  0.0584 -0.1569 -0.4686
13698TIP3   OH262584   0.885   4.293  13.566  0.3510 -0.1988  0.3575
13698TIP3    H162585   0.857   4.302  13.475 -3.1745  1.2044  1.4773
13698TIP3    H262586   0.862   4.203  13.590 -0.4970  0.0292  0.4063
13699TIP3   OH262587   0.559   4.705  16.874 -0.6384 -0.5120 -0.2014
13699TIP3    H162588   0.537   4.798  16.872 -0.3487 -0.4395  0.0045
13699TIP3    H262589   0.513   4.671  16.951  0.5448 -0.2157  0.6430
13700TIP3   OH262590   2.208   5.372   2.275 -0.0532  0.4197 -0.0324
13700TIP3    H162591   2.286   5.406   2.230  0.2216  0.4057  0.4305
13700TIP3    H262592   2.138   5.431   2.248  0.1704  0.5982 -0.2353
13701TIP3   OH262593   3.329   6.573   3.762  0.2643  0.5723 -1.1672
13701TIP3    H162594   3.419   6.573   3.795  0.4856  1.6930 -1.7143
13701TIP3    H262595   3.327   6.645   3.699 -1.1190  0.7901 -0.8983
13702TIP3   OH262596   1.835   2.018   0.190  0.2853  0.0885  0.3839
13702TIP3    H162597   1.821   2.050   0.279  1.6258  2.7017 -0.3033
13702TIP3    H262598   1.926   1.987   0.190 -0.3643 -1.8709  0.4757
13703TIP3   OH262599   5.042   3.741  15.137 -0.5638 -0.1436  0.2644
13703TIP3    H162600   4.983   3.699  15.075  0.3127 -0.3917 -0.4221
13703TIP3    H262601   5.091   3.669  15.177  0.2054  0.1377 -0.1493
13704TIP3   OH262602   0.041   2.693  13.321 -0.3310 -0.4284  0.2801
13704TIP3    H162603   0.107   2.645  13.270  0.4873  2.1784 -1.2439
13704TIP3    H262604  -0.043   2.668  13.280  0.0624 -0.6291 -0.4210
13705TIP3   OH262605   1.757   0.965  15.348 -0.3389  0.3076  0.0260
13705TIP3    H162606   1.671   0.971  15.388 -0.0941  0.3928  0.5497
13705TIP3    H262607   1.801   0.894  15.395 -0.5092 -0.4662 -0.9733
13706TIP3   OH262608   1.850   4.813   3.304  0.5711 -0.1897  0.0238
13706TIP3    H162609   1.929   4.802   3.250  1.3465  1.1542  0.8674
13706TIP3    H262610   1.872   4.770   3.387  0.9311  1.3358  0.7390
13707TIP3   OH262611   5.674   1.483   5.802 -0.3672  0.1193  0.3373
13707TIP3    H162612   5.654   1.485   5.896 -2.1830  1.1236 -0.0434
13707TIP3    H262613   5.589   1.493   5.759  0.6141  1.3452 -1.4033
13708TIP3   OH262614   6.030   1.291   0.795 -0.2587  0.3587 -0.1021
13708TIP3    H162615   6.073   1.303   0.710  0.4383  1.0300  0.3388
13708TIP3    H262616   5.942   1.259   0.774 -0.0322  0.3745 -1.0670
13709TIP3   OH262617   3.526   3.599  16.995 -0.1080  0.0118 -0.3879
13709TIP3    H162618   3.448   3.544  17.005 -0.2929 -0.0129 -1.8140
13709TIP3    H262619   3.529   3.619  16.901  0.5939  1.4977 -0.0631
13710TIP3   OH262620   3.372   4.198  11.678  0.3472  0.2604 -0.2229
13710TIP3    H162621   3.466   4.184  11.673  0.3736 -0.1714  1.1629
13710TIP3    H262622   3.348   4.233  11.593  1.6334 -0.3949 -0.8697
13711TIP3   OH262623   2.900   4.927   2.762  0.0281 -0.0856  0.2497
13711TIP3    H162624   2.930   5.016   2.742  0.1437 -0.4570 -1.2359
13711TIP3    H262625   2.960   4.870   2.715 -0.3118 -0.9524  0.8570
13712TIP3   OH262626   1.599   6.579  15.066  0.1101  0.3517  0.4804
13712TIP3    H162627   1.511   6.606  15.094  0.1510  0.2526  0.7033
13712TIP3    H262628   1.610   6.621  14.980 -0.8145 -0.9883 -0.3244
13713TIP3   OH262629   4.428   1.712   5.475  0.2762 -0.5710 -0.1398
13713TIP3    H162630   4.511   1.669   5.498 -0.0894 -1.3490 -0.2767
13713TIP3    H262631   4.373   1.702   5.553  1.2055  2.2456  0.9503
13714TIP3   OH262632   4.745   4.020   4.044 -0.5142 -0.7151 -0.1102
13714TIP3    H162633   4.781   4.108   4.054  0.0446 -0.6960 -2.0329
13714TIP3    H262634   4.658   4.025   4.084 -1.3563  1.3208 -2.1124
13715TIP3   OH262635   0.203   1.341   3.101 -0.3602  0.0549  0.7255
13715TIP3    H162636   0.276   1.391   3.136  1.5780 -1.2712 -1.3265
13715TIP3    H262637   0.170   1.394   3.028 -0.7883  0.1507  0.9839
13716TIP3   OH262638   5.366   3.536   0.636  0.2169  0.2275 -0.0001
13716TIP3    H162639   5.292   3.543   0.576  1.6499  1.1259 -1.6782
13716TIP3    H262640   5.401   3.448   0.620  1.2114  0.8356 -1.2193
13717TIP3   OH262641   4.815   5.212   3.160 -0.0111 -0.2264 -0.1896
13717TIP3    H162642   4.746   5.218   3.095 -0.0412  0.0660 -0.1289
13717TIP3    H262643   4.777   5.159   3.231 -0.4233  0.5393  0.1689
13718TIP3   OH262644   3.402   6.200  14.073 -0.6512  0.1165  0.2413
13718TIP3    H162645   3.416   6.152  13.992 -0.8371 -0.5432  0.5997
13718TIP3    H262646   3.489   6.204  14.114 -0.9800 -1.5441  1.1147
13719TIP3   OH262647   3.244   5.586  14.212  0.2169  0.1597  0.3948
13719TIP3    H162648   3.152   5.576  14.186  0.0206  1.4335  0.5368
13719TIP3    H262649   3.292   5.589  14.130 -0.0359  0.9355  0.2726
13720TIP3   OH262650   3.954   4.161   0.768 -0.1638 -0.1956  0.6121
13720TIP3    H162651   3.954   4.251   0.799 -0.7567 -0.3935  1.2047
13720TIP3    H262652   3.933   4.109   0.845  2.7231 -1.0750  0.8717
13721TIP3   OH262653   6.303   4.906   0.097 -0.1816 -0.7114 -0.1307
13721TIP3    H162654   6.219   4.864   0.113  0.0310 -2.1141 -2.3929
13721TIP3    H262655   6.361   4.870   0.164 -0.7631 -1.6889 -0.1357
13722TIP3   OH262656   1.745   2.437  11.511  0.3731 -0.3035 -0.0691
13722TIP3    H162657   1.735   2.521  11.467 -0.9129 -0.0088  0.7537
13722TIP3    H262658   1.657   2.399  11.512  0.7963 -1.3137  0.2453
13723TIP3   OH262659   5.229   4.940  13.824 -0.1129 -0.0018 -0.2164
13723TIP3    H162660   5.138   4.925  13.799 -0.1451 -0.2957  0.0722
13723TIP3    H262661   5.278   4.930  13.742 -0.6886  3.5950 -1.0634
13724TIP3   OH262662   5.377   4.781  12.417  0.3555 -1.0189  0.1825
13724TIP3    H162663   5.378   4.824  12.502 -1.1270 -1.8204  0.6164
13724TIP3    H262664   5.414   4.694  12.433  3.1847 -0.0418 -0.6606
13725TIP3   OH262665   4.535   4.481   0.370 -0.2400  0.1176 -0.0061
13725TIP3    H162666   4.579   4.527   0.298  0.3837  0.5382  0.6349
13725TIP3    H262667   4.605   4.460   0.431 -0.5963 -1.3035 -0.0774
13726TIP3   OH262668   6.244   5.828   5.758 -0.0763 -0.8354 -0.4533
13726TIP3    H162669   6.156   5.860   5.776  0.5149 -0.2041  1.4599
13726TIP3    H262670   6.266   5.774   5.834  2.1407  1.0555  0.2943
13727TIP3   OH262671   4.910   2.369  15.713  1.0597 -0.3266  0.2600
13727TIP3    H162672   4.895   2.316  15.634 -1.2959  0.5907  0.0651
13727TIP3    H262673   4.900   2.307  15.785  0.1752 -0.5202 -0.0283
13728TIP3   OH262674   3.331   0.096   0.376  0.7013  0.2267 -0.0138
13728TIP3    H162675   3.397   0.083   0.445  0.7212  0.2313 -0.0317
13728TIP3    H262676   3.278   0.169   0.407 -1.4356 -1.9419  1.6252
13729TIP3   OH262677   2.197   0.156   6.080  0.0240  0.2269 -0.3491
13729TIP3    H162678   2.160   0.068   6.087  1.7338 -0.3347  2.3053
13729TIP3    H262679   2.187   0.179   5.988 -1.3730 -2.3251 -0.8831
13730TIP3   OH262680   2.107   1.924   3.645  0.0240  0.0618  0.1479
13730TIP3    H162681   2.122   2.015   3.620 -1.3051 -0.1261 -1.4247
13730TIP3    H262682   2.011   1.915   3.648  0.1381 -1.2659  0.3529
13731TIP3   OH262683   1.969   4.375   4.554  0.6166  0.0354  0.3451
13731TIP3    H162684   1.885   4.369   4.507 -0.0940 -0.3336  1.6275
13731TIP3    H262685   2.031   4.404   4.488 -0.9856  2.6249 -0.0930
13732TIP3   OH262686   3.763   0.002  13.344  0.5249 -0.0072 -0.1984
13732TIP3    H162687   3.759   0.031  13.435  1.8544 -2.3587  0.6405
13732TIP3    H262688   3.855  -0.018  13.329  0.6653  2.2044 -2.7012
13733TIP3   OH262689   4.105   0.766   5.737 -0.0807  0.6819 -1.0211
13733TIP3    H162690   4.086   0.830   5.669 -0.9700  0.0885 -1.3462
13733TIP3    H262691   4.059   0.799   5.814 -0.0462  0.7476 -1.0292
13734TIP3   OH262692   0.909   5.387   3.846 -0.1152 -0.4123 -0.7335
13734TIP3    H162693   0.991   5.414   3.888 -0.7281  0.7747 -0.2934
13734TIP3    H262694   0.935   5.313   3.791  1.0950 -0.6047  0.0658
13735TIP3   OH262695   1.532   1.517   5.856  0.2524 -0.2441  0.2568
13735TIP3    H162696   1.557   1.448   5.794 -1.9172 -0.5660 -0.3242
13735TIP3    H262697   1.452   1.484   5.897 -0.9819  2.0215 -0.2336
13736TIP3   OH262698   2.036   2.308   4.407  0.0214 -0.0849 -0.0217
13736TIP3    H162699   2.026   2.358   4.488 -0.6284  0.8824 -0.6830
13736TIP3    H262700   1.955   2.323   4.359  0.8469  0.2582 -1.3451
13737TIP3   OH262701   3.740   5.607  13.757 -0.1576 -0.4001  0.1956
13737TIP3    H162702   3.668   5.583  13.698 -1.6862  1.6548  1.1610
13737TIP3    H262703   3.737   5.540  13.826 -2.1453  0.5005  1.0253
13738TIP3   OH262704   6.081   1.461   2.968  0.3649 -0.2703  0.3809
13738TIP3    H162705   6.105   1.507   3.048  0.9188 -0.6854  0.4548
13738TIP3    H262706   6.135   1.500   2.900 -0.8494  0.8041  0.0040
13739TIP3   OH262707   1.240   5.549  12.489  0.0917 -0.1110 -0.4268
13739TIP3    H162708   1.204   5.622  12.539 -0.3465  0.1091 -1.0610
13739TIP3    H262709   1.182   5.475  12.507  0.0496 -0.0843 -0.4547
13740TIP3   OH262710   4.982   5.539   0.729  0.0242  0.2662 -0.4860
13740TIP3    H162711   4.926   5.466   0.703 -0.8926  0.7388  0.1100
13740TIP3    H262712   5.025   5.509   0.809 -0.7443  0.5549  0.0463
13741TIP3   OH262713   5.006   1.064   5.426 -0.5519 -0.5362 -0.3335
13741TIP3    H162714   4.991   0.983   5.473 -0.2596 -0.7985 -0.6907
13741TIP3    H262715   4.922   1.110   5.430  0.0846  0.5269  2.4886
13742TIP3   OH262716   2.871   3.045   0.280 -0.3495  0.8473  0.1121
13742TIP3    H162717   2.914   2.973   0.326 -0.5346  1.0120  0.5381
13742TIP3    H262718   2.845   3.006   0.196  0.5290  0.7157 -0.1079
13743TIP3   OH262719   6.457   5.198  11.521 -0.0065  0.4712 -0.2502
13743TIP3    H162720   6.489   5.166  11.605 -1.4059 -0.9115 -0.2282
13743TIP3    H262721   6.369   5.231  11.539  0.1448  1.2698 -0.9414
13744TIP3   OH262722   3.327   4.227   6.557  0.0478 -0.2836  0.1479
13744TIP3    H162723   3.413   4.263   6.580 -0.1929 -1.6120  3.3809
13744TIP3    H262724   3.345   4.139   6.526 -0.2290 -1.2276  2.5405
13745TIP3   OH262725   0.091   4.408   3.728 -0.2315 -0.2885  0.2714
13745TIP3    H162726   0.130   4.364   3.653  2.2772  1.4743  0.5222
13745TIP3    H262727  -0.002   4.415   3.705  0.6647  1.2606 -3.1656
13746TIP3   OH262728   6.675   0.368  17.029  0.2108  0.0466 -0.1646
13746TIP3    H162729   6.709   0.292  17.077  1.5135  0.1229 -0.9358
13746TIP3    H262730   6.656   0.433  17.097  1.0694 -0.2179  0.3410
13747TIP3   OH262731   3.936   6.543   0.430  0.4397 -0.4437  0.0556
13747TIP3    H162732   3.858   6.596   0.445 -0.1282 -1.0964 -0.5462
13747TIP3    H262733   3.939   6.484   0.506  0.7072  0.0072  0.3976
13748TIP3   OH262734   6.039   2.778  16.566  0.3303 -0.3564  0.4093
13748TIP3    H162735   6.077   2.705  16.519 -1.0875 -1.1274  0.4362
13748TIP3    H262736   5.975   2.816  16.505  0.5409  0.4120  0.6581
13749TIP3   OH262737   3.770   1.872  14.274 -0.4110 -0.0895 -0.2674
13749TIP3    H162738   3.689   1.833  14.239 -0.0820 -0.0205 -1.1243
13749TIP3    H262739   3.740   1.933  14.341 -1.1333  0.6924 -1.2881
13750TIP3   OH262740   0.618   5.231  14.926  0.2667 -0.5531 -0.1203
13750TIP3    H162741   0.545   5.291  14.908  1.3490  1.7723  2.8851
13750TIP3    H262742   0.686   5.256  14.864 -0.2608 -0.4637 -0.6665
13751TIP3   OH262743   1.722   3.756   3.897  0.0777  0.0118  0.4056
13751TIP3    H162744   1.764   3.729   3.816 -0.7889 -0.0135 -0.0450
13751TIP3    H262745   1.776   3.827   3.931 -1.5606  2.5588 -2.1023
13752TIP3   OH262746   0.465   5.725  16.517  0.6639 -0.3462 -0.2504
13752TIP3    H162747   0.523   5.748  16.589  1.3767  0.4357 -1.0661
13752TIP3    H262748   0.386   5.778  16.532  0.8682 -0.0769 -0.1158
13753TIP3   OH262749   3.096   6.770   4.305 -0.6209 -0.0880  0.3556
13753TIP3    H162750   3.075   6.687   4.262  1.6119 -1.0241  0.9688
13753TIP3    H262751   3.080   6.754   4.398 -1.7601  0.7076  0.3027
13754TIP3   OH262752   6.568   2.838   2.906 -0.3930  0.0162 -0.2715
13754TIP3    H162753   6.527   2.839   2.819 -0.1255  2.5247 -0.4031
13754TIP3    H262754   6.577   2.930   2.929 -0.7294 -0.6257  2.5772
13755TIP3   OH262755   5.212   6.778   4.624  0.0813  0.5534 -0.0557
13755TIP3    H162756   5.292   6.809   4.666  0.6425  0.1186 -0.8022
13755TIP3    H262757   5.208   6.685   4.645  0.0577  0.4600 -0.4606
13756TIP3   OH262758   2.108   2.064  11.761 -0.2480 -0.1014  0.1750
13756TIP3    H162759   2.071   2.001  11.823  0.5705 -1.3861 -0.6336
13756TIP3    H262760   2.063   2.047  11.679  0.9536 -0.5695 -0.3957
13757TIP3   OH262761   1.677   5.140   1.792 -0.0938 -0.0399  0.1092
13757TIP3    H162762   1.658   5.079   1.863 -1.2283 -0.1476 -0.2914
13757TIP3    H262763   1.671   5.087   1.712 -1.0834  0.5909 -0.2382
13758TIP3   OH262764   6.124   4.610  13.300  0.8183  0.0346 -0.0777
13758TIP3    H162765   6.109   4.531  13.248 -0.3193 -0.6162  1.2030
13758TIP3    H262766   6.121   4.681  13.237 -1.8385 -0.6345 -0.7419
13759TIP3   OH262767   5.127   3.265   4.402  0.0741  0.2529  0.0830
13759TIP3    H162768   5.107   3.355   4.376 -1.6547  0.3206  1.5456
13759TIP3    H262769   5.055   3.239   4.459  1.5421 -1.3688  1.3013
13760TIP3   OH262770   2.722   3.604   1.757  0.0105  0.7593 -0.2374
13760TIP3    H162771   2.742   3.611   1.850  0.3122 -1.5161 -0.0850
13760TIP3    H262772   2.712   3.694   1.727  0.4581  1.5382  1.8708
13761TIP3   OH262773   1.258   0.048  16.059 -0.2888 -0.6530 -0.1589
13761TIP3    H162774   1.194   0.012  15.998 -2.2415  1.2792  0.6710
13761TIP3    H262775   1.224   0.025  16.146 -0.3991  1.2061  0.3091
13762TIP3   OH262776   1.861   6.158   2.115  0.6260  0.2834 -0.9703
13762TIP3    H162777   1.865   6.246   2.076  0.3158  0.6416 -0.2082
13762TIP3    H262778   1.938   6.114   2.082  1.2319  1.1248 -0.7044
13763TIP3   OH262779   1.463   4.352   0.463 -0.3376  0.2039  0.3887
13763TIP3    H162780   1.457   4.372   0.370  1.1175  0.4564  0.3379
13763TIP3    H262781   1.462   4.256   0.467 -1.9947  0.2028  0.2421
13764TIP3   OH262782   4.151   2.432  11.769 -0.3395  0.8419 -0.1990
13764TIP3    H162783   4.192   2.365  11.824  0.4689  1.8125  0.3957
13764TIP3    H262784   4.203   2.432  11.689 -0.9024  0.1325 -0.5753
13765TIP3   OH262785   6.424   1.424   4.725  0.1102  0.0494 -0.0493
13765TIP3    H162786   6.384   1.497   4.773 -1.5212 -1.4850  0.9596
13765TIP3    H262787   6.494   1.394   4.782 -0.8544 -0.7942  0.7117
13766TIP3   OH262788   5.248   2.711  13.292 -0.3257  0.5002  0.5416
13766TIP3    H162789   5.343   2.722  13.292 -0.4068  1.2398  1.1971
13766TIP3    H262790   5.225   2.698  13.200  0.7494 -2.7473  0.6815
13767TIP3   OH262791   1.142   0.969  15.345 -0.0871  0.5666  0.4225
13767TIP3    H162792   1.135   0.998  15.254  0.2156 -1.4124 -0.2727
13767TIP3    H262793   1.236   0.952  15.357 -0.2358  0.0177  0.8353
13768TIP3   OH262794   3.466   0.426  16.122 -0.1470  0.2157  0.2279
13768TIP3    H162795   3.499   0.512  16.148 -0.3537 -0.1314  1.6700
13768TIP3    H262796   3.427   0.390  16.201 -1.0225 -0.7723 -0.6362
13769TIP3   OH262797   3.657   3.114  11.305  0.2386  0.3586  0.2915
13769TIP3    H162798   3.668   3.022  11.326  1.4826  0.3557 -0.3544
13769TIP3    H262799   3.722   3.159  11.359  1.0688  0.6659 -0.9510
13770TIP3   OH262800   6.111   1.611   2.343  0.3817  0.0525 -0.4194
13770TIP3    H162801   6.203   1.584   2.336 -0.3206 -3.1538  1.5956
13770TIP3    H262802   6.115   1.704   2.365  3.1612  0.0286 -0.6486
13771TIP3   OH262803   5.589   1.070   5.478 -0.4763  0.2280 -0.6766
13771TIP3    H162804   5.614   0.980   5.498 -0.4970  0.3832  0.0620
13771TIP3    H262805   5.626   1.087   5.392  0.2691 -0.2020 -0.4434
13772TIP3   OH262806   0.668   1.143   5.177 -0.0770  0.2782  0.2120
13772TIP3    H162807   0.631   1.098   5.253 -0.5472 -0.1094 -0.2449
13772TIP3    H262808   0.750   1.181   5.209  0.5221 -1.2404  0.5119
13773TIP3   OH262809   5.974   3.733   2.370 -0.4408 -0.4955  0.8654
13773TIP3    H162810   6.002   3.811   2.321  3.8565 -1.4285  1.7036
13773TIP3    H262811   5.938   3.768   2.451  0.8123  0.6755  0.9339
13774TIP3   OH262812   6.203   2.496  14.353  0.3790 -0.1356  0.3274
13774TIP3    H162813   6.194   2.401  14.348  0.7456 -0.3900  3.3998
13774TIP3    H262814   6.116   2.527  14.380  0.2109  0.4333 -0.8383
13775TIP3   OH262815   2.438   1.525   3.006  0.6856 -0.5526  0.0815
13775TIP3    H162816   2.403   1.447   3.049 -2.7822 -0.3402 -2.1328
13775TIP3    H262817   2.462   1.495   2.918 -0.0392  0.6895 -0.5595
13776TIP3   OH262818   4.936   4.657   3.821 -0.1123 -0.1012  0.3383
13776TIP3    H162819   4.920   4.615   3.906  0.6061  1.0366  1.0504
13776TIP3    H262820   4.857   4.708   3.803 -0.2657 -0.3452  0.3187
13777TIP3   OH262821   4.773   2.880   3.932 -0.7199 -0.0138  0.6258
13777TIP3    H162822   4.757   2.830   3.852  0.8531 -0.1868  0.4181
13777TIP3    H262823   4.703   2.946   3.933  0.0591  0.9055 -1.6236
13778TIP3   OH262824   5.636   2.974  16.594 -0.4190 -0.5965 -0.3739
13778TIP3    H162825   5.725   2.985  16.560 -0.0210  0.7103  1.0312
13778TIP3    H262826   5.626   2.879  16.604  1.4123 -0.6774  1.0094
13779TIP3   OH262827   0.386   3.464  15.044  0.9124 -0.6589  0.1200
13779TIP3    H162828   0.355   3.544  15.087  1.2076 -0.4235 -0.0964
13779TIP3    H262829   0.420   3.494  14.960  0.4211 -1.1070 -0.2398
13780TIP3   OH262830   4.353   0.284   5.659  0.4307  0.3365 -0.2479
13780TIP3    H162831   4.446   0.265   5.673 -0.3708 -4.0191 -0.1379
13780TIP3    H262832   4.346   0.300   5.565  1.2670  0.7358 -0.2548
13781TIP3   OH262833   3.331   0.996  17.278  0.0125  0.5093 -0.0195
13781TIP3    H162834   3.413   0.990  17.328 -0.9998 -0.9779  1.5293
13781TIP3    H262835   3.346   0.942  17.200  0.5658  0.3950  0.1647
13782TIP3   OH262836   6.410   6.013   2.455 -0.1914 -0.7766  0.1828
13782TIP3    H162837   6.501   5.987   2.446  0.6518  0.8518  3.4153
13782TIP3    H262838   6.393   6.066   2.376  1.2713 -2.0600 -1.0171
13783TIP3   OH262839   2.531   2.056  15.403  0.0148  0.0631  0.3884
13783TIP3    H162840   2.439   2.068  15.424 -0.0618  1.1941 -0.5582
13783TIP3    H262841   2.533   2.029  15.312  0.5186 -1.9710  0.9758
13784TIP3   OH262842   2.938   3.238  16.200  0.5636 -0.9451 -0.8173
13784TIP3    H162843   2.989   3.157  16.190  1.9302 -0.0879 -0.9687
13784TIP3    H262844   2.993   3.305  16.158 -0.8352 -0.0513 -1.2409
13785TIP3   OH262845   5.186   5.043   0.324 -0.9449 -0.2107  0.2089
13785TIP3    H162846   5.156   4.980   0.258 -1.2174 -1.5177  1.5482
13785TIP3    H262847   5.275   5.064   0.298 -1.8328  1.0792 -1.8870
13786TIP3   OH262848   2.381   1.979   2.775  0.2711  0.1883 -0.5660
13786TIP3    H162849   2.400   1.926   2.852  2.8399  0.4007 -1.0164
13786TIP3    H262850   2.296   1.948   2.744  0.1917 -1.3178  1.1342
13787TIP3   OH262851   1.824   2.360   3.502  0.1888  0.7091 -0.5881
13787TIP3    H162852   1.860   2.428   3.558  1.4152  0.1461 -0.6853
13787TIP3    H262853   1.876   2.363   3.422  0.5450 -0.6041 -0.4312
13788TIP3   OH262854   6.619   4.562   3.130  0.0582 -0.7214  0.1288
13788TIP3    H162855   6.656   4.564   3.042  1.8399 -0.9705  0.8416
13788TIP3    H262856   6.659   4.638   3.174  2.0188 -2.6447  1.7916
13789TIP3   OH262857   5.797   5.462   1.649 -0.6476  0.0806 -0.0013
13789TIP3    H162858   5.828   5.491   1.564 -1.1872  0.8477  0.0540
13789TIP3    H262859   5.761   5.541   1.689  1.1937  0.1261  1.6490
13790TIP3   OH262860   1.467   2.090   6.465 -0.4163 -0.1914 -0.8440
13790TIP3    H162861   1.522   2.109   6.389  0.4112 -0.2998 -0.2682
13790TIP3    H262862   1.489   2.000   6.488  0.7690  0.4986  0.7429
13791TIP3   OH262863   2.711   3.368  17.064 -0.4665  0.2665 -0.2770
13791TIP3    H162864   2.803   3.374  17.037 -0.3788 -0.4261 -0.1568
13791TIP3    H262865   2.713   3.309  17.140 -1.1828 -0.8886 -1.1483
13792TIP3   OH262866   4.362   3.353   3.837 -0.4981  0.2200  0.2122
13792TIP3    H162867   4.392   3.263   3.847 -0.3055  0.3310  0.6321
13792TIP3    H262868   4.424   3.406   3.887 -0.8369  0.5465  0.2968
13793TIP3   OH262869   1.879   4.160   1.847  0.5800 -0.0024  0.3373
13793TIP3    H162870   1.936   4.190   1.919 -0.3145  1.1185  0.5914
13793TIP3    H262871   1.825   4.236   1.827 -0.5054 -0.9214 -0.2306
13794TIP3   OH262872   5.540   1.686  14.172 -0.2919  0.1024 -0.8288
13794TIP3    H162873   5.585   1.696  14.088  0.5825 -1.1164 -0.5206
13794TIP3    H262874   5.611   1.675  14.235 -0.9625  0.5380  0.0005
13795TIP3   OH262875   0.526   4.268   6.096  0.3321 -0.2083 -0.4197
13795TIP3    H162876   0.467   4.317   6.154  1.9155  0.1548  0.9128
13795TIP3    H262877   0.526   4.179   6.130 -0.5569 -0.5653 -1.3089
13796TIP3   OH262878   5.639   3.067  15.130 -0.3567 -0.0076  0.5800
13796TIP3    H162879   5.600   3.108  15.053 -0.8645  0.2046  0.9487
13796TIP3    H262880   5.604   3.116  15.204  1.2278  0.7155  0.8878
13797TIP3   OH262881   3.229   5.046  16.391 -0.1661 -0.6255  0.0113
13797TIP3    H162882   3.295   5.080  16.331 -0.4688 -2.5767 -1.4697
13797TIP3    H262883   3.207   5.121  16.447 -0.5350  1.5033 -2.8750
13798TIP3   OH262884   5.482   5.453  14.142 -0.1924 -0.9018  0.6875
13798TIP3    H162885   5.492   5.548  14.137 -1.4927 -0.7303  1.0482
13798TIP3    H262886   5.571   5.419  14.152  0.2944  0.2593  0.3396
13799TIP3   OH262887   6.390   3.418  12.148 -0.9186 -0.2038 -0.7156
13799TIP3    H162888   6.455   3.384  12.210 -1.2149 -1.8543 -1.2901
13799TIP3    H262889   6.439   3.430  12.066 -0.9047  0.4083 -0.6215
13800TIP3   OH262890   4.803   1.489   5.479 -0.4171 -0.1689  0.1113
13800TIP3    H162891   4.720   1.504   5.524 -0.3777 -0.8213  0.4013
13800TIP3    H262892   4.864   1.461   5.548 -0.1946 -0.5637 -0.2447
13801TIP3   OH262893   2.959   4.639  16.319  0.1918 -0.3273  0.4337
13801TIP3    H162894   3.051   4.612  16.322  0.3950  0.3415  0.3541
13801TIP3    H262895   2.938   4.661  16.410 -0.2290 -1.6005  0.6398
13802TIP3   OH262896   4.685   6.327  14.547  0.4291 -0.1701  0.2786
13802TIP3    H162897   4.598   6.291  14.565  1.5383 -3.0475  0.2137
13802TIP3    H262898   4.685   6.411  14.592 -1.2251 -1.6185  3.2360
13803TIP3   OH262899   3.778   1.634  11.644 -0.1765 -0.2178 -0.0028
13803TIP3    H162900   3.728   1.557  11.671  0.7285 -0.4579  1.0219
13803TIP3    H262901   3.786   1.687  11.723  0.9866 -0.0743 -0.2027
13804TIP3   OH262902   0.965   2.488   3.173 -0.1603 -0.4030 -0.0884
13804TIP3    H162903   1.039   2.544   3.150 -0.7179 -0.1281 -1.2630
13804TIP3    H262904   1.003   2.401   3.188  0.6195  0.1320  1.0908
13805TIP3   OH262905   0.544   1.392   4.003 -0.1460  0.1328 -0.3278
13805TIP3    H162906   0.632   1.420   3.979 -0.2037  0.3748 -0.2609
13805TIP3    H262907   0.556   1.343   4.084 -0.2214  1.2695  0.3882
13806TIP3   OH262908   1.344   5.311  10.847 -0.0009  0.5620 -0.3926
13806TIP3    H162909   1.254   5.338  10.865 -0.9239 -0.8859 -2.6096
13806TIP3    H262910   1.340   5.215  10.844  1.7892  0.4398  0.2708
13807TIP3   OH262911   6.549   6.027  13.013  0.0786  0.2320 -0.1396
13807TIP3    H162912   6.588   5.950  12.972 -1.2707 -0.8319  0.5449
13807TIP3    H262913   6.616   6.095  13.006  1.6548 -1.2851  0.1605
13808TIP3   OH262914   3.505   1.083  13.188  0.1285 -0.4263 -0.0336
13808TIP3    H162915   3.599   1.077  13.167 -0.1103 -0.0916 -1.2291
13808TIP3    H262916   3.482   0.995  13.219  0.8981 -0.4290  0.5730
13809TIP3   OH262917   0.473   4.475  15.293 -0.5895 -0.2122 -0.2435
13809TIP3    H162918   0.442   4.552  15.341 -0.4023 -0.2256 -0.0993
13809TIP3    H262919   0.453   4.401  15.351 -0.0506 -0.1959 -0.0296
13810TIP3   OH262920   5.647   2.312   2.728  0.2439  0.0823  0.2198
13810TIP3    H162921   5.718   2.260   2.767  0.4112  0.6049  0.6174
13810TIP3    H262922   5.573   2.298   2.787 -0.0202 -0.5594 -0.2620
13811TIP3   OH262923   5.214   6.708   2.841  0.0017  0.1804 -0.2429
13811TIP3    H162924   5.287   6.723   2.902  1.5837 -1.2543 -1.7090
13811TIP3    H262925   5.199   6.792   2.799  2.4963 -0.0376 -1.6812
13812TIP3   OH262926   5.446   3.168   1.591 -0.5984 -0.5585  0.2151
13812TIP3    H162927   5.464   3.074   1.586 -0.0985 -0.5025  0.8643
13812TIP3    H262928   5.503   3.208   1.526 -1.1338 -0.7434 -0.3751
13813TIP3   OH262929   3.300   2.524  13.685 -0.1348  0.3033  0.4013
13813TIP3    H162930   3.320   2.449  13.629 -0.1482  1.0167 -0.5594
13813TIP3    H262931   3.241   2.488  13.752  0.3726 -0.6891  0.3332
13814TIP3   OH262932   3.363   0.797   3.751 -0.3951 -1.2941 -0.2111
13814TIP3    H162933   3.372   0.738   3.825  1.0935 -0.2650  0.4536
13814TIP3    H262934   3.448   0.840   3.743 -0.8749 -0.5765 -1.8222
13815TIP3   OH262935   6.351   4.490  17.154 -0.0460 -0.1873 -0.6441
13815TIP3    H162936   6.350   4.578  17.117 -1.5819 -0.0447 -0.2940
13815TIP3    H262937   6.348   4.432  17.077  0.0471  0.0644 -0.8384
13816TIP3   OH262938   5.149   5.123  14.073  0.0985 -0.1519  0.2932
13816TIP3    H162939   5.236   5.113  14.035  0.0080  1.5724 -0.3897
13816TIP3    H262940   5.089   5.108  14.000 -0.4315 -5.9099  1.6190
13817TIP3   OH262941   1.928   1.190  11.350  0.2680 -0.0443  0.4589
13817TIP3    H162942   1.844   1.191  11.396  0.9542 -1.6049  1.7875
13817TIP3    H262943   1.993   1.175  11.418  1.4689 -0.6271 -0.7878
13818TIP3   OH262944   5.400   2.935   4.113 -0.2402 -0.7227  0.6351
13818TIP3    H162945   5.345   2.953   4.189  2.7282  0.7038  2.5654
13818TIP3    H262946   5.472   2.882   4.148  2.1926  1.5709 -0.7623
13819TIP3   OH262947   4.677   1.177  16.554  0.5534  0.1335  0.2674
13819TIP3    H162948   4.665   1.185  16.649 -0.4342 -0.8947  0.2465
13819TIP3    H262949   4.622   1.246  16.517 -0.4187 -0.5468  0.4026
13820TIP3   OH262950   1.161   3.014   4.566 -0.8382  0.5542 -0.4784
13820TIP3    H162951   1.099   3.081   4.596 -1.7687 -0.1325 -0.8609
13820TIP3    H262952   1.245   3.042   4.601 -1.6083  0.7344  1.2422
13821TIP3   OH262953   4.915   2.764  14.689  0.4032  0.6458  0.0806
13821TIP3    H162954   4.899   2.671  14.679  1.7081  0.1901  2.0622
13821TIP3    H262955   4.943   2.793  14.602  1.3227 -1.0713 -0.2111
13822TIP3   OH262956   3.529   5.893  13.046 -0.1533  0.2339  0.1421
13822TIP3    H162957   3.506   5.965  12.987  2.6539 -1.0696 -2.6622
13822TIP3    H262958   3.477   5.819  13.014  0.6195 -0.2179 -0.0766
13823TIP3   OH262959   2.570   1.602  16.341  0.2964  0.3971 -0.1828
13823TIP3    H162960   2.610   1.672  16.393 -0.5194  2.0386 -1.7170
13823TIP3    H262961   2.641   1.540  16.325  1.5087  1.8134 -0.3727
13824TIP3   OH262962   0.597   1.316   5.466 -0.0850 -0.0016  0.1016
13824TIP3    H162963   0.668   1.354   5.517  0.4789 -1.6177  0.5547
13824TIP3    H262964   0.604   1.359   5.380  0.7702  0.6131  0.4668
13825TIP3   OH262965   6.364   5.046  16.967 -0.2397 -0.0110  0.2077
13825TIP3    H162966   6.399   4.974  17.019 -0.2080  0.5644  1.0115
13825TIP3    H262967   6.441   5.085  16.925 -0.1396  0.1161  0.5053
13826TIP3   OH262968   2.693   5.849  16.163 -0.3598  0.1538  0.1959
13826TIP3    H162969   2.673   5.930  16.212  1.2053  1.0058 -0.5352
13826TIP3    H262970   2.770   5.871  16.112 -0.8012 -1.3697 -1.1537
13827TIP3   OH262971   4.290   1.582   1.356  0.0535 -0.4107  0.2633
13827TIP3    H162972   4.262   1.632   1.280  0.6865  1.3606  1.1694
13827TIP3    H262973   4.370   1.537   1.329  0.3031  0.2575 -0.0986
13828TIP3   OH262974   0.070   1.532   4.998 -0.3848 -0.8490  0.1841
13828TIP3    H162975   0.076   1.627   4.985  0.1006 -0.6100  1.9211
13828TIP3    H262976   0.003   1.503   4.936 -2.2988  1.0146  1.2651
13829TIP3   OH262977   0.826   3.587   2.325 -0.4389  0.0188 -0.1826
13829TIP3    H162978   0.870   3.534   2.391 -1.8891 -2.4032 -1.1152
13829TIP3    H262979   0.733   3.565   2.334 -0.8666  1.1068 -1.7338
13830TIP3   OH262980   3.269   3.344  12.577  0.4227  0.5692 -0.0387
13830TIP3    H162981   3.284   3.370  12.486  0.6890  0.6126  0.0171
13830TIP3    H262982   3.226   3.259  12.571 -1.8742  1.7035 -0.2610
13831TIP3   OH262983   1.631   1.835   3.246  0.5884 -0.0874 -0.0137
13831TIP3    H162984   1.582   1.814   3.326  0.8979  0.2025  0.2507
13831TIP3    H262985   1.720   1.850   3.275  0.6540  0.2595 -0.3807
13832TIP3   OH262986   3.033   2.141  14.517  0.1019 -0.3746  0.1709
13832TIP3    H162987   3.101   2.075  14.503 -0.7216 -1.1321 -0.3029
13832TIP3    H262988   3.077   2.210  14.566  0.6249 -1.8916  1.9166
13833TIP3   OH262989   0.636   0.756   6.185  0.0034 -0.0183 -0.5930
13833TIP3    H162990   0.726   0.728   6.200 -0.1814 -0.1227  0.3970
13833TIP3    H262991   0.584   0.703   6.246 -0.5781  0.9758 -0.2141
13834TIP3   OH262992   6.183   3.093  12.611 -0.0162 -0.0387 -0.3108
13834TIP3    H162993   6.154   3.031  12.679  1.6741 -1.2934 -0.6810
13834TIP3    H262994   6.157   3.051  12.529  1.4870 -0.4585 -0.5781
13835TIP3   OH262995   2.461   3.001  11.084 -0.3385  0.1065 -0.1482
13835TIP3    H162996   2.398   2.939  11.048  0.9116  0.0698 -2.3859
13835TIP3    H262997   2.440   3.084  11.041 -1.1877  0.9759  1.8708
13836TIP3   OH262998   3.719   1.729  14.993  0.0576  0.1967  0.3527
13836TIP3    H162999   3.690   1.786  15.064  3.3493  1.0388  1.0937
13836TIP3    H263000   3.811   1.752  14.980  0.6231 -2.8296 -1.4037
13837TIP3   OH263001   3.407   5.532   4.281 -0.1826  0.1487  0.3062
13837TIP3    H163002   3.449   5.616   4.260 -1.4054  0.7648  0.2987
13837TIP3    H263003   3.322   5.556   4.317 -0.9628 -1.1269 -0.6615
13838TIP3   OH263004   5.379   1.109   1.193 -0.3772 -0.2551  1.0301
13838TIP3    H163005   5.374   1.080   1.102  0.3083 -0.0762  0.9350
13838TIP3    H263006   5.290   1.137   1.214 -0.5619 -0.4025  0.4507
13839TIP3   OH263007   1.011   2.510  15.121 -0.2928 -0.4729  0.2808
13839TIP3    H163008   1.013   2.415  15.112  0.5432 -0.3472 -0.9914
13839TIP3    H263009   1.098   2.533  15.155 -0.0383 -0.0644 -0.6139
13840TIP3   OH263010   4.650   3.077   4.327  0.2030  0.3528  0.2317
13840TIP3    H163011   4.571   3.030   4.301  0.7050 -0.2748 -0.1900
13840TIP3    H263012   4.662   3.143   4.259 -0.2257  0.7756  0.5588
13841TIP3   OH263013   0.005   4.135  15.436  0.0655 -0.8625  0.3462
13841TIP3    H163014   0.036   4.096  15.355 -0.3316 -1.2000  0.3532
13841TIP3    H263015   0.080   4.131  15.495  0.3133 -0.7334  0.0353
13842TIP3   OH263016   5.901   6.196  13.312 -0.0188 -0.3437 -0.0016
13842TIP3    H163017   5.994   6.187  13.289  0.2574  0.1379  0.8866
13842TIP3    H263018   5.885   6.128  13.377 -0.1250 -0.0251  0.3095
13843TIP3   OH263019   0.494   0.635  12.639 -0.0114 -0.6611 -0.7166
13843TIP3    H163020   0.421   0.619  12.579  0.7054 -1.1360 -1.4749
13843TIP3    H263021   0.510   0.729  12.632  1.5861 -1.0599 -3.0717
13844TIP3   OH263022   1.953   1.469  12.129 -0.1370  0.1839 -0.8900
13844TIP3    H163023   1.901   1.487  12.050 -2.5637  1.5428  0.9291
13844TIP3    H263024   1.949   1.551  12.179  1.6385 -0.5388  0.4860
13845TIP3   OH263025   6.245   2.583   2.016 -0.2616 -0.0706  0.1837
13845TIP3    H163026   6.211   2.499   2.045 -1.2356 -0.5143 -2.1292
13845TIP3    H263027   6.204   2.598   1.931  2.0435  1.4188 -0.7295
13846TIP3   OH263028   2.138   2.712   1.610 -0.0756  0.0480  0.1883
13846TIP3    H163029   2.164   2.762   1.533 -2.0387  0.6393 -0.1231
13846TIP3    H263030   2.131   2.777   1.680  0.7393 -0.3364  0.6336
13847TIP3   OH263031   6.810   3.757   3.520  0.8400  0.1422  0.3371
13847TIP3    H163032   6.756   3.797   3.588  1.0378  0.4524  0.3106
13847TIP3    H263033   6.856   3.686   3.564  1.5153  0.7974  0.6941
13848TIP3   OH263034   2.880   6.595  10.587  0.6258 -0.9341  0.4087
13848TIP3    H163035   2.885   6.607  10.493  1.8110 -0.7761  0.4820
13848TIP3    H263036   2.957   6.543  10.609 -0.0313 -1.6046  1.1921
13849TIP3   OH263037   4.756   5.511  11.733  0.3207  0.5679  0.6549
13849TIP3    H163038   4.773   5.588  11.679  1.1765  0.9289  1.4265
13849TIP3    H263039   4.794   5.532  11.818 -0.6806 -0.1459  1.2955
13850TIP3   OH263040   6.662   6.298   6.146 -0.5573 -0.5783 -0.2247
13850TIP3    H163041   6.576   6.283   6.109 -0.4504  0.5404 -0.9425
13850TIP3    H263042   6.710   6.217   6.130 -0.0677  0.3362 -3.8176
13851TIP3   OH263043   3.038   3.541  16.401  0.0969 -0.1332 -0.0591
13851TIP3    H163044   3.090   3.477  16.351  0.4306  1.0453 -1.2544
13851TIP3    H263045   3.103   3.603  16.435 -0.2289 -0.3865  1.0579
13852TIP3   OH263046   4.764   3.893   3.102  0.1928 -0.9095 -0.6812
13852TIP3    H163047   4.817   3.894   3.181 -0.9236  0.9338  0.0955
13852TIP3    H263048   4.740   3.801   3.090 -0.0445 -1.1434  1.4134
13853TIP3   OH263049   3.333   6.467  15.672 -0.1410  0.0995  0.1135
13853TIP3    H163050   3.341   6.545  15.726  1.9615 -0.1070  0.1101
13853TIP3    H263051   3.358   6.394  15.729  0.4450 -0.2944 -0.6339
13854TIP3   OH263052   2.181   1.198  15.794 -0.1964 -0.0455  0.1770
13854TIP3    H163053   2.198   1.250  15.872  0.7885 -1.6643  1.0774
13854TIP3    H263054   2.263   1.203  15.744  0.2103 -1.3931  0.6834
13855TIP3   OH263055   6.808   2.370  11.458 -0.3227  0.0329 -0.4059
13855TIP3    H163056   6.883   2.421  11.490  0.5740 -0.4706 -1.6572
13855TIP3    H263057   6.802   2.393  11.365 -1.7226  0.0485 -0.3264
13856TIP3   OH263058   6.486   3.876   1.459 -0.0969 -0.0605 -0.0476
13856TIP3    H163059   6.477   3.854   1.366 -1.7416  0.4032 -0.0075
13856TIP3    H263060   6.406   3.843   1.499 -0.1320  1.1960  0.9382
13857TIP3   OH263061   6.729   3.294  12.839  0.5746  0.1661  0.5939
13857TIP3    H163062   6.804   3.257  12.792  0.2034  1.7924 -1.3849
13857TIP3    H263063   6.662   3.305  12.771 -1.1690 -0.4905  2.1746
13858TIP3   OH263064   5.224   3.643  11.551  0.2945 -0.2785  0.4015
13858TIP3    H163065   5.180   3.707  11.494  0.4208 -1.1909 -0.7366
13858TIP3    H263066   5.317   3.655  11.533  0.4540  0.6714  1.7649
13859TIP3   OH263067   0.670   5.115   6.269 -0.2553 -0.0831 -0.0312
13859TIP3    H163068   0.751   5.098   6.317  0.2989 -0.0023 -0.9345
13859TIP3    H263069   0.647   5.205   6.292 -0.4752 -0.3402  0.7766
13860TIP3   OH263070   3.599   6.631  14.028  0.3319  0.2186 -0.2216
13860TIP3    H163071   3.514   6.588  14.013  0.3867  0.0722 -0.1116
13860TIP3    H263072   3.579   6.703  14.087  0.1665  0.6094 -0.7452
13861TIP3   OH263073   1.085   3.918  15.123  0.0053 -0.2146  0.1199
13861TIP3    H163074   1.123   3.834  15.099  0.9924  0.3001 -0.1295
13861TIP3    H263075   1.037   3.946  15.045  0.0827 -0.3231  0.0340
13862TIP3   OH263076   4.365   4.204   1.471  0.6148  0.1178 -0.4621
13862TIP3    H163077   4.444   4.182   1.520 -0.1663  1.3750  1.4006
13862TIP3    H263078   4.335   4.287   1.509 -0.4594  0.7170 -2.5385
13863TIP3   OH263079   3.421   1.046  15.457  0.4331 -0.3175 -0.0068
13863TIP3    H163080   3.348   0.985  15.456 -1.3031  1.6898 -0.1643
13863TIP3    H263081   3.471   1.026  15.378 -1.2312 -0.2529 -1.0963
13864TIP3   OH263082   4.239   0.299  12.436 -0.2247  0.1154  0.5460
13864TIP3    H163083   4.247   0.318  12.530 -1.5420 -1.8929  1.1053
13864TIP3    H263084   4.167   0.236  12.431  0.1023 -0.1084 -1.7900
13865TIP3   OH263085   1.878   1.193  15.229  0.1374  0.4940  0.0644
13865TIP3    H163086   1.861   1.103  15.253  0.7862 -0.2341 -2.0314
13865TIP3    H263087   1.965   1.212  15.265 -0.9863  1.1091  2.5696
13866TIP3   OH263088   3.889   2.849   1.429 -0.1090 -0.1547 -0.2261
13866TIP3    H163089   3.917   2.875   1.341 -0.8106 -1.3809 -0.8118
13866TIP3    H263090   3.794   2.860   1.428 -0.2274 -1.1482  0.0614
13867TIP3   OH263091   3.185   1.039   1.157  0.1282  0.4466 -0.0903
13867TIP3    H163092   3.215   0.959   1.113 -0.7374 -0.0293  0.1649
13867TIP3    H263093   3.228   1.110   1.110 -0.1833 -0.1023 -1.2322
13868TIP3   OH263094   6.158   6.655   3.536  0.2471  0.0081  0.1313
13868TIP3    H163095   6.074   6.616   3.560 -0.5683  0.6747 -1.6337
13868TIP3    H263096   6.207   6.583   3.495  0.2412 -0.1619  0.4182
13869TIP3   OH263097   1.855   5.879  15.159 -0.4040  0.2066 -0.1792
13869TIP3    H163098   1.841   5.954  15.215  0.0570 -0.2219  0.5207
13869TIP3    H263099   1.941   5.895  15.118 -1.5926  1.4524 -2.2676
13870TIP3   OH263100   5.532   5.163   5.390 -0.3554  0.4607  0.2045
13870TIP3    H163101   5.580   5.246   5.383 -0.4837  0.7480  2.3123
13870TIP3    H263102   5.440   5.189   5.396 -0.3889  0.1818  0.9491
13871TIP3   OH263103   3.306   3.588   3.041 -0.2857  0.2156  0.5711
13871TIP3    H163104   3.364   3.647   3.089 -0.5158  0.3114  0.7346
13871TIP3    H263105   3.218   3.619   3.063 -0.4277 -0.6734  1.2794
13872TIP3   OH263106   6.671   1.918  12.585  0.2972  0.5999  0.1487
13872TIP3    H163107   6.647   1.830  12.612  1.0641  0.5011  0.5102
13872TIP3    H263108   6.644   1.923  12.493  0.2403  0.0032  0.1337
13873TIP3   OH263109   0.384   1.294  12.296  0.2969  0.0429  0.2319
13873TIP3    H163110   0.308   1.288  12.354  0.2629 -1.4419  0.0753
13873TIP3    H263111   0.413   1.385  12.302 -2.4200  1.0113 -0.9218
13874TIP3   OH263112   5.925   3.761  11.392 -0.0524  0.3980 -0.1707
13874TIP3    H163113   5.874   3.690  11.430  0.1002  0.4970  0.2183
13874TIP3    H263114   5.954   3.726  11.307 -0.3210  0.1509 -0.1648
13875TIP3   OH263115   2.008   6.484   2.419  0.0600 -0.1241 -0.4885
13875TIP3    H163116   2.011   6.400   2.374  0.6126 -0.3929  0.0425
13875TIP3    H263117   2.077   6.536   2.378  1.5803 -0.8888  1.0602
13876TIP3   OH263118   3.104   6.465  12.383 -0.5552  0.2269  0.7361
13876TIP3    H163119   3.195   6.435  12.388 -0.7173 -0.4696 -0.3572
13876TIP3    H263120   3.097   6.507  12.297 -0.9062  1.5085  1.3811
13877TIP3   OH263121   6.794   2.152  13.886  0.2248 -0.2560  0.5960
13877TIP3    H163122   6.772   2.222  13.947 -0.9910  0.8822 -1.0962
13877TIP3    H263123   6.710   2.117  13.858  0.7576 -0.4405 -0.7984
13878TIP3   OH263124   5.852   4.514   3.765  0.4091  0.2375  0.2354
13878TIP3    H163125   5.782   4.461   3.803  0.3857  1.0846  1.4197
13878TIP3    H263126   5.820   4.539   3.679 -0.6711  0.4503  0.6906
13879TIP3   OH263127   1.763   6.679  15.626  0.0371  0.6785  0.5630
13879TIP3    H163128   1.833   6.692  15.691  1.3088  2.2791 -1.0933
13879TIP3    H263129   1.733   6.767  15.605 -0.2775  0.1929 -1.1035
13880TIP3   OH263130   0.669   4.806   5.712  0.3352 -0.7292 -0.1491
13880TIP3    H163131   0.598   4.753   5.675 -1.0365  0.8989  0.1409
13880TIP3    H263132   0.706   4.852   5.636  0.2777 -0.6330 -0.1186
13881TIP3   OH263133   1.788   6.456   4.261  0.1924  0.0071 -0.8002
13881TIP3    H163134   1.794   6.437   4.168 -0.6075 -0.4764 -0.7562
13881TIP3    H263135   1.763   6.373   4.301  0.4621  0.2288 -0.1646
13882TIP3   OH263136   0.331   2.014   0.745 -0.0060  0.1782  0.0960
13882TIP3    H163137   0.350   1.936   0.692 -0.1174  0.6578 -0.6545
13882TIP3    H263138   0.280   2.071   0.687 -1.9775 -0.1877  1.4088
13883TIP3   OH263139   0.617   5.852  17.045  0.0229 -0.0759  0.5506
13883TIP3    H163140   0.616   5.758  17.027 -1.6074  0.0074  0.0824
13883TIP3    H263141   0.688   5.886  16.990 -0.6059 -0.7761 -0.7310
13884TIP3   OH263142   1.288   4.454   1.311  0.3944  0.3218 -0.3827
13884TIP3    H163143   1.236   4.530   1.338  2.2760  1.1911  0.9344
13884TIP3    H263144   1.270   4.388   1.378  0.7104  0.4976 -0.1240
13885TIP3   OH263145   0.729   1.046   3.352 -0.3133 -0.0745 -0.0733
13885TIP3    H163146   0.775   1.078   3.274  0.8322 -2.6984 -0.5151
13885TIP3    H263147   0.647   1.010   3.318 -0.5698  0.3149  0.1352
13886TIP3   OH263148   3.638   0.675   2.206  0.4136  0.6389  0.0905
13886TIP3    H163149   3.688   0.750   2.173  0.5913  1.3214  1.8466
13886TIP3    H263150   3.624   0.694   2.299  0.7160 -1.6432  0.6434
13887TIP3   OH263151   4.874   1.047   3.984  0.0216  0.5263 -0.4732
13887TIP3    H163152   4.960   1.090   3.990 -0.4467  1.0718  3.7268
13887TIP3    H263153   4.819   1.111   3.939  0.5329  2.4258  1.5129
13888TIP3   OH263154   3.561   4.783   3.784  0.3083 -0.1561  0.2031
13888TIP3    H163155   3.614   4.718   3.830  2.1603  0.6537 -0.7377
13888TIP3    H263156   3.594   4.868   3.815  0.0952  0.3667 -0.9738
13889TIP3   OH263157   4.425   3.628  16.397 -0.0820 -0.1317  0.3280
13889TIP3    H163158   4.426   3.681  16.477 -0.7267 -1.0974  0.9842
13889TIP3    H263159   4.333   3.604  16.387 -0.0675  0.3243 -0.9376
13890TIP3   OH263160   3.271   6.458  11.690  0.2135 -0.3532  0.1508
13890TIP3    H163161   3.189   6.484  11.647  0.8556  1.1440 -0.1962
13890TIP3    H263162   3.276   6.514  11.768  1.5889  0.5719 -0.5782
13891TIP3   OH263163   5.260   2.417   1.270 -0.0943  0.0722 -0.5795
13891TIP3    H163164   5.290   2.459   1.189  2.7104 -0.0219  0.3663
13891TIP3    H263165   5.217   2.488   1.319 -0.7551  0.3997 -1.6011
13892TIP3   OH263166   6.421   6.143   0.510 -0.4700 -0.0816  0.0094
13892TIP3    H163167   6.497   6.201   0.501 -0.6343  0.2134  0.5164
13892TIP3    H263168   6.373   6.178   0.585 -0.1010 -1.4019  0.8857
13893TIP3   OH263169   2.930   5.390   2.885 -0.1663 -0.0131 -0.3269
13893TIP3    H163170   2.888   5.426   2.963 -1.2943  0.9453 -1.3545
13893TIP3    H263171   3.023   5.411   2.896 -0.5737  1.7719 -0.1133
13894TIP3   OH263172   0.323   3.194   5.447 -0.8057  0.1490 -0.2235
13894TIP3    H163173   0.288   3.189   5.536 -1.0738 -0.3845 -0.3538
13894TIP3    H263174   0.400   3.250   5.454 -1.2928  0.7807  0.1943
13895TIP3   OH263175   2.940   0.430  15.408 -0.0563  0.1040  0.1919
13895TIP3    H163176   2.867   0.470  15.455  0.1904  2.2356 -1.1518
13895TIP3    H263177   3.018   0.468  15.449  0.2221  0.1020 -0.3372
13896TIP3   OH263178   1.377   2.792   5.382 -0.2524  0.2435  0.5152
13896TIP3    H163179   1.286   2.772   5.359  0.1457 -1.5464  0.3998
13896TIP3    H263180   1.373   2.878   5.423 -1.4490  2.0644 -3.1632
13897TIP3   OH263181   5.107   0.385  11.213 -0.5130 -0.1190  0.8042
13897TIP3    H163182   5.046   0.449  11.250  0.7320  2.0260 -0.7365
13897TIP3    H263183   5.185   0.392  11.269  0.3341  1.1320 -0.4905
13898TIP3   OH263184   3.742   4.389   5.718  0.8322  0.0052  0.0050
13898TIP3    H163185   3.674   4.339   5.674  0.9136  1.6827 -2.1286
13898TIP3    H263186   3.696   4.463   5.759  0.9116 -0.9021  1.7885
13899TIP3   OH263187   6.474   3.823  15.209 -0.4342  0.4842  0.1551
13899TIP3    H163188   6.514   3.894  15.259 -0.1217  0.6851 -0.3764
13899TIP3    H263189   6.453   3.863  15.124 -0.0139 -0.1321 -0.2387
13900TIP3   OH263190   0.335   4.609   1.135  0.1636 -0.1010  0.2627
13900TIP3    H163191   0.293   4.523   1.139  1.0019 -0.6173 -1.6936
13900TIP3    H263192   0.429   4.590   1.131  0.3866  0.9253  0.5233
13901TIP3   OH263193   1.873   6.205  15.993  0.0149  0.6106 -0.0209
13901TIP3    H163194   1.903   6.276  16.050 -0.2592  0.6993  0.0108
13901TIP3    H263195   1.884   6.240  15.904 -1.8973  1.4078  0.0335
13902TIP3   OH263196   5.333   6.390  12.809 -0.0798 -0.5544  0.2489
13902TIP3    H163197   5.324   6.385  12.714 -2.1614  0.0708  0.3709
13902TIP3    H263198   5.350   6.300  12.836 -0.3716 -0.8854 -0.6498
13903TIP3   OH263199   2.494   3.798   5.633  0.6126 -0.2033  0.5403
13903TIP3    H163200   2.556   3.862   5.668 -0.8246  1.4302  0.1634
13903TIP3    H263201   2.411   3.818   5.676 -0.5802  0.1845 -1.8234
13904TIP3   OH263202   3.873   4.874  14.944  0.4695 -0.5174 -0.0628
13904TIP3    H163203   3.934   4.897  14.874 -0.2669  2.7310  0.2878
13904TIP3    H263204   3.789   4.864  14.900  0.7557 -2.5254 -0.1903
13905TIP3   OH263205   4.270   2.168   2.248  0.2683  0.4037  0.6467
13905TIP3    H163206   4.214   2.243   2.227  1.3328  1.0799  0.1848
13905TIP3    H263207   4.349   2.207   2.284  0.7414 -0.5149  0.6042
13906TIP3   OH263208   1.155   0.259  11.926 -0.2643  0.4511 -0.1420
13906TIP3    H163209   1.061   0.272  11.939 -0.0615  2.0992 -0.3140
13906TIP3    H263210   1.174   0.178  11.974 -1.7535  0.1244 -0.0750
13907TIP3   OH263211   2.562   0.286  13.396 -0.0360 -0.7238  0.3896
13907TIP3    H163212   2.590   0.209  13.346  3.0388  1.8326 -2.0717
13907TIP3    H263213   2.481   0.314  13.353  0.0801 -1.2510 -0.1915
13908TIP3   OH263214   5.451   4.720   3.628  0.4162  0.1192  0.7418
13908TIP3    H163215   5.409   4.796   3.669 -2.5645 -0.6255 -0.7686
13908TIP3    H263216   5.412   4.645   3.672 -1.4108 -0.6462 -2.0300
13909TIP3   OH263217   3.964   3.911  16.161  0.3335 -0.2091 -0.3067
13909TIP3    H163218   3.939   3.852  16.090  1.0844 -1.4486  0.4478
13909TIP3    H263219   4.026   3.972  16.122 -0.6750  0.2929 -1.1643
13910TIP3   OH263220   2.330   5.443  12.046 -0.1562  0.2615 -0.2616
13910TIP3    H163221   2.373   5.491  11.975  2.1441 -1.4780 -0.0790
13910TIP3    H263222   2.241   5.429  12.015 -0.1503  2.4371 -1.3662
13911TIP3   OH263223   3.128   6.556   0.193 -0.0238  0.1017  0.9774
13911TIP3    H163224   3.084   6.626   0.144  0.8058 -1.1759 -1.7046
13911TIP3    H263225   3.058   6.516   0.245 -1.3191  0.3833 -0.5085
13912TIP3   OH263226   2.850   5.810  16.509 -0.7764  0.0576 -0.0704
13912TIP3    H163227   2.813   5.724  16.490 -0.5484  0.1290 -0.8731
13912TIP3    H263228   2.917   5.822  16.442 -1.2613  1.1460 -0.3640
13913TIP3   OH263229   6.383   4.942   1.741  0.0672 -0.1156 -0.4458
13913TIP3    H163230   6.471   4.979   1.737 -0.4501  1.2823  1.0463
13913TIP3    H263231   6.335   4.997   1.802 -1.5692 -1.4867 -0.4366
13914TIP3   OH263232   5.102   3.260   2.374  0.8535  0.4455  0.3317
13914TIP3    H163233   5.189   3.219   2.371  0.0707 -1.2929  0.7330
13914TIP3    H263234   5.046   3.194   2.414 -0.7297  1.4332 -0.2166
13915TIP3   OH263235   0.315   0.443  14.172 -0.5037  0.2525  0.0767
13915TIP3    H163236   0.401   0.434  14.131  0.4401  0.5221  1.9557
13915TIP3    H263237   0.296   0.357  14.209 -0.9021  0.2759 -0.0713
13916TIP3   OH263238   4.587   3.148   0.482  0.5247 -0.1601 -0.1403
13916TIP3    H163239   4.538   3.077   0.441  1.3202 -1.0615  0.4472
13916TIP3    H263240   4.672   3.146   0.438  0.8281 -0.0976  0.4423
13917TIP3   OH263241   6.306   6.439   0.094  0.7901 -0.6693 -0.5820
13917TIP3    H163242   6.265   6.390   0.023  1.6816 -0.4185 -1.2767
13917TIP3    H263243   6.280   6.392   0.174 -0.8812 -0.4895 -0.9920
13918TIP3   OH263244   1.392   2.246   5.721 -0.3697  0.0118 -0.5737
13918TIP3    H163245   1.477   2.234   5.763 -0.6463 -0.5663 -0.1578
13918TIP3    H263246   1.360   2.330   5.754 -0.7533 -0.6134  0.6949
13919TIP3   OH263247   4.591   2.132  13.004 -0.1218 -0.0450  0.2065
13919TIP3    H163248   4.592   2.055  12.947 -3.4926  0.2483 -0.3597
13919TIP3    H263249   4.499   2.143  13.029  0.6032  2.5373  2.0133
13920TIP3   OH263250   5.956   4.051  16.602  0.1240 -0.9299  0.1581
13920TIP3    H163251   6.041   4.010  16.619  0.2712 -0.4875  0.4906
13920TIP3    H263252   5.895   4.003  16.658  0.6356  0.6403  2.1495
13921TIP3   OH263253   0.863   0.885  11.770 -0.4478 -0.5350  0.1799
13921TIP3    H163254   0.916   0.889  11.850  0.9234 -1.1574 -0.6685
13921TIP3    H263255   0.916   0.832  11.709 -0.8839  0.9669 -1.5553
13922TIP3   OH263256   5.932   6.462   3.270 -0.1570  0.4208 -0.0469
13922TIP3    H163257   5.924   6.517   3.349  1.5464 -1.1091  1.2396
13922TIP3    H263258   5.866   6.393   3.282  0.6401 -0.2694  0.4560
13923TIP3   OH263259   4.658   3.730  13.451 -0.2888 -0.0458 -0.2878
13923TIP3    H163260   4.624   3.656  13.401  0.1995 -0.5146  0.0667
13923TIP3    H263261   4.580   3.774  13.485 -0.5512 -1.1085  0.5088
13924TIP3   OH263262   5.036   3.270  11.208  0.2403 -0.0359 -0.5340
13924TIP3    H163263   5.052   3.255  11.302  1.0538  2.1676 -0.2959
13924TIP3    H263264   4.962   3.212  11.187  0.3103 -0.8574  1.3752
13925TIP3   OH263265   6.455   2.428  15.693 -0.5216  0.5276 -0.0353
13925TIP3    H163266   6.443   2.358  15.757  0.8034  0.2537 -0.0751
13925TIP3    H263267   6.464   2.382  15.609 -0.2036  0.7798 -0.1389
13926TIP3   OH263268   6.499   2.394   4.985  0.6991  0.3729 -0.0350
13926TIP3    H163269   6.438   2.334   5.027  1.7693 -1.3992 -0.9692
13926TIP3    H263270   6.490   2.476   5.035 -1.5533 -0.2058  0.5682
13927TIP3   OH263271   6.761   3.536  14.801 -0.3131  0.1152 -0.4011
13927TIP3    H163272   6.711   3.485  14.738  1.1743 -0.0735 -1.4543
13927TIP3    H263273   6.713   3.527  14.883 -1.3115 -1.0831 -1.1092
13928TIP3   OH263274   3.718   4.711  11.977  0.3485 -0.0729  0.3747
13928TIP3    H163275   3.638   4.667  11.949 -0.0512  0.2534  0.9855
13928TIP3    H263276   3.705   4.728  12.070  1.2621 -0.2913  0.5453
13929TIP3   OH263277   1.451   4.369  16.181  0.1178 -0.0485 -0.0279
13929TIP3    H163278   1.499   4.302  16.132  1.1672 -0.4767  1.5005
13929TIP3    H263279   1.377   4.321  16.220 -0.1112  0.0599 -0.3300
13930TIP3   OH263280   1.340   2.234  11.716  0.0211  0.1940  0.3708
13930TIP3    H163281   1.389   2.305  11.757  0.4622 -0.8441  1.6786
13930TIP3    H263282   1.315   2.177  11.789 -0.9473 -0.6194 -0.5778
13931TIP3   OH263283   0.710   4.346   1.650  0.1656  0.1458  0.5881
13931TIP3    H163284   0.703   4.272   1.588  1.4874  0.2262  0.3341
13931TIP3    H263285   0.671   4.313   1.731  0.4160 -0.7120  0.3657
13932TIP3   OH263286   3.758   1.927  17.073  0.0148 -1.0329 -0.4641
13932TIP3    H163287   3.835   1.938  17.017  0.3932  1.3864  0.4647
13932TIP3    H263288   3.711   1.853  17.035  1.4562 -0.9055 -2.5901
13933TIP3   OH263289   6.331   3.071   0.179 -0.1727  0.3783 -0.7491
13933TIP3    H163290   6.361   3.068   0.270 -3.6944  1.9240  0.5719
13933TIP3    H263291   6.276   2.994   0.169 -1.0542  1.0307 -1.0398
13934TIP3   OH263292   1.451   1.652   2.765  0.0562 -0.0858  0.0371
13934TIP3    H163293   1.369   1.604   2.771 -0.4004  0.8167  1.3453
13934TIP3    H263294   1.480   1.662   2.856  0.6082  1.2802 -0.2704
13935TIP3   OH263295   3.857   1.775   0.701  0.4122  0.4905 -0.2082
13935TIP3    H163296   3.843   1.686   0.668 -1.5751  1.7253 -2.8548
13935TIP3    H263297   3.952   1.787   0.698  0.6014 -1.0771 -1.0602
13936TIP3   OH263298   5.995   1.769   3.014 -0.2566  0.4619  0.2873
13936TIP3    H163299   6.024   1.859   3.030 -0.1485  0.4556  0.1324
13936TIP3    H263300   6.039   1.718   3.082  0.1244  0.4489  0.0381
13937TIP3   OH263301   2.747   2.288  11.493  0.7830 -0.1344 -0.0295
13937TIP3    H163302   2.762   2.194  11.486 -1.0284 -0.5247  1.2056
13937TIP3    H263303   2.658   2.297  11.526  1.8086  1.9535  2.3799
13938TIP3   OH263304   1.128   2.222  12.968 -0.2848 -0.2871  0.1404
13938TIP3    H163305   1.097   2.202  13.056 -1.1142 -1.3285 -0.3808
13938TIP3    H263306   1.216   2.185  12.964 -0.6509 -1.1800  0.1920
13939TIP3   OH263307   1.248   2.207   0.418  0.2362  0.2079  0.3538
13939TIP3    H163308   1.244   2.301   0.437 -0.7909 -0.1176  1.8205
13939TIP3    H263309   1.171   2.171   0.462  2.1838 -1.7538  2.2540
13940TIP3   OH263310   1.133   0.335  16.965 -0.2743  0.7463 -0.0065
13940TIP3    H163311   1.052   0.338  16.915 -0.4019  0.6444  0.1940
13940TIP3    H263312   1.177   0.255  16.936 -0.0857  0.9767 -0.3607
13941TIP3   OH263313   5.715   2.711  16.025  0.6554 -0.0017  0.2544
13941TIP3    H163314   5.643   2.665  15.982  0.3892  0.0967  0.5919
13941TIP3    H263315   5.723   2.794  15.978  0.5787 -0.0331  0.1875
13942TIP3   OH263316   5.699   2.497   4.928  0.5087  0.4801  0.4976
13942TIP3    H163317   5.631   2.537   4.982 -0.0231  0.2288  0.0307
13942TIP3    H263318   5.778   2.546   4.947  0.0829  1.0970  0.6874
13943TIP3   OH263319   0.027   2.961   5.047 -0.2332  0.0835  0.0126
13943TIP3    H163320   0.108   2.954   5.097  1.5054 -0.2822 -2.7671
13943TIP3    H263321  -0.017   2.877   5.061 -0.2803  0.3543  1.6792
13944TIP3   OH263322   6.153   4.289  14.865 -0.4348 -0.4901 -0.1373
13944TIP3    H163323   6.146   4.336  14.948 -0.9882 -0.3587 -0.2570
13944TIP3    H263324   6.085   4.328  14.810  1.3152  0.8542 -1.3519
13945TIP3   OH263325   4.466   4.140  11.631  0.2782 -0.6531  0.1301
13945TIP3    H163326   4.486   4.056  11.673  0.1071 -0.7636 -0.0113
13945TIP3    H263327   4.549   4.188  11.634  1.1464 -1.9398 -2.3557
13946TIP3   OH263328   0.953   3.458   2.065 -0.4082  0.0795  0.1055
13946TIP3    H163329   0.932   3.514   2.140 -0.3250 -1.2881  1.1725
13946TIP3    H263330   1.009   3.512   2.010  0.4129  0.7483  1.5625
13947TIP3   OH263331   1.650   5.094   2.554 -0.8537  0.1020 -0.6392
13947TIP3    H163332   1.714   5.132   2.493 -0.1675 -1.0262 -0.6466
13947TIP3    H263333   1.704   5.053   2.622 -1.6052  1.3543  0.7613
13948TIP3   OH263334   3.032   3.429  14.214 -0.3209 -0.2699  0.4006
13948TIP3    H163335   2.988   3.509  14.243  1.7094  1.0097  0.0402
13948TIP3    H263336   3.039   3.376  14.293 -2.3875 -0.4493  0.4837
13949TIP3   OH263337   4.692   4.797   2.358 -0.1658 -0.5876 -0.2823
13949TIP3    H163338   4.686   4.740   2.435 -2.9365 -2.2616 -1.6862
13949TIP3    H263339   4.658   4.881   2.389  1.1291 -0.5097  0.9888
13950TIP3   OH263340   0.550   6.722   1.408  0.4588  0.0582 -0.1768
13950TIP3    H163341   0.597   6.676   1.338 -1.6618 -1.8515 -0.3973
13950TIP3    H263342   0.479   6.663   1.432 -0.2219  1.7085  2.0270
13951TIP3   OH263343   1.542   4.597  11.137 -0.4690  0.2672  0.0486
13951TIP3    H163344   1.564   4.616  11.046 -2.0542  1.5040 -0.1076
13951TIP3    H263345   1.451   4.628  11.147 -1.2592 -2.3146  1.3125
13952TIP3   OH263346   6.677   2.319  14.695  0.2684  0.2390 -0.4081
13952TIP3    H163347   6.637   2.388  14.748  0.7423  0.1025  0.1362
13952TIP3    H263348   6.712   2.257  14.759  0.5302 -0.1122 -0.8871
13953TIP3   OH263349   2.175   3.965  11.398 -0.0870  0.4757 -0.0133
13953TIP3    H163350   2.220   3.970  11.314  1.1775 -1.8024  0.5119
13953TIP3    H263351   2.198   4.047  11.442  1.0417  0.6969 -0.9850
13954TIP3   OH263352   3.075   1.847  14.234  0.3190 -0.0824  0.3886
13954TIP3    H163353   3.117   1.768  14.200 -0.7183 -0.8296  0.8098
13954TIP3    H263354   2.982   1.824  14.241 -0.4532  2.1034 -2.1054
13955TIP3   OH263355   3.435   5.389  12.913 -0.0489 -0.1702  0.3522
13955TIP3    H163356   3.474   5.471  12.943  0.3413 -0.8799  1.8444
13955TIP3    H263357   3.438   5.332  12.990 -0.8969 -1.3713 -0.4919
13956TIP3   OH263358   3.773   1.670   4.351  0.6030  0.5882 -0.2721
13956TIP3    H163359   3.741   1.690   4.438 -1.0736 -1.1133 -0.4534
13956TIP3    H263360   3.782   1.755   4.307 -1.8059  1.2381  0.4488
13957TIP3   OH263361   5.529   5.576   0.049 -0.2578 -1.0990  0.7604
13957TIP3    H163362   5.550   5.498   0.100  0.6518  0.0280  2.1526
13957TIP3    H263363   5.511   5.543  -0.039 -1.0303 -2.9943  1.5992
13958TIP3   OH263364   2.504   6.708  14.453 -0.6836  0.2525 -0.3067
13958TIP3    H163365   2.467   6.657  14.525 -1.2062 -0.5875 -1.1596
13958TIP3    H263366   2.584   6.746  14.490 -0.0478 -1.5140  0.2366
13959TIP3   OH263367   4.611   6.287   2.088  0.1802 -0.4134 -0.0497
13959TIP3    H163368   4.603   6.226   2.015 -0.0444 -0.4622  0.0149
13959TIP3    H263369   4.626   6.372   2.048  0.6407 -0.5349 -0.1366
13960TIP3   OH263370   6.570   1.416  14.720 -0.2438 -0.7733  0.4353
13960TIP3    H163371   6.602   1.354  14.786 -0.6288  0.0110  1.3694
13960TIP3    H263372   6.475   1.410  14.725 -0.2992  0.4454  1.0811
13961TIP3   OH263373   2.720   2.237   6.067 -0.0432  0.4850  0.6937
13961TIP3    H163374   2.777   2.269   6.137  0.7690  2.8138 -0.9811
13961TIP3    H263375   2.645   2.297   6.067 -1.1052 -0.8023  0.9525
13962TIP3   OH263376   5.718   5.457   0.508 -0.2245  0.1653  0.1542
13962TIP3    H163377   5.649   5.397   0.538  1.3844 -1.5994  0.4360
13962TIP3    H263378   5.672   5.539   0.488 -2.3952 -0.9833  0.2977
13963TIP3   OH263379   2.884   0.887   4.008  0.5062  0.3425 -0.4081
13963TIP3    H163380   2.936   0.807   4.017  2.0287  1.1557 -1.6718
13963TIP3    H263381   2.923   0.932   3.933 -2.1756  0.8809 -1.5259
13964TIP3   OH263382   5.870   2.169  13.417 -0.0465  0.7008 -0.0639
13964TIP3    H163383   5.849   2.258  13.389  0.5916  1.4847  1.8771
13964TIP3    H263384   5.939   2.141  13.357 -0.1002  1.5886 -0.5481
13965TIP3   OH263385   0.097   3.254  13.335 -0.8702  0.7944 -0.2609
13965TIP3    H163386   0.109   3.159  13.329 -0.6868  0.4391  4.0967
13965TIP3    H263387   0.044   3.277  13.258 -0.2194 -2.6578 -1.8414
13966TIP3   OH263388   1.673   3.603  13.790  0.0478  0.1149  0.5095
13966TIP3    H163389   1.591   3.634  13.828 -1.5802 -2.1235 -1.0275
13966TIP3    H263390   1.741   3.654  13.833 -2.1021  1.3899  2.4618
13967TIP3   OH263391   3.975   2.238   2.115 -0.2616  0.5692 -0.3708
13967TIP3    H163392   3.901   2.267   2.062 -0.8932  1.4469  0.9827
13967TIP3    H263393   4.045   2.221   2.051 -1.2191  0.9517 -1.5374
13968TIP3   OH263394   3.093   1.003  16.600  0.1324 -0.0156 -0.1077
13968TIP3    H163395   3.128   1.044  16.679 -0.2748  1.2022 -0.5571
13968TIP3    H263396   3.005   0.974  16.626  0.4703 -0.7350  0.2442
13969TIP3   OH263397   5.463   3.371   1.990  0.3098 -0.1922 -0.5792
13969TIP3    H163398   5.408   3.400   2.064  0.4681  2.3513 -1.3874
13969TIP3    H263399   5.543   3.338   2.031 -0.2454 -0.2762  0.4556
13970TIP3   OH263400   0.367   3.870   4.441 -1.0020  0.0028 -0.2582
13970TIP3    H163401   0.331   3.813   4.509 -0.6692 -0.0922 -0.1622
13970TIP3    H263402   0.460   3.847   4.437 -0.9484  0.2605 -0.4953
13971TIP3   OH263403   5.879   6.246  12.214  0.4283 -0.1361  0.1340
13971TIP3    H163404   5.799   6.281  12.173  0.7221  0.2571 -0.1047
13971TIP3    H263405   5.877   6.153  12.193  0.8172  0.1481 -1.1819
13972TIP3   OH263406   5.609   2.986   6.096  0.0654 -0.8696 -0.0647
13972TIP3    H163407   5.702   2.968   6.084  0.6279  2.8195 -2.0557
13972TIP3    H263408   5.604   3.035   6.178  0.1103  0.2509 -0.7183
13973TIP3   OH263409   2.946   4.068  15.041 -0.8884 -0.0917 -0.4138
13973TIP3    H163410   2.948   4.050  14.947  0.8575  2.7454 -0.9817
13973TIP3    H263411   3.033   4.044  15.072 -1.3941 -0.8272  0.4789
13974TIP3   OH263412   6.283   1.729  16.680 -0.1841  0.2992  0.1315
13974TIP3    H163413   6.232   1.649  16.681  2.4865 -1.4707 -0.0333
13974TIP3    H263414   6.303   1.747  16.772 -0.0442  0.2831  0.1041
13975TIP3   OH263415   1.424   3.414  12.784 -0.1120  0.1756 -0.7617
13975TIP3    H163416   1.419   3.324  12.814  1.0093  0.6313  0.8314
13975TIP3    H263417   1.434   3.407  12.689  0.2085 -1.3796 -0.6227
13976TIP3   OH263418   0.990   0.720   0.906  0.2810  0.6398 -0.6078
13976TIP3    H163419   0.929   0.784   0.869 -0.3295  0.0977 -0.5364
13976TIP3    H263420   0.941   0.638   0.908  0.4506  0.5600  0.9940
13977TIP3   OH263421   0.982   1.302   1.729 -0.0424 -0.0383 -0.0405
13977TIP3    H163422   1.021   1.367   1.672  0.4331 -0.3494 -0.0718
13977TIP3    H263423   0.918   1.256   1.674  1.3797 -1.2501 -0.7138
13978TIP3   OH263424   6.040   4.095   5.469  0.3353  0.1850 -0.0830
13978TIP3    H163425   5.983   4.153   5.418  0.2108  1.1256  1.1049
13978TIP3    H263426   5.980   4.049   5.529  0.4927 -0.8526 -0.6971
13979TIP3   OH263427   0.074   3.214  11.783 -0.6750 -0.4949  0.7297
13979TIP3    H163428   0.070   3.309  11.770 -1.3456 -0.4572  1.1584
13979TIP3    H263429   0.122   3.203  11.865  0.2015 -0.5671  0.2089
13980TIP3   OH263430   3.280   6.443  12.696 -0.4991  0.2131  0.1261
13980TIP3    H163431   3.188   6.439  12.725 -1.3803  3.0569 -1.9410
13980TIP3    H263432   3.330   6.454  12.777 -2.0658 -0.6015  1.2322
13981TIP3   OH263433   0.541   2.084   0.909 -0.1148  0.2519  0.4025
13981TIP3    H163434   0.476   2.039   0.855 -0.7340  0.7505  0.7293
13981TIP3    H263435   0.615   2.098   0.850  0.0587 -1.1174  0.2667
13982TIP3   OH263436   5.375   5.652  16.463  0.2804 -0.1366  0.3263
13982TIP3    H163437   5.349   5.694  16.545 -1.1787  1.2618 -0.8216
13982TIP3    H263438   5.432   5.580  16.490  1.5984  1.6341  2.4127
13983TIP3   OH263439   5.886   1.780  15.093  0.4270  0.1189  0.2141
13983TIP3    H163440   5.898   1.874  15.082  1.3807 -0.0445 -0.1965
13983TIP3    H263441   5.941   1.740  15.026  1.8478 -0.7662  1.8480
13984TIP3   OH263442   3.952   4.402   5.506  0.3416 -0.1542  0.5284
13984TIP3    H163443   4.002   4.328   5.473  1.3242 -0.2959  2.2683
13984TIP3    H263444   3.914   4.371   5.588  0.4962  1.1503  1.1166
13985TIP3   OH263445   5.338   3.786   5.143  0.0547  0.4483 -0.2795
13985TIP3    H163446   5.346   3.879   5.164 -1.0170  0.7497 -1.1168
13985TIP3    H263447   5.248   3.777   5.111  0.7225 -0.5043 -1.9541
13986TIP3   OH263448   6.370   0.486   2.736 -0.4794  0.1569 -0.0633
13986TIP3    H163449   6.314   0.551   2.777 -0.2722  0.4464 -0.2404
13986TIP3    H263450   6.313   0.410   2.724 -0.7775  0.3763 -0.0485
13987TIP3   OH263451   1.890   4.908   4.640  0.3203  0.0555 -0.5780
13987TIP3    H163452   1.950   4.937   4.709 -0.2842 -0.0839  0.0214
13987TIP3    H263453   1.928   4.826   4.608 -0.2259 -0.7154  0.7036
13988TIP3   OH263454   4.855   1.265  15.932  0.1947  0.4285  0.1906
13988TIP3    H163455   4.798   1.272  15.856 -1.1272  0.5643  1.1832
13988TIP3    H263456   4.802   1.220  15.998  0.5835  2.2388  1.7662
13989TIP3   OH263457   0.892   2.201  16.973  1.0036  0.3323 -0.0040
13989TIP3    H163458   0.811   2.248  16.953  0.8156  0.8423  1.8092
13989TIP3    H263459   0.904   2.141  16.900  0.3327  2.0126 -1.5267
13990TIP3   OH263460   3.010   5.432  12.434 -0.2673  0.1591  0.1690
13990TIP3    H163461   2.915   5.439  12.424 -0.3317 -1.2043 -0.2618
13990TIP3    H263462   3.026   5.446  12.527 -0.8710  0.6204  0.2029
13991TIP3   OH263463   4.062   3.852   0.186  0.0882  0.3714  0.1691
13991TIP3    H163464   4.142   3.871   0.234 -0.7831 -0.1986  1.9020
13991TIP3    H263465   4.007   3.805   0.249 -0.7118 -1.2347 -1.7016
13992TIP3   OH263466   4.750   3.509  15.789  0.4663 -0.3464 -0.2244
13992TIP3    H163467   4.732   3.430  15.839  0.6040 -0.5887 -0.5551
13992TIP3    H263468   4.803   3.479  15.715  1.6886  0.2561  0.3926
13993TIP3   OH263469   0.515   4.692  13.442 -0.3650 -0.1768  0.3997
13993TIP3    H163470   0.555   4.768  13.400 -2.0403  0.0008 -0.9568
13993TIP3    H263471   0.563   4.617  13.408  0.4246  0.1817  0.7172
13994TIP3   OH263472   5.754   4.071   0.283  0.2381 -0.0421  0.2155
13994TIP3    H163473   5.717   4.052   0.197 -1.7097 -1.8606  1.4333
13994TIP3    H263474   5.824   4.007   0.294  1.6501  1.2927 -0.6919
13995TIP3   OH263475   0.051   2.923  14.912 -0.4307  0.3615  0.0785
13995TIP3    H163476   0.008   3.002  14.879 -0.9108 -0.0348 -0.2485
13995TIP3    H263477  -0.013   2.853  14.901  0.9102 -0.5944 -2.0997
13996TIP3   OH263478   0.611   4.139   4.040  0.2111  0.0121 -0.1449
13996TIP3    H163479   0.566   4.169   3.961  0.3345  1.0865  0.1853
13996TIP3    H263480   0.541   4.111   4.099  0.1028 -0.5079 -0.5252
13997TIP3   OH263481   5.692   6.166  11.016  0.3893  0.2550  0.0789
13997TIP3    H163482   5.734   6.083  10.996 -0.5058 -0.3831  0.8160
13997TIP3    H263483   5.656   6.196  10.932  0.4204 -0.2598 -0.1150
13998TIP3   OH263484   2.851   3.767   6.280 -0.0684  0.4725 -0.0896
13998TIP3    H163485   2.768   3.814   6.271 -0.0910  0.7192  1.2259
13998TIP3    H263486   2.887   3.800   6.363  0.7609 -0.5322 -0.0492
13999TIP3   OH263487   3.131   1.949  12.143  0.5807 -0.4556  0.1559
13999TIP3    H163488   3.128   2.040  12.173 -2.5500 -1.5570  3.5205
13999TIP3    H263489   3.161   1.900  12.220 -1.1431 -2.6503 -0.5354
14000TIP3   OH263490   5.801   6.656   3.447  0.0726  0.1933 -0.1334
14000TIP3    H163491   5.837   6.727   3.394 -2.3109  2.0113  0.5895
14000TIP3    H263492   5.724   6.626   3.399 -1.1390  0.7197  1.4203
14001TIP3   OH263493   0.366   1.855   1.624 -0.1219  0.1554  0.0234
14001TIP3    H163494   0.423   1.904   1.565  1.3835 -0.0518  1.2734
14001TIP3    H263495   0.284   1.905   1.625  1.3203  2.5551  1.1329
14002TIP3   OH263496   5.759   3.865  16.672 -0.6031 -0.3871 -0.0632
14002TIP3    H163497   5.757   3.817  16.754  0.7399  0.3071  0.3872
14002TIP3    H263498   5.796   3.804  16.609  1.2886  0.1028  0.5528
14003TIP3   OH263499   4.855   6.279   6.345 -0.5968 -0.1839  0.3549
14003TIP3    H163500   4.824   6.360   6.303 -0.3984  1.2313  2.8632
14003TIP3    H263501   4.939   6.262   6.303 -1.0613  0.4027 -0.8470
14004TIP3   OH263502   1.115   4.075   2.784  0.9064 -0.1577 -0.0820
14004TIP3    H163503   1.185   4.075   2.719 -0.2057 -0.1857 -1.3031
14004TIP3    H263504   1.109   4.166   2.813  0.7249  0.0515 -0.7717
14005TIP3   OH263505   0.468   6.312   2.174 -0.4725 -0.3544  0.4438
14005TIP3    H163506   0.492   6.227   2.136 -0.3206 -0.7801  1.4709
14005TIP3    H263507   0.473   6.373   2.101  0.2479 -1.0838 -0.1282
14006TIP3   OH263508   0.909   0.921  11.176 -0.1452  0.6345 -0.7028
14006TIP3    H163509   0.851   0.844  11.181  1.2914 -0.4316  0.0817
14006TIP3    H263510   0.862   0.983  11.121 -0.9123 -1.1949 -2.1849
14007TIP3   OH263511   4.246   2.065   5.851 -0.0764 -0.3333  0.4265
14007TIP3    H163512   4.288   1.978   5.854 -0.5449 -0.5974 -0.4517
14007TIP3    H263513   4.315   2.126   5.877  0.2242 -0.9825  1.1703
14008TIP3   OH263514   3.658   1.977   3.419 -0.6249  0.0110 -0.6008
14008TIP3    H163515   3.588   1.930   3.464 -1.4057  0.0512 -1.7350
14008TIP3    H263516   3.710   1.909   3.378 -0.2894  0.0091 -0.1767
14009TIP3   OH263517   0.697   5.307  12.004  0.6952  0.1531  0.4713
14009TIP3    H163518   0.651   5.293  12.087  1.0700 -0.8154  0.5197
14009TIP3    H263519   0.742   5.391  12.015 -1.3751  1.3114  0.2700
14010TIP3   OH263520   1.643   4.137   5.216  0.5235 -0.4307 -0.9670
14010TIP3    H163521   1.725   4.184   5.233  0.9634 -1.2778 -0.7021
14010TIP3    H263522   1.624   4.091   5.298 -0.2589 -0.1714 -1.0053
14011TIP3   OH263523   3.904   2.465   0.014  0.1228 -0.5469 -0.9913
14011TIP3    H163524   3.949   2.386  -0.017 -1.1405 -1.2245 -1.1133
14011TIP3    H263525   3.892   2.518  -0.065  0.3524 -0.5375 -1.0200
14012TIP3   OH263526   1.929   2.275   5.186 -0.0286  0.8067 -0.2802
14012TIP3    H163527   1.968   2.235   5.108 -0.5800 -0.1729 -0.0572
14012TIP3    H263528   1.858   2.330   5.152 -0.7876 -0.2497 -0.4101
14013TIP3   OH263529   2.654   5.321   5.141 -0.2591 -0.1878 -0.0441
14013TIP3    H163530   2.675   5.271   5.063  0.7856 -1.9170  1.3324
14013TIP3    H263531   2.558   5.326   5.141 -0.2648 -0.1179 -1.4451
14014TIP3   OH263532   4.490   3.527   4.276 -0.8474 -0.1380 -0.7716
14014TIP3    H163533   4.567   3.471   4.274 -1.7953 -1.4249 -1.6332
14014TIP3    H263534   4.481   3.553   4.368 -0.8119 -1.9740 -0.2360
14015TIP3   OH263535   0.295   3.649   0.146 -0.0305  0.1857 -0.5250
14015TIP3    H163536   0.365   3.611   0.199 -0.3177  2.6739  1.7491
14015TIP3    H263537   0.220   3.655   0.206 -1.9978 -1.7170 -2.6868
14016TIP3   OH263538   3.359   5.128   6.062  0.1937 -0.1930  0.3693
14016TIP3    H163539   3.282   5.110   6.009  0.0968  0.2248  0.3687
14016TIP3    H263540   3.357   5.222   6.077  1.9914  0.2328 -1.6801
14017TIP3   OH263541   3.896   4.416  13.411 -0.4202 -0.4345  0.0305
14017TIP3    H163542   3.955   4.386  13.480  1.1307 -1.8975 -1.8600
14017TIP3    H263543   3.845   4.338  13.388 -0.9111  0.0355 -0.4899
14018TIP3   OH263544   4.317   1.544  13.210 -0.8508 -0.1040  0.4091
14018TIP3    H163545   4.248   1.583  13.156 -0.8026 -1.1246 -0.4002
14018TIP3    H263546   4.347   1.616  13.266 -0.5731  1.0912 -1.2434
14019TIP3   OH263547   6.489   0.539   0.913 -0.1870 -0.1489 -0.9070
14019TIP3    H163548   6.419   0.510   0.854  0.2778 -0.5458 -1.2630
14019TIP3    H263549   6.516   0.624   0.878  1.4176 -1.2622 -2.4203
14020TIP3   OH263550   1.985   1.943  12.264 -0.1581  0.8484 -0.4363
14020TIP3    H163551   1.939   2.027  12.264 -0.9681  0.4091 -0.5461
14020TIP3    H263552   2.077   1.966  12.280 -0.1815  1.8511 -1.6973
14021TIP3   OH263553   2.585   3.643  14.423 -0.0413  0.4520  0.3780
14021TIP3    H163554   2.625   3.688  14.349  1.2397  2.0152  1.9804
14021TIP3    H263555   2.540   3.568  14.384  0.6546  1.2103 -1.9590
14022TIP3   OH263556   4.851   4.267   4.045 -0.6557  0.2681  0.1673
14022TIP3    H163557   4.928   4.278   4.101 -1.0786  1.8532  0.4727
14022TIP3    H263558   4.780   4.306   4.095 -1.6018 -0.8932 -0.2631
14023TIP3   OH263559   2.428   0.304  16.639 -0.3023 -0.5940 -0.1781
14023TIP3    H163560   2.353   0.331  16.692 -1.2188 -1.7344 -0.8749
14023TIP3    H263561   2.481   0.251  16.698 -0.0139  0.2440  0.3287
14024TIP3   OH263562   2.356   3.571  11.818  0.1208 -0.4281 -0.0251
14024TIP3    H163563   2.331   3.662  11.834  0.9531 -0.4771  1.6510
14024TIP3    H263564   2.324   3.553  11.730 -0.8277  1.2138 -0.0443
14025TIP3   OH263565   5.458   3.847  13.286 -0.4406 -0.2481  0.0694
14025TIP3    H163566   5.369   3.817  13.267 -0.6158 -1.1615  2.2015
14025TIP3    H263567   5.446   3.933  13.328 -0.3234 -0.3473  0.3081
14026TIP3   OH263568   5.243   0.970   5.200 -0.1790  0.4470 -0.5406
14026TIP3    H163569   5.173   1.007   5.254  1.3753  1.4058  0.8519
14026TIP3    H263570   5.298   1.045   5.178  2.6436 -0.8806  1.7700
14027TIP3   OH263571   4.775   6.695  10.671 -0.0700 -0.0770 -0.1452
14027TIP3    H163572   4.686   6.706  10.704  0.3703  0.4191  0.9209
14027TIP3    H263573   4.774   6.612  10.624 -1.8085  1.3009 -2.6330
14028TIP3   OH263574   3.118   2.598   0.838 -0.8672  0.1804 -0.6429
14028TIP3    H163575   3.150   2.687   0.852 -0.3095 -0.4067  2.1000
14028TIP3    H263576   3.022   2.606   0.839 -0.8234  0.5360  1.2213
14029TIP3   OH263577   1.450   5.750  14.325 -0.4371  0.6694 -0.3489
14029TIP3    H163578   1.520   5.685  14.333  0.7880  2.1622  1.3498
14029TIP3    H263579   1.427   5.772  14.415 -0.9341  2.4963 -0.9081
14030TIP3   OH263580   0.159   3.814   2.574 -0.4656 -0.5721 -0.1257
14030TIP3    H163581   0.083   3.757   2.568 -2.8720  2.3119  1.4205
14030TIP3    H263582   0.122   3.902   2.586  3.0970  1.1250 -0.9045
14031TIP3   OH263583   0.573   4.908   3.715  0.2331  0.0471  0.1221
14031TIP3    H163584   0.640   4.959   3.761 -0.6457  3.1797 -1.9229
14031TIP3    H263585   0.501   4.969   3.700 -1.4571 -2.1665 -1.2665
14032TIP3   OH263586   5.003   4.588  12.157 -0.4412 -0.2513  0.6333
14032TIP3    H163587   4.944   4.587  12.082 -0.6383 -0.0610  0.7857
14032TIP3    H263588   5.091   4.587  12.119 -0.5428 -1.3011  0.4141
14033TIP3   OH263589   6.696   0.785   5.870  0.3983  0.0126 -0.3932
14033TIP3    H163590   6.630   0.724   5.836  0.7107  0.3229 -1.5773
14033TIP3    H263591   6.776   0.733   5.877  0.1763 -0.2178  0.5043
14034TIP3   OH263592   6.565   0.309   5.664 -0.4165 -0.1125  0.2018
14034TIP3    H163593   6.503   0.237   5.675  0.6500 -1.1578 -0.5578
14034TIP3    H263594   6.646   0.279   5.705 -0.2737  1.0883  0.8407
14035TIP3   OH263595   5.385   4.390  15.880 -0.1300 -0.7742  0.6330
14035TIP3    H163596   5.378   4.450  15.954 -0.8327  0.4498 -0.3880
14035TIP3    H263597   5.365   4.304  15.916  0.3689 -0.3115  2.0221
14036TIP3   OH263598   4.286   5.033  11.796  0.1072  0.1533  0.5076
14036TIP3    H163599   4.310   5.099  11.732  0.1655  0.3280  0.7108
14036TIP3    H263600   4.192   5.020  11.784 -0.2916  1.7490  1.8564
14037TIP3   OH263601   0.791   4.091  17.289  0.6651  0.2536 -0.5504
14037TIP3    H163602   0.794   4.006  17.245  0.0171 -1.3838  2.4133
14037TIP3    H263603   0.878   4.129  17.274  1.1839 -1.2013 -1.3639
14038TIP3   OH263604   1.751   5.558  11.293 -0.0215 -0.0161  0.2523
14038TIP3    H163605   1.662   5.544  11.322  0.3696 -1.4427  0.7770
14038TIP3    H263606   1.778   5.475  11.254  1.2484  0.2425  0.5386
14039TIP3   OH263607   1.723   5.978   2.510  0.4844  0.3977  0.3121
14039TIP3    H163608   1.648   5.994   2.566  0.3413 -0.8093  0.4908
14039TIP3    H263609   1.695   5.906   2.452  1.4111  0.0898  0.2350
14040TIP3   OH263610   4.112   5.620   2.514  0.0731 -0.2759  0.3576
14040TIP3    H163611   4.108   5.673   2.434 -2.0583 -0.0722  0.5953
14040TIP3    H263612   4.136   5.532   2.483  1.7684  0.3542 -0.2197
14041TIP3   OH263613   6.732   5.909  14.467 -0.1848 -0.4499 -0.6383
14041TIP3    H163614   6.802   5.886  14.406  0.3968  1.0355 -0.5547
14041TIP3    H263615   6.776   5.921  14.551 -0.4439  0.9448 -0.6809
14042TIP3   OH263616   2.669   4.772  13.044 -0.0120  0.2853  0.4927
14042TIP3    H163617   2.680   4.847  13.104 -0.7381 -0.1569  1.1916
14042TIP3    H263618   2.577   4.747  13.053 -0.4553  0.9899 -1.7585
14043TIP3   OH263619   4.458   5.937   2.392 -0.4716 -0.3441 -0.3058
14043TIP3    H163620   4.441   5.856   2.344 -0.1171 -0.0136 -0.9854
14043TIP3    H263621   4.450   6.007   2.327  1.2087  0.0128 -0.1601
14044TIP3   OH263622   2.832   5.124  13.048  0.3670 -0.1549 -0.6089
14044TIP3    H163623   2.874   5.040  13.062 -0.5626 -0.3153  1.4741
14044TIP3    H263624   2.819   5.159  13.137 -2.2286  0.6822 -1.2885
14045TIP3   OH263625   3.378   5.672  12.985  0.0114  0.9525 -0.5803
14045TIP3    H163626   3.310   5.688  12.920  0.2711  0.1845 -1.0585
14045TIP3    H263627   3.335   5.621  13.053 -0.2898  1.8595 -0.0931
14046TIP3   OH263628   6.816   1.641   5.725 -0.2884 -0.3611 -0.7296
14046TIP3    H163629   6.730   1.643   5.684  0.2322  0.8282 -1.7881
14046TIP3    H263630   6.873   1.603   5.659  0.2983  0.3008 -0.6130
14047TIP3   OH263631   0.944   2.908  14.391  0.4521  0.1830  0.2476
14047TIP3    H163632   0.979   2.881  14.306  0.0688  1.6866 -0.4058
14047TIP3    H263633   0.859   2.948  14.370  0.4037  0.6563  1.3247
14048TIP3   OH263634   3.698   0.698   5.173 -0.0703 -0.1817  0.0840
14048TIP3    H163635   3.712   0.623   5.232 -0.5851  1.1365  1.9479
14048TIP3    H263636   3.747   0.770   5.214 -2.3639  1.3751  0.1839
14049TIP3   OH263637   4.738   0.980   3.157 -0.1978  0.8456  0.3426
14049TIP3    H163638   4.828   0.980   3.125  0.1296  2.1812  1.2434
14049TIP3    H263639   4.739   1.038   3.233 -2.0343  1.6942 -0.2422
14050TIP3   OH263640   1.618   1.969   3.927  0.0990  0.0447  0.2401
14050TIP3    H163641   1.631   1.880   3.896 -1.0034 -0.8830  2.3830
14050TIP3    H263642   1.691   1.984   3.987  0.0909  0.4812  0.1457
14051TIP3   OH263643   0.618   6.055  14.973 -0.0521 -0.0643  0.1157
14051TIP3    H163644   0.550   6.008  15.023  1.3956 -3.2825 -0.7650
14051TIP3    H263645   0.639   6.131  15.027 -0.7689 -1.7610  2.9319
14052TIP3   OH263646   0.188   2.662   3.094 -0.0238  0.0857 -0.1098
14052TIP3    H163647   0.224   2.696   3.176  3.0538  1.8331 -2.1030
14052TIP3    H263648   0.162   2.572   3.115  1.2698  0.2902  2.6262
14053TIP3   OH263649   3.559   2.681   2.420 -0.2968 -0.5892 -0.4186
14053TIP3    H163650   3.514   2.721   2.495 -2.0824  1.4786 -2.5026
14053TIP3    H263651   3.640   2.731   2.411 -0.9504  0.3736 -0.9813
14054TIP3   OH263652   1.376   1.401   5.207 -0.4891  0.5686 -0.7518
14054TIP3    H163653   1.328   1.455   5.270 -0.1799 -0.1842  0.1397
14054TIP3    H263654   1.379   1.314   5.247  0.4532  0.2884 -1.4116
14055TIP3   OH263655   5.403   4.464   5.746 -0.1503 -0.5158  0.4781
14055TIP3    H163656   5.478   4.473   5.686 -1.2732  0.2352 -0.8384
14055TIP3    H263657   5.381   4.554   5.769  0.7410 -0.8173  2.6641
14056TIP3   OH263658   2.422   2.691  11.064  0.2625  0.0425 -0.0526
14056TIP3    H163659   2.437   2.711  10.971  1.5112  1.0500  0.3441
14056TIP3    H263660   2.432   2.596  11.069  0.8309  0.0473 -0.8511
14057TIP3   OH263661   2.601   4.581   3.103 -0.0048 -0.0586  0.6314
14057TIP3    H163662   2.674   4.642   3.095 -0.5515  0.6287  0.8627
14057TIP3    H263663   2.576   4.586   3.195 -1.5752  1.1551  0.1621
14058TIP3   OH263664   4.335   1.587  12.298  0.0531 -0.1467 -0.1839
14058TIP3    H163665   4.338   1.492  12.287 -2.5991 -0.2422 -0.5904
14058TIP3    H263666   4.403   1.620  12.240  2.1745 -1.8462  1.2383
14059TIP3   OH263667   6.780   1.978   5.973  0.5503  0.4540  0.2095
14059TIP3    H163668   6.698   2.024   5.984 -0.0696 -0.9190  1.3988
14059TIP3    H263669   6.785   1.960   5.879 -0.6135  0.3375  0.1717
14060TIP3   OH263670   3.916   3.186  14.415  0.3343  0.3074  0.2154
14060TIP3    H163671   3.905   3.101  14.372 -2.0325  0.7981 -0.2125
14060TIP3    H263672   3.991   3.225  14.370 -0.6612 -0.1507 -1.9497
14061TIP3   OH263673   0.245   0.994   1.324 -0.4531 -0.0393 -0.0184
14061TIP3    H163674   0.180   1.059   1.298  1.0461  2.1884  1.6574
14061TIP3    H263675   0.328   1.027   1.289  0.0553 -2.0748 -0.8266
14062TIP3   OH263676   4.570   3.537   4.550 -0.0020 -0.2358  0.1277
14062TIP3    H163677   4.639   3.481   4.514 -0.8860 -1.1699 -0.1634
14062TIP3    H263678   4.541   3.491   4.629  0.0120  0.3765  0.4887
14063TIP3   OH263679   0.672   5.921  11.932  0.3977  0.0085 -0.4203
14063TIP3    H163680   0.597   5.937  11.989  0.2025  0.1154 -0.7046
14063TIP3    H263681   0.747   5.914  11.991  0.0711 -0.6814 -0.0835
14064TIP3   OH263682   5.194   6.421  16.388 -0.0883 -0.1979  0.3797
14064TIP3    H163683   5.104   6.393  16.377  0.3534 -1.1279 -0.9684
14064TIP3    H263684   5.222   6.448  16.300  0.6780  0.8950  0.9414
14065TIP3   OH263685   4.957   3.200  10.485 -0.0334  0.1393  0.3951
14065TIP3    H163686   4.869   3.164  10.501  0.1014 -0.8357 -0.9728
14065TIP3    H263687   5.008   3.173  10.561 -0.2409 -1.6038 -0.0574
14066TIP3   OH263688   6.728   0.352  12.076  0.3400  0.3298  0.1076
14066TIP3    H163689   6.822   0.343  12.093  0.2082 -1.4763 -0.0472
14066TIP3    H263690   6.722   0.427  12.017  1.9073 -1.0793 -1.9034
14067TIP3   OH263691   0.951   0.749   0.440  0.5931 -0.2400  0.2100
14067TIP3    H163692   1.036   0.736   0.397  0.8995  0.3341  0.6325
14067TIP3    H263693   0.938   0.844   0.438  0.1439 -0.2970  0.4879
14068TIP3   OH263694   5.987   4.203  13.641 -0.2432  0.2316 -0.3602
14068TIP3    H163695   5.905   4.170  13.678 -0.3693 -0.3471 -1.1271
14068TIP3    H263696   6.052   4.189  13.710 -0.4689 -0.8561 -0.3491
14069TIP3   OH263697   4.233   6.767  10.766  0.3017  0.4277  0.1218
14069TIP3    H163698   4.264   6.692  10.715  2.4583  0.4618  1.3164
14069TIP3    H263699   4.297   6.836  10.748  1.1522  0.4317  2.8335
14070TIP3   OH263700   2.581   6.348  12.733 -0.4408  0.2948  0.0137
14070TIP3    H163701   2.508   6.308  12.684 -0.2121 -0.7744  0.5287
14070TIP3    H263702   2.566   6.321  12.824 -0.0277  1.0260  0.3042
14071TIP3   OH263703   4.573   3.046  13.211 -0.2906 -0.0238 -0.3323
14071TIP3    H163704   4.599   3.110  13.145  1.1724 -0.2821 -0.0385
14071TIP3    H263705   4.624   3.069  13.289  0.2890 -1.5458 -0.2289
14072TIP3   OH263706   5.891   3.178   3.635 -0.4012  0.1323 -0.3413
14072TIP3    H163707   5.845   3.095   3.627 -0.0058 -0.3397  2.0083
14072TIP3    H263708   5.823   3.243   3.650 -0.4412 -0.4530  2.3347
14073TIP3   OH263709   4.487   1.824   1.568 -0.7206 -0.9812 -0.7691
14073TIP3    H163710   4.571   1.870   1.578 -0.4129 -1.5398 -0.7832
14073TIP3    H263711   4.502   1.738   1.606 -1.8289 -0.4594  0.9187
14074TIP3   OH263712   4.208   5.184   4.379  0.5028 -0.0103  0.0272
14074TIP3    H163713   4.148   5.257   4.360 -0.6634 -0.3374  2.2671
14074TIP3    H263714   4.150   5.112   4.404  1.7708 -0.8720  0.4895
14075TIP3   OH263715   3.560   4.185   0.809  0.3992 -0.1082 -0.4048
14075TIP3    H163716   3.528   4.154   0.894 -1.1892 -0.9596 -1.2886
14075TIP3    H263717   3.630   4.246   0.831 -0.3334  0.0739  1.5436
14076TIP3   OH263718   4.557   4.905   3.139 -0.0451 -0.3015  0.5798
14076TIP3    H163719   4.607   4.922   3.219 -1.1329 -1.7394  1.5907
14076TIP3    H263720   4.476   4.954   3.151 -0.2376 -0.5732  0.3937
14077TIP3   OH263721   3.613   3.453  10.947 -0.2546 -0.1919 -0.0251
14077TIP3    H163722   3.679   3.385  10.933 -0.5707 -0.5180  0.0507
14077TIP3    H263723   3.544   3.409  10.997 -0.9141 -0.0768 -0.8317
14078TIP3   OH263724   0.575   0.412  14.068  0.1097 -0.4006 -0.1538
14078TIP3    H163725   0.615   0.327  14.089 -0.3026 -0.1846  1.5406
14078TIP3    H263726   0.649   0.469  14.049  0.5106 -0.5156  1.0507
14079TIP3   OH263727   1.992   4.995  14.844 -0.2151 -0.0533 -0.4760
14079TIP3    H163728   1.938   5.073  14.832  0.9719  0.5870 -1.8323
14079TIP3    H263729   1.960   4.934  14.777  0.6675  0.2889 -1.2119
14080TIP3   OH263730   2.209   6.277   3.449  0.1281  0.5698 -0.5537
14080TIP3    H163731   2.226   6.351   3.506  0.9320  0.3823 -0.5477
14080TIP3    H263732   2.284   6.273   3.390  0.9597 -1.3000  0.5886
14081TIP3   OH263733   6.331   5.677   2.607  0.0635  0.5209 -0.1530
14081TIP3    H163734   6.276   5.715   2.539  0.0546  1.5884  0.4484
14081TIP3    H263735   6.344   5.747   2.670  1.7441  0.1330 -0.0513
14082TIP3   OH263736   1.429   4.596  15.699 -0.0439 -0.0429  0.2001
14082TIP3    H163737   1.414   4.521  15.757  0.3254 -0.3091 -0.0436
14082TIP3    H263738   1.518   4.624  15.718 -0.3553  0.6578  0.6501
14083TIP3   OH263739   5.522   2.675   0.482 -0.7869 -0.5643 -0.5600
14083TIP3    H163740   5.517   2.726   0.401  1.5559  0.4712 -0.1110
14083TIP3    H263741   5.603   2.705   0.524 -1.2632 -2.0504  1.5141
14084TIP3   OH263742   6.346   6.521   2.384  0.9769  0.9211  0.0666
14084TIP3    H163743   6.351   6.469   2.303  0.1657  0.5547  0.2519
14084TIP3    H263744   6.263   6.567   2.378 -0.2029 -0.9238  1.7826
14085TIP3   OH263745   2.330   5.617  15.580 -0.2391  0.0084 -0.3055
14085TIP3    H163746   2.366   5.690  15.630  0.7448 -0.8283  0.2322
14085TIP3    H263747   2.407   5.570  15.548 -0.8678 -0.4732 -1.1158
14086TIP3   OH263748   2.972   1.776  17.268 -0.1428 -0.0161 -0.5325
14086TIP3    H163749   3.022   1.814  17.340 -2.2895  0.0555  0.9923
14086TIP3    H263750   2.986   1.682  17.276  1.6012  0.1404 -1.5607
14087TIP3   OH263751   5.035   3.190  15.698  0.2684  0.0219 -0.1904
14087TIP3    H163752   5.067   3.138  15.624  1.3309  0.7015 -0.2201
14087TIP3    H263753   4.948   3.220  15.671 -0.0640 -1.1649 -0.4488
14088TIP3   OH263754   6.781   4.657  12.739  0.2861 -0.1550  0.0535
14088TIP3    H163755   6.843   4.615  12.798  1.5971 -1.0252 -1.9146
14088TIP3    H263756   6.835   4.698  12.672 -1.1421  1.5648 -0.1005
14089TIP3   OH263757   4.297   0.689  11.016 -0.2834 -0.3998 -0.6755
14089TIP3    H163758   4.225   0.633  11.042 -2.4984  2.0409 -1.2880
14089TIP3    H263759   4.347   0.704  11.096 -1.4343 -0.7507  0.1150
14090TIP3   OH263760   0.907   3.272  16.321 -0.0454 -0.7569  0.5732
14090TIP3    H163761   0.965   3.197  16.324  0.3252 -0.4656  0.7269
14090TIP3    H263762   0.844   3.251  16.253  1.2758 -0.3307 -0.8089
14091TIP3   OH263763   4.445   2.074   2.965 -0.5930  0.1029  0.1808
14091TIP3    H163764   4.485   2.116   2.889  0.8157 -0.6439  0.4937
14091TIP3    H263765   4.421   2.147   3.022 -0.7948  0.6214 -0.5603
14092TIP3   OH263766   5.527   5.975  10.330 -0.3375 -0.2194  0.0658
14092TIP3    H163767   5.520   6.070  10.320 -1.1392 -0.1314  1.3594
14092TIP3    H263768   5.448   5.941  10.290 -0.7228 -0.2490  0.8500
14093TIP3   OH263769   0.905   1.248   5.243  0.8551 -0.1255  0.9250
14093TIP3    H163770   0.922   1.325   5.189  0.9493 -0.0415  1.0734
14093TIP3    H263771   0.959   1.261   5.321  0.9478 -0.3906  0.9070
14094TIP3   OH263772   3.295   4.075   3.149 -0.4815  0.5515 -0.3499
14094TIP3    H163773   3.334   4.053   3.065  2.2007  0.8920  0.7450
14094TIP3    H263774   3.312   3.998   3.204  0.0276  1.3034  0.5759
14095TIP3   OH263775   4.123   2.226  16.538 -0.3581 -0.1443 -0.0852
14095TIP3    H163776   4.057   2.156  16.533 -1.5076  1.0218 -2.9001
14095TIP3    H263777   4.158   2.231  16.449 -1.2921  3.7266 -0.3347
14096TIP3   OH263778   4.766   1.192  12.934 -0.1292  0.1705  0.0585
14096TIP3    H163779   4.837   1.159  12.989  0.3708  1.5688  0.2628
14096TIP3    H263780   4.750   1.121  12.871  0.2510 -0.8545  1.1015
14097TIP3   OH263781   2.156   3.029   0.877 -0.3076  0.2301 -0.2691
14097TIP3    H163782   2.206   3.078   0.942 -0.3117  1.0885 -0.8991
14097TIP3    H263783   2.072   3.011   0.919 -0.0946  0.2642  0.1774
14098TIP3   OH263784   4.200   2.681   0.481 -0.0654  0.6022  0.1304
14098TIP3    H163785   4.204   2.642   0.394 -1.7463 -0.6478  0.5834
14098TIP3    H263786   4.175   2.772   0.465  0.4401  0.6002 -0.7292
14099TIP3   OH263787   3.451   4.537   4.487  0.4798 -0.1400  0.1645
14099TIP3    H163788   3.407   4.622   4.487 -1.4260 -1.1015  0.8539
14099TIP3    H263789   3.503   4.537   4.567  0.8531  0.5407 -0.0701
14100TIP3   OH263790   2.841   4.966  16.481  0.6820  0.1323  0.0865
14100TIP3    H163791   2.877   4.979  16.393  2.2535  1.3854  0.8862
14100TIP3    H263792   2.776   4.896  16.470 -1.8124  2.7188 -2.7554
14101TIP3   OH263793   2.377   1.448  14.575 -0.3087 -0.3146  0.3973
14101TIP3    H163794   2.441   1.520  14.576  1.1046 -1.5231 -0.8589
14101TIP3    H263795   2.419   1.379  14.626 -1.8693 -0.1080  2.0093
14102TIP3   OH263796   0.003   4.061  14.471  0.2613 -0.1172 -0.2958
14102TIP3    H163797   0.093   4.034  14.489  0.2313 -0.5514 -0.8043
14102TIP3    H263798  -0.050   4.007  14.529  0.2848 -0.2660 -0.4157
14103TIP3   OH263799   1.540   6.350   1.721 -0.4424 -0.2579  0.1261
14103TIP3    H163800   1.567   6.437   1.751  1.9620 -0.9217 -0.0565
14103TIP3    H263801   1.519   6.302   1.801 -0.7112  0.1326  0.2909
14104TIP3   OH263802   0.587   6.147  11.220  0.0826  0.1320  0.1630
14104TIP3    H163803   0.569   6.130  11.128  1.3839  2.1701 -0.5207
14104TIP3    H263804   0.614   6.063  11.256  0.7833 -0.4341 -1.6393
14105TIP3   OH263805   4.775   2.971   4.935 -0.0111  0.2333 -0.5202
14105TIP3    H163806   4.714   3.024   4.986  0.3843  0.3117 -0.1321
14105TIP3    H263807   4.764   2.882   4.969 -0.6390  0.0711 -1.1376
14106TIP3   OH263808   0.852   6.811  16.849  0.0527  0.4818  0.1891
14106TIP3    H163809   0.881   6.856  16.929  2.3964  0.4839 -0.6289
14106TIP3    H263810   0.895   6.725  16.853 -1.3743 -0.2510 -0.1224
14107TIP3   OH263811   4.033   6.130  17.029  0.3954  0.1279  0.0452
14107TIP3    H163812   4.021   6.223  17.046 -0.1019  0.0789 -0.0192
14107TIP3    H263813   3.947   6.100  17.000  0.8697 -0.0745 -1.1949
14108TIP3   OH263814   0.856   1.361   5.592  0.2348  0.3010  0.0493
14108TIP3    H163815   0.893   1.315   5.667 -0.4321  1.8275  1.3286
14108TIP3    H263816   0.920   1.347   5.522  0.6204 -1.5535  0.7353
14109TIP3   OH263817   6.180   0.150  11.292 -0.0870 -0.3123 -0.1281
14109TIP3    H163818   6.143   0.116  11.211  2.8820  2.4903 -2.7925
14109TIP3    H263819   6.164   0.244  11.289  1.9524  0.1269  1.4878
14110TIP3   OH263820   4.806   2.375   2.411 -0.0920  0.4296  0.1298
14110TIP3    H163821   4.890   2.331   2.424 -0.4057  0.0597  0.9216
14110TIP3    H263822   4.820   2.432   2.334  1.6039  2.2102  1.7038
14111TIP3   OH263823   6.324   5.758   3.936 -0.0927 -0.7198  0.5097
14111TIP3    H163824   6.344   5.824   3.869  0.8886 -0.2563  1.2462
14111TIP3    H263825   6.406   5.713   3.951 -0.6513 -1.7957  0.3746
14112TIP3   OH263826   3.769   5.716  14.737  0.0110 -0.0864  0.2104
14112TIP3    H163827   3.817   5.636  14.757  0.6478  0.4522  0.8403
14112TIP3    H263828   3.740   5.705  14.646  2.0864 -0.0281 -0.4743
14113TIP3   OH263829   2.572   1.409   4.666 -0.0988  0.5907 -0.4023
14113TIP3    H163830   2.533   1.378   4.747 -0.1166  0.2011 -0.5608
14113TIP3    H263831   2.533   1.495   4.652 -0.9317  0.1889 -0.5834
14114TIP3   OH263832   6.548   3.603  15.022  0.4687 -0.1573  0.7657
14114TIP3    H163833   6.534   3.673  14.958  0.2265  0.4183  1.4415
14114TIP3    H263834   6.523   3.642  15.106 -0.4618 -1.3087  1.0379
14115TIP3   OH263835   6.105   1.916  12.980  0.4638  0.2759  0.4314
14115TIP3    H163836   6.172   1.852  13.007  0.3305  0.2186  0.6284
14115TIP3    H263837   6.130   1.941  12.891  1.6064  1.3722  1.0404
14116TIP3   OH263838   0.661   1.164   5.872 -0.4040  0.3252  0.2004
14116TIP3    H163839   0.717   1.128   5.941  0.6427 -0.0149 -0.8270
14116TIP3    H263840   0.713   1.159   5.793 -1.0508  2.1055 -0.3663
14117TIP3   OH263841   4.541   4.895  13.489  0.4398  0.2514  0.1384
14117TIP3    H163842   4.580   4.909  13.575  0.5045  0.5945  0.0571
14117TIP3    H263843   4.605   4.933  13.428  0.5129 -0.2136 -0.0780
14118TIP3   OH263844   2.442   0.959   5.258  0.1642  0.8720  0.1678
14118TIP3    H163845   2.496   1.035   5.234 -0.0045  0.6374 -0.9956
14118TIP3    H263846   2.504   0.888   5.273  0.3103  1.1779  1.0673
14119TIP3   OH263847   3.658   2.448   1.482  0.1375 -0.4114 -0.6338
14119TIP3    H163848   3.583   2.497   1.451 -0.8513  0.0128  2.2244
14119TIP3    H263849   3.726   2.462   1.416 -0.8539  2.9512 -1.0182
14120TIP3   OH263850   3.185   0.187  12.936 -0.0097  0.1585 -0.2304
14120TIP3    H163851   3.090   0.185  12.941 -0.0147 -0.6685 -0.5443
14120TIP3    H263852   3.211   0.260  12.992 -0.8764  1.0675 -1.0167
14121TIP3   OH263853   5.786   1.370   1.593  0.2779  0.1651  0.2033
14121TIP3    H163854   5.751   1.439   1.648  0.2947 -0.1557  0.6159
14121TIP3    H263855   5.785   1.407   1.505 -1.0513  0.1801  0.2131
14122TIP3   OH263856   0.525   0.044  15.880 -0.2087 -0.0008 -0.2440
14122TIP3    H163857   0.615   0.061  15.908  1.4275 -2.6473 -3.5232
14122TIP3    H263858   0.508   0.111  15.814  0.3839 -1.1625 -1.5928
14123TIP3   OH263859   2.535   2.205   1.113 -0.5769 -0.2687  0.8499
14123TIP3    H163860   2.543   2.112   1.089 -2.2844 -0.3762  0.6241
14123TIP3    H263861   2.500   2.247   1.035 -0.9072  0.3624  1.3354
14124TIP3   OH263862   1.471   0.024   1.134 -0.1655 -0.0843  0.1197
14124TIP3    H163863   1.501   0.109   1.165 -1.0969 -0.6265  2.5635
14124TIP3    H263864   1.517   0.012   1.051 -0.2910  2.9310 -0.4279
14125TIP3   OH263865   0.643   1.954   1.186  0.8166 -0.1805 -0.4475
14125TIP3    H163866   0.655   1.908   1.103 -0.9801  0.1941 -0.9293
14125TIP3    H263867   0.684   2.039   1.172  1.6791 -0.5969 -0.4956
14126TIP3   OH263868   1.172   1.097  10.782 -0.2693 -0.0142 -0.6412
14126TIP3    H163869   1.252   1.125  10.737  0.4969 -1.2621 -0.0592
14126TIP3    H263870   1.142   1.021  10.732 -0.5376 -0.1678 -0.2455
14127TIP3   OH263871   4.116   4.991   3.715  0.4942  0.5289 -0.0827
14127TIP3    H163872   4.118   4.941   3.633 -0.8897 -2.1457  1.4299
14127TIP3    H263873   4.024   4.993   3.740  0.8555  1.6596  1.2141
14128TIP3   OH263874   2.533   6.701   2.439  0.1675 -0.2843  0.5811
14128TIP3    H163875   2.616   6.734   2.405  0.4155 -0.6587  0.8326
14128TIP3    H263876   2.491   6.778   2.478  0.8980 -0.3460  1.4726
14129TIP3   OH263877   1.419   0.413  14.136  0.1270 -0.0143  0.3244
14129TIP3    H163878   1.380   0.489  14.180 -3.9373 -2.4347  1.1561
14129TIP3    H263879   1.352   0.345  14.142  2.2471 -2.6194 -3.4682
14130TIP3   OH263880   1.967   3.395  13.193  0.1845  0.4419 -0.0650
14130TIP3    H163881   2.052   3.370  13.157  0.7025  0.3156  1.2145
14130TIP3    H263882   1.984   3.411  13.286 -1.2889 -0.0732  0.3136
14131TIP3   OH263883   0.830   5.786  13.200  0.4530  0.5394 -0.2853
14131TIP3    H163884   0.791   5.798  13.113 -1.4516  1.0946  0.6107
14131TIP3    H263885   0.802   5.863  13.249 -0.6266 -0.9982  1.5712
14132TIP3   OH263886   3.836   4.934   2.021  0.0044 -0.4959 -0.1548
14132TIP3    H163887   3.832   4.917   1.926  1.9271 -2.1762  0.0209
14132TIP3    H263888   3.904   4.875   2.052  0.4359  1.1447  2.0698
14133TIP3   OH263889   1.362   6.579  14.067  0.1787  0.8222  0.3436
14133TIP3    H163890   1.294   6.642  14.090 -0.0523  1.6953 -2.5017
14133TIP3    H263891   1.327   6.494  14.094 -2.0652  1.2594 -1.0902
14134TIP3   OH263892   5.923   1.448  11.871  0.3161  0.4861  0.2055
14134TIP3    H163893   5.981   1.518  11.900  0.8606  1.2697 -2.5991
14134TIP3    H263894   5.964   1.414  11.791 -1.6680 -0.7749 -0.3245
14135TIP3   OH263895   3.695   3.451  15.510  0.2096 -0.4821  0.9435
14135TIP3    H163896   3.772   3.415  15.555  1.2394 -0.8966 -1.1030
14135TIP3    H263897   3.645   3.374  15.483  0.3569 -0.2890  0.0987
14136TIP3   OH263898   0.694   3.641  16.681  0.2906  0.0695 -0.1854
14136TIP3    H163899   0.618   3.697  16.661  0.4781  0.3024 -0.2497
14136TIP3    H263900   0.668   3.554  16.649 -0.8069 -0.3382  1.7330
14137TIP3   OH263901   3.159   1.999   5.308  0.3796  0.0100  0.2020
14137TIP3    H163902   3.218   1.969   5.376 -0.4411 -1.1294  0.4115
14137TIP3    H263903   3.071   1.990   5.345 -0.1145 -1.1272 -1.1661
14138TIP3   OH263904   1.699   2.383   5.820 -0.4645 -0.7268  0.1774
14138TIP3    H163905   1.664   2.465   5.784  0.9151 -0.4803 -0.6500
14138TIP3    H263906   1.709   2.327   5.743  0.5395 -0.9326  0.4521
14139TIP3   OH263907   0.614   1.311   1.908 -0.4393 -0.2267  0.8186
14139TIP3    H163908   0.591   1.350   1.824 -0.8523 -0.5366  0.7898
14139TIP3    H263909   0.589   1.378   1.972  0.4754  0.2734  0.6534
14140TIP3   OH263910   5.558   4.717  12.841  0.2999 -0.0203  0.2671
14140TIP3    H163911   5.578   4.758  12.757  0.6013  1.1691  0.9074
14140TIP3    H263912   5.478   4.761  12.871 -0.2161 -0.9499  0.2613
14141TIP3   OH263913   1.315   5.293  16.091  0.2574  0.9205  0.0847
14141TIP3    H163914   1.291   5.206  16.122  3.9334 -0.9212 -1.9073
14141TIP3    H263915   1.238   5.323  16.042 -1.7276 -0.3957  2.2929
14142TIP3   OH263916   2.544   5.475  16.230 -0.1775 -0.2902  0.4102
14142TIP3    H163917   2.619   5.510  16.183 -1.6129  1.5117 -0.6405
14142TIP3    H263918   2.563   5.382  16.242  2.7613  0.4002  1.3239
14143TIP3   OH263919   2.076   0.221  15.891  0.1902  0.3196 -0.4688
14143TIP3    H163920   2.014   0.219  15.963 -0.5437 -0.6781 -1.1086
14143TIP3    H263921   2.156   0.258  15.928  0.2403 -1.3854  1.1778
14144TIP3   OH263922   0.622   5.841  16.698  0.2955  0.2051  0.1619
14144TIP3    H163923   0.650   5.896  16.625 -0.0626 -2.9201 -2.4627
14144TIP3    H263924   0.698   5.785  16.716 -0.0827  0.0539  1.3081
14145TIP3   OH263925   1.215   0.429  16.386 -0.0984  0.7481  0.2894
14145TIP3    H163926   1.163   0.466  16.457 -1.2710  0.9569 -0.6460
14145TIP3    H263927   1.150   0.404  16.320  0.8263 -1.0822  0.0260
14146TIP3   OH263928   4.946   4.041  11.881 -0.1721  0.3696 -0.0383
14146TIP3    H163929   4.986   3.966  11.925 -1.0618 -0.5478 -0.7924
14146TIP3    H263930   5.020   4.098  11.859  0.4890 -0.1989  0.6777
14147TIP3   OH263931   4.299   6.069   2.836  0.0952 -0.4294 -0.3352
14147TIP3    H163932   4.394   6.082   2.827 -0.0343 -0.2400 -1.5012
14147TIP3    H263933   4.261   6.143   2.788 -0.6468 -0.4604  0.2067
14148TIP3   OH263934   2.866   4.378  14.734  0.7833  0.3401 -0.2082
14148TIP3    H163935   2.911   4.365  14.650 -0.3559  0.5569 -0.8689
14148TIP3    H263936   2.838   4.290  14.760  0.0824  0.4346 -0.6560
14149TIP3   OH263937   5.929   5.912   4.728  0.3477  0.4042  0.5721
14149TIP3    H163938   5.931   5.926   4.634  1.4193  0.5321  0.6092
14149TIP3    H263939   5.994   5.843   4.744 -0.0638  0.1473  1.1766
14150TIP3   OH263940   4.161   3.307  14.378  0.4217 -0.2879 -0.2018
14150TIP3    H163941   4.225   3.378  14.384  0.3026 -0.3748  2.5503
14150TIP3    H263942   4.210   3.229  14.404 -0.3604 -0.6192  0.2778
14151TIP3   OH263943   3.855   2.729   0.462  0.0432 -0.2010  0.0892
14151TIP3    H163944   3.941   2.771   0.453  0.8519 -1.7590  0.4248
14151TIP3    H263945   3.824   2.717   0.373  0.3307  0.0292 -0.0418
14152TIP3   OH263946   4.676   0.626  12.368 -0.2688 -0.4055 -0.4685
14152TIP3    H163947   4.636   0.540  12.352  1.9280 -1.9029  1.5562
14152TIP3    H263948   4.633   0.658  12.448 -0.5526  0.0061 -0.7891
14153TIP3   OH263949   6.565   5.939   2.783 -0.0930  0.2809 -0.0736
14153TIP3    H163950   6.539   6.024   2.746 -1.9741  0.0846  0.7535
14153TIP3    H263951   6.632   5.961   2.848  0.3334  1.0120 -0.7487
14154TIP3   OH263952   0.208   4.477  12.334 -0.4764  0.0888  0.1345
14154TIP3    H163953   0.194   4.392  12.293  2.8366 -1.4004  1.9545
14154TIP3    H263954   0.145   4.479  12.406  1.3768 -2.0770  1.8510
14155TIP3   OH263955   6.236   2.481  11.111 -0.8105  0.2690 -0.2060
14155TIP3    H163956   6.329   2.480  11.091 -0.4884 -2.7708  1.2516
14155TIP3    H263957   6.196   2.425  11.044 -1.4353  0.5579 -0.0797
14156TIP3   OH263958   1.382   3.664   1.055  0.2238 -0.1835 -0.1657
14156TIP3    H163959   1.438   3.687   1.129  0.2805 -0.0392 -0.2539
14156TIP3    H263960   1.293   3.670   1.089  0.2094  0.7415 -0.3474
14157TIP3   OH263961   0.779   4.071   6.254 -0.1576 -0.1720  0.1638
14157TIP3    H163962   0.832   4.149   6.264 -0.3558 -0.1831  1.3497
14157TIP3    H263963   0.705   4.085   6.313 -1.5642 -0.0843 -1.5608
14158TIP3   OH263964   0.330   0.829   1.516 -0.3821  0.2078 -0.1516
14158TIP3    H163965   0.311   0.905   1.461  0.7340  0.0543 -0.7654
14158TIP3    H263966   0.334   0.755   1.455 -1.0754 -0.2738  0.3899
14159TIP3   OH263967   3.789   3.007   4.841 -0.2621 -0.3108  0.2678
14159TIP3    H163968   3.822   3.095   4.820  0.7383 -1.0486 -1.3817
14159TIP3    H263969   3.758   3.014   4.931 -0.0777  1.7049  0.2074
14160TIP3   OH263970   6.550   3.263   4.613  0.0734  0.5228 -0.3031
14160TIP3    H163971   6.527   3.232   4.701  0.2027  0.7113 -0.2024
14160TIP3    H263972   6.601   3.192   4.574  0.6114  0.7265  0.0300
14161TIP3   OH263973   5.137   3.919  14.400  0.9222 -0.2125  0.0524
14161TIP3    H163974   5.082   3.873  14.464  0.6490  0.8996  0.6489
14161TIP3    H263975   5.116   3.878  14.316  0.9187 -1.3657  0.6092
14162TIP3   OH263976   0.521   4.435   1.452 -0.0067 -0.0847 -0.5063
14162TIP3    H163977   0.582   4.372   1.490 -1.7352 -1.9691 -0.7735
14162TIP3    H263978   0.558   4.455   1.366  2.1635  1.6585  0.7747
14163TIP3   OH263979   3.211   1.364   2.363 -0.1830 -0.2942 -0.1369
14163TIP3    H163980   3.153   1.438   2.348  2.9983  2.1148 -1.2340
14163TIP3    H263981   3.189   1.301   2.294 -2.3788 -0.0329  0.3121
14164TIP3   OH263982   6.604   2.781   0.054  0.4118 -0.3206 -0.3615
14164TIP3    H163983   6.549   2.859   0.042  0.3334 -0.3426 -0.1444
14164TIP3    H263984   6.548   2.708   0.029 -0.2932 -0.5039  1.7185
14165TIP3   OH263985   5.995   3.132  15.148  0.0301  0.0058  0.4274
14165TIP3    H163986   5.950   3.047  15.153 -2.3350  1.1864 -0.2844
14165TIP3    H263987   5.974   3.165  15.061 -1.4477  2.5784  1.6899
14166TIP3   OH263988   5.981   5.352   2.774  0.3632  0.3203  0.6024
14166TIP3    H163989   5.998   5.447   2.775 -0.5997  0.5374 -1.2350
14166TIP3    H263990   5.886   5.345   2.784  0.4982 -0.4848  1.3242
14167TIP3   OH263991   2.139   4.163  13.176  0.5780  0.2132 -0.3626
14167TIP3    H163992   2.162   4.129  13.089  0.4892 -0.6590 -0.0541
14167TIP3    H263993   2.217   4.210  13.205  0.4045  0.9956 -1.1545
14168TIP3   OH263994   2.366   1.035   3.985 -0.3331  0.5173  0.7921
14168TIP3    H163995   2.312   1.003   4.057 -0.4711 -0.9598  0.0423
14168TIP3    H263996   2.446   0.982   3.990  0.7107  2.0906  1.3589
14169TIP3   OH263997   0.366   4.965  17.087  0.1048  0.0833  0.3330
14169TIP3    H163998   0.299   5.006  17.033  1.1129 -0.2610 -1.2078
14169TIP3    H263999   0.332   4.879  17.108 -0.1166  0.0679 -0.0941
14170TIP3   OH264000   5.129   6.165   0.477 -0.2854 -0.6172 -0.3321
14170TIP3    H164001   5.054   6.148   0.419  0.2679 -1.8837 -0.6899
14170TIP3    H264002   5.165   6.079   0.495  0.6895 -0.0642  0.3886
14171TIP3   OH264003   6.068   6.723   3.996 -0.4986 -0.4165 -0.2771
14171TIP3    H164004   6.137   6.754   4.056 -0.1138 -2.5222  0.4098
14171TIP3    H264005   6.048   6.799   3.941  1.2478  0.6909  0.5724
14172TIP3   OH264006   5.996   4.462   5.724  0.2810  0.3340 -0.2530
14172TIP3    H164007   5.960   4.522   5.790 -1.9649  1.5181 -2.4675
14172TIP3    H264008   5.952   4.378   5.742  1.2266  0.0973  1.0166
14173TIP3   OH264009   6.616   4.656  15.441 -0.2190 -0.0657 -0.1054
14173TIP3    H164010   6.537   4.603  15.454 -0.3768 -0.3028 -1.9182
14173TIP3    H264011   6.610   4.686  15.350  2.5185 -1.2935 -0.7211
14174TIP3   OH264012   3.397   1.227   1.233 -0.8657  0.6903  0.1045
14174TIP3    H164013   3.436   1.289   1.294 -0.3891  2.0078 -1.4984
14174TIP3    H264014   3.307   1.215   1.265  0.3965 -1.3973  3.0911
14175TIP3   OH264015   3.383   0.550  13.851 -0.2518  0.2082  0.1806
14175TIP3    H164016   3.398   0.530  13.943  1.4752  1.8837  0.2789
14175TIP3    H264017   3.404   0.468  13.805  0.9435 -0.0039  1.0888
14176TIP3   OH264018   2.272   0.664  13.375  0.0126 -0.0861  0.1954
14176TIP3    H164019   2.298   0.589  13.430 -1.6812 -0.0648  1.0753
14176TIP3    H264020   2.200   0.705  13.424  0.1117  1.3999 -0.8772
14177TIP3   OH264021   0.318   3.380  13.420  0.0253 -0.3067 -0.3793
14177TIP3    H164022   0.231   3.360  13.387 -1.0508  0.8869  1.6184
14177TIP3    H264023   0.324   3.475  13.416  0.9308 -0.3285  0.2370
14178TIP3   OH264024   5.674   4.690   2.815 -0.3099 -0.7193  0.4344
14178TIP3    H164025   5.728   4.682   2.894  0.9993 -1.6250 -0.5382
14178TIP3    H264026   5.737   4.695   2.743 -1.4509  1.7001 -0.4436
14179TIP3   OH264027   5.273   6.666   1.651  0.4319 -0.2317 -0.2687
14179TIP3    H164028   5.357   6.704   1.626  0.8602 -0.4350  0.8391
14179TIP3    H264029   5.287   6.572   1.650  0.1347 -0.2742 -0.3875
14180TIP3   OH264030   3.295   0.473  15.872 -0.0153  0.2769 -0.0788
14180TIP3    H164031   3.361   0.470  15.941 -2.4966  0.7811  2.4308
14180TIP3    H264032   3.311   0.556  15.827  2.3241 -0.5805 -0.8819
14181TIP3   OH264033   4.809   1.139   1.478  0.0308 -0.3890 -0.2559
14181TIP3    H164034   4.883   1.113   1.533  0.3498  1.7116  0.3289
14181TIP3    H264035   4.750   1.064   1.481 -0.1093 -0.2085  3.2425
14182TIP3   OH264036   1.233   3.269  15.295  0.3241 -0.0309  0.4749
14182TIP3    H164037   1.262   3.199  15.352  0.0100  0.5256  1.3289
14182TIP3    H264038   1.223   3.228  15.209 -1.3157 -1.3848  1.2852
14183TIP3   OH264039   2.612   2.966  14.910 -0.0137  0.4337 -0.1798
14183TIP3    H164040   2.556   2.903  14.865  1.0799 -0.9815  0.3829
14183TIP3    H264041   2.610   3.044  14.855 -0.4586 -0.5050 -1.5227
14184TIP3   OH264042   5.427   3.641   4.928 -0.1802 -0.0185 -0.5478
14184TIP3    H164043   5.483   3.566   4.949 -0.1922  0.1509  0.0852
14184TIP3    H264044   5.411   3.683   5.012 -1.1299  0.0265 -0.7458
14185TIP3   OH264045   0.788   0.224  15.179 -0.3014  0.3139  0.2283
14185TIP3    H164046   0.729   0.276  15.235 -2.0774 -0.7300 -0.6177
14185TIP3    H264047   0.874   0.234  15.219 -1.2852  0.7800  2.3092
14186TIP3   OH264048   5.316   0.153  14.321  0.1852  0.3465  0.1437
14186TIP3    H164049   5.283   0.117  14.239  1.4022 -1.2194  0.3185
14186TIP3    H264050   5.406   0.178  14.303 -0.3801  2.5779  0.2649
14187TIP3   OH264051   4.101   6.302   1.132 -0.3963 -0.3427  0.1595
14187TIP3    H164052   4.067   6.391   1.141  0.4701  0.2230 -1.9041
14187TIP3    H264053   4.174   6.298   1.193 -0.3038  0.4223  0.0991
14188TIP3   OH264054   2.704   1.886   1.467 -0.8708 -0.4158 -0.1110
14188TIP3    H164055   2.761   1.963   1.469  0.1840 -1.2137  2.4377
14188TIP3    H264056   2.711   1.853   1.378  0.5747  1.0323 -0.5595
14189TIP3   OH264057   0.448   5.479   5.744  0.2759  0.3529  0.2117
14189TIP3    H164058   0.403   5.464   5.827 -0.5568  1.6358  0.0072
14189TIP3    H264059   0.465   5.392   5.710  2.5144 -0.2622  2.7045
14190TIP3   OH264060   6.803   3.185  14.077  0.1687  0.2011  0.2904
14190TIP3    H164061   6.746   3.186  14.001  1.6020  2.8035 -0.8331
14190TIP3    H264062   6.850   3.102  14.071 -1.1181 -0.4740 -0.5768
14191TIP3   OH264063   1.598   6.551   0.464 -0.7274 -0.9076 -0.4138
14191TIP3    H164064   1.563   6.621   0.408  0.8941 -1.0516 -1.6271
14191TIP3    H264065   1.575   6.470   0.418 -1.3219 -1.1372  0.2637
14192TIP3   OH264066   4.115   4.134   1.383 -0.5332 -0.8661  0.2639
14192TIP3    H164067   4.199   4.160   1.422 -0.7790 -1.0891  0.9528
14192TIP3    H264068   4.114   4.176   1.297 -0.4473  0.5082  0.9233
14193TIP3   OH264069   6.121   3.074   3.515 -0.0893 -0.1945 -0.3138
14193TIP3    H164070   6.041   3.109   3.554  0.7208  2.3263 -0.8209
14193TIP3    H264071   6.192   3.120   3.560  0.9084  1.5623 -3.5144
14194TIP3   OH264072   5.703   5.221   1.952 -0.1275 -0.4877  0.0518
14194TIP3    H164073   5.726   5.182   2.036 -1.3296 -2.4873 -0.5208
14194TIP3    H264074   5.772   5.191   1.893 -0.3392 -0.6637 -0.1052
14195TIP3   OH264075   3.510   5.112  11.344 -0.6363 -0.7226 -0.0241
14195TIP3    H164076   3.549   5.130  11.429  1.6832  2.1379 -1.5910
14195TIP3    H264077   3.420   5.143  11.351 -0.5437 -0.7525  1.4209
14196TIP3   OH264078   0.843   0.903   5.656 -0.5512  0.4378 -0.3903
14196TIP3    H164079   0.890   0.985   5.643 -0.5721  0.4373 -0.4686
14196TIP3    H264080   0.907   0.835   5.637 -0.4579  0.4339 -0.0629
14197TIP3   OH264081   4.519   0.982  14.521  0.0121 -0.3148 -0.2102
14197TIP3    H164082   4.520   0.991  14.616  0.2906  1.2260 -0.3413
14197TIP3    H264083   4.465   1.056  14.491 -0.3876 -1.0079 -1.2291
14198TIP3   OH264084   0.066   1.409  14.241  0.4120 -0.2986 -0.2164
14198TIP3    H164085   0.045   1.438  14.152  0.6775 -1.0851 -0.5465
14198TIP3    H264086   0.021   1.325  14.250 -0.3369  0.1958  0.7084
14199TIP3   OH264087   5.487   1.344   1.309  0.0612  0.0489  0.1535
14199TIP3    H164088   5.564   1.375   1.263  0.1009  0.4834  0.5149
14199TIP3    H264089   5.469   1.258   1.270  0.7583 -0.0816  0.1180
14200TIP3   OH264090   3.915   0.251   3.357 -0.7333  0.5297  0.1476
14200TIP3    H164091   4.005   0.220   3.352 -0.5909  0.7883  0.9492
14200TIP3    H264092   3.881   0.213   3.438 -0.6068  2.3058  1.0574
14201TIP3   OH264093   0.276   1.241   0.301 -0.5170 -0.2480 -0.4839
14201TIP3    H164094   0.347   1.254   0.238 -0.9017  0.0242 -0.8658
14201TIP3    H264095   0.316   1.190   0.372  0.2068  0.3939 -0.4240
14202TIP3   OH264096   5.141   5.519  11.253 -0.6096  0.9002 -0.5940
14202TIP3    H164097   5.071   5.461  11.223  0.4270 -0.1970 -0.9294
14202TIP3    H264098   5.110   5.555  11.336 -1.6471  0.5757 -0.8420
14203TIP3   OH264099   4.955   0.418  12.432 -0.2917 -0.9800 -0.3141
14203TIP3    H164100   4.999   0.350  12.483 -1.0037 -1.2939 -0.1145
14203TIP3    H264101   4.871   0.380  12.408 -0.5499 -0.3037 -0.5007
14204TIP3   OH264102   6.254   2.404   4.162  0.0896 -0.5538 -0.6224
14204TIP3    H164103   6.326   2.456   4.197 -0.6054 -0.4846  0.7406
14204TIP3    H264104   6.189   2.469   4.134  1.2821 -0.5486 -3.5366
14205TIP3   OH264105   3.017   3.377   1.045 -0.3597 -0.8521  0.1229
14205TIP3    H164106   3.038   3.389   1.138 -0.3859 -1.5472  0.2215
14205TIP3    H264107   2.922   3.381   1.041 -0.2918  1.0852 -0.1529
14206TIP3   OH264108   0.610   3.423   2.932  0.0035 -0.3099 -0.2452
14206TIP3    H164109   0.517   3.446   2.931 -0.2307 -1.2426 -2.1926
14206TIP3    H264110   0.648   3.480   2.998 -2.2462 -1.0689  1.7538
14207TIP3   OH264111   5.764   1.523   3.666 -0.2257  0.2914  0.0121
14207TIP3    H164112   5.734   1.608   3.632 -1.0697  0.9584  2.2820
14207TIP3    H264113   5.854   1.515   3.635 -0.1512  1.9985 -0.2820
14208TIP3   OH264114   2.585   4.611   2.797  0.1232 -0.2433  0.1749
14208TIP3    H164115   2.637   4.647   2.869  1.0534  0.3224 -0.7545
14208TIP3    H264116   2.554   4.689   2.750  1.4210 -0.6280 -1.3519
14209TIP3   OH264117   4.220   5.934  14.416  0.6893  0.0026  0.0373
14209TIP3    H164118   4.309   5.969  14.415  0.3647  0.8284  0.0260
14209TIP3    H264119   4.228   5.850  14.461  1.1484  0.9110  1.6583
14210TIP3   OH264120   3.405   4.219  11.948  0.3707 -0.0494 -0.1761
14210TIP3    H164121   3.387   4.192  11.858  1.5678  2.0019 -1.0667
14210TIP3    H264122   3.321   4.250  11.982 -0.4388 -2.3340 -0.0123
14211TIP3   OH264123   2.130   2.837   2.298  0.2822 -0.3410  0.2211
14211TIP3    H164124   2.052   2.782   2.308  0.9505 -1.3993 -0.2592
14211TIP3    H264125   2.177   2.828   2.381  0.8457 -1.2328 -0.1846
14212TIP3   OH264126   5.655   5.675  15.686 -0.0300 -0.4192 -0.2510
14212TIP3    H164127   5.589   5.723  15.735 -0.6661 -1.7210  0.1881
14212TIP3    H264128   5.696   5.618  15.751  0.8069 -0.3790 -0.7362
14213TIP3   OH264129   4.505   4.036   3.858 -0.3418 -0.0086 -0.0131
14213TIP3    H164130   4.600   4.038   3.847 -0.3383  0.5660  0.1087
14213TIP3    H264131   4.471   4.093   3.789 -0.4696  1.5248  1.2947
14214TIP3   OH264132   2.737   3.947  15.503  0.2147 -0.0752 -0.4317
14214TIP3    H164133   2.659   3.975  15.550 -0.7454 -2.8803 -0.2626
14214TIP3    H264134   2.734   3.996  15.421 -1.4276  0.2449 -0.1991
14215TIP3   OH264135   6.047   3.733   4.088 -0.0798  0.3200 -0.3805
14215TIP3    H164136   5.977   3.784   4.129  0.7524  0.4706  0.8712
14215TIP3    H264137   6.077   3.788   4.015 -1.0945  0.3564 -0.7788
14216TIP3   OH264138   5.098   2.841   2.998 -0.5982  0.0193  0.2561
14216TIP3    H164139   5.158   2.768   2.987  0.0822  0.5228  0.5742
14216TIP3    H264140   5.059   2.854   2.912 -3.3959 -2.9772  0.9677
14217TIP3   OH264141   1.383   4.871  12.167 -0.0084  0.1849 -0.0557
14217TIP3    H164142   1.396   4.799  12.105  2.3992 -0.7822  1.5309
14217TIP3    H264143   1.441   4.940  12.135 -1.0714  0.8436 -0.6103
14218TIP3   OH264144   5.901   0.493  13.416  0.0463 -0.0198 -0.3188
14218TIP3    H164145   5.882   0.476  13.324 -1.5313 -1.8800  0.2977
14218TIP3    H264146   5.860   0.420  13.463  1.7927  0.2725  1.7750
14219TIP3   OH264147   4.192   1.389  14.674 -0.2135 -0.1316 -0.2027
14219TIP3    H164148   4.163   1.451  14.741  0.8032 -1.1735  1.2241
14219TIP3    H264149   4.287   1.396  14.675 -0.1592 -0.6880 -1.0487
14220TIP3   OH264150   5.171   4.329  12.851  0.5047 -0.3067 -0.3017
14220TIP3    H164151   5.080   4.302  12.867  0.9134 -0.9545  0.9656
14220TIP3    H264152   5.175   4.343  12.756 -0.6678 -1.1833 -0.4999
14221TIP3   OH264153   3.045   0.095   0.159  0.5342  0.5238 -0.0044
14221TIP3    H164154   3.048   0.150   0.081 -0.8960  2.6901  1.4038
14221TIP3    H264155   3.135   0.092   0.190  0.8797  0.7875 -0.9513
14222TIP3   OH264156   3.913   1.208  11.091  0.4185 -0.6102 -0.1111
14222TIP3    H164157   3.933   1.131  11.037  1.4226 -0.0926 -0.5084
14222TIP3    H264158   3.860   1.263  11.034  0.6431 -0.5059 -0.2186
14223TIP3   OH264159   5.331   1.899   0.907 -0.0235  0.1754 -0.5947
14223TIP3    H164160   5.379   1.957   0.967  0.7039 -0.4349 -0.5812
14223TIP3    H264161   5.369   1.813   0.922 -1.0997 -0.3092 -0.6298
14224TIP3   OH264162   0.332   3.980   2.926 -0.1192 -0.6308 -0.7161
14224TIP3    H164163   0.279   4.056   2.903  1.4033  0.6382 -0.0800
14224TIP3    H264164   0.317   3.967   3.020  1.6456  0.4934 -0.2713
14225TIP3   OH264165   4.979   3.432   5.134  0.6699 -0.2117 -0.4912
14225TIP3    H164166   4.969   3.460   5.043  2.8195 -1.4292 -1.1463
14225TIP3    H264167   4.992   3.514   5.183 -1.5094  0.5289 -1.0873
14226TIP3   OH264168   1.715   1.676   0.534 -0.2325  0.2606  0.0542
14226TIP3    H164169   1.720   1.643   0.624  1.3149  0.2174 -0.0388
14226TIP3    H264170   1.705   1.598   0.480  1.3116  0.0778  0.0054
14227TIP3   OH264171   6.112   3.338  11.814 -0.1795 -0.8834 -0.3454
14227TIP3    H164172   6.024   3.349  11.780 -1.0076 -1.7724  1.4435
14227TIP3    H264173   6.122   3.243  11.827  0.8566 -0.7536 -0.0947
14228TIP3   OH264174   6.119   1.917   3.993  0.3831 -0.3684 -0.0382
14228TIP3    H164175   6.073   1.882   4.069 -0.8922  0.1489 -0.5669
14228TIP3    H264176   6.188   1.853   3.975 -1.1355 -1.9879 -0.2349
14229TIP3   OH264177   4.009   1.246  15.258  0.1848  0.4437 -0.3903
14229TIP3    H164178   4.094   1.201  15.250  0.0912  0.0000  0.9399
14229TIP3    H264179   3.951   1.180  15.296  0.4183  2.0725  3.0126
14230TIP3   OH264180   1.926   2.540   5.810  0.2524  0.5442  0.1219
14230TIP3    H164181   1.847   2.505   5.771  0.8127 -0.0991 -0.4270
14230TIP3    H264182   1.987   2.551   5.737  2.0467 -2.6346  1.0423
14231TIP3   OH264183   3.257   2.881   0.165 -0.1510 -0.4866 -0.6152
14231TIP3    H164184   3.211   2.899   0.247  0.3020 -1.9018 -0.0351
14231TIP3    H264185   3.347   2.864   0.191  0.1130 -0.4509 -1.4723
14232TIP3   OH264186   2.606   0.239  11.735 -0.2150 -0.1526 -0.1101
14232TIP3    H164187   2.620   0.188  11.656 -0.1810 -0.8475  0.3357
14232TIP3    H264188   2.527   0.202  11.774  0.4359 -0.6050  0.7938
14233TIP3   OH264189   2.139   1.218  15.293  0.3900 -0.7119  0.3038
14233TIP3    H164190   2.220   1.180  15.258  0.5108 -1.2952  1.1872
14233TIP3    H264191   2.167   1.301  15.330  0.5280 -0.7650  0.3225
14234TIP3   OH264192   0.313   3.573  16.027 -0.0044  0.4089  0.2127
14234TIP3    H164193   0.259   3.497  16.049 -0.8594  1.5437  2.1710
14234TIP3    H264194   0.250   3.640  16.000  0.6231  0.8651 -0.1164
14235TIP3   OH264195   2.322   1.093  13.524  0.2570  0.4844 -0.0607
14235TIP3    H164196   2.249   1.058  13.576 -0.0572 -1.2839 -1.6388
14235TIP3    H264197   2.289   1.093  13.434  2.0622  0.1035 -0.7301
14236TIP3   OH264198   0.050   6.576   1.418  0.0255  0.0457  0.0881
14236TIP3    H164199  -0.013   6.531   1.475  0.8053  0.8564  1.6233
14236TIP3    H264200   0.003   6.654   1.387 -0.2124 -0.1028  0.0729
14237TIP3   OH264201   2.688   1.791  12.002 -0.0762  0.9535  0.4765
14237TIP3    H164202   2.770   1.745  11.985  0.4880  1.7070  1.1209
14237TIP3    H264203   2.715   1.872  12.044 -1.0929  1.7001 -0.3104
14238TIP3   OH264204   4.999   4.391  16.222 -0.5036 -0.0735 -0.2517
14238TIP3    H164205   5.088   4.396  16.258 -1.3477  0.9416  1.7733
14238TIP3    H264206   4.999   4.455  16.151  1.0575 -1.7824 -1.8456
14239TIP3   OH264207   1.283   2.360  15.320 -0.4686 -0.3558 -0.3844
14239TIP3    H164208   1.236   2.443  15.326 -0.3907 -0.3723  0.4777
14239TIP3    H264209   1.313   2.357  15.229 -1.8429 -0.1920 -0.8555
14240TIP3   OH264210   2.294   1.933   6.758  0.5947 -0.2430 -0.2479
14240TIP3    H164211   2.237   1.997   6.715  1.3099  1.2976  1.0216
14240TIP3    H264212   2.307   1.864   6.692 -2.6984 -0.6425 -0.5371
14241TIP3   OH264213   5.104   4.240   0.648  0.2266  0.2698 -0.8920
14241TIP3    H164214   5.045   4.182   0.696  1.0231 -0.8936 -1.2900
14241TIP3    H264215   5.123   4.311   0.708  2.6020 -2.0346  1.2271
14242TIP3   OH264216   0.061   2.307   5.414 -1.0045  0.5332  0.1970
14242TIP3    H164217  -0.014   2.294   5.356  0.2370  0.5992 -1.4692
14242TIP3    H264218   0.093   2.394   5.393  1.6441 -0.8123 -1.6585
14243TIP3   OH264219   3.721   2.886  11.492 -0.4773 -0.1547  0.1183
14243TIP3    H164220   3.775   2.962  11.471  0.2413 -0.9934 -1.1461
14243TIP3    H264221   3.660   2.917  11.559 -0.1294  1.5046 -0.3184
14244TIP3   OH264222   3.636   2.750  16.470 -0.0367  0.0086  0.0170
14244TIP3    H164223   3.545   2.727  16.491 -0.4589  1.5540 -0.0904
14244TIP3    H264224   3.656   2.699  16.391 -0.8635 -0.2266 -0.0410
14245TIP3   OH264225   2.933   4.352   3.211  0.0516  0.1275  0.2111
14245TIP3    H164226   2.915   4.411   3.139  0.3232  0.8393  0.7138
14245TIP3    H264227   2.848   4.332   3.249 -0.0162  0.4791  0.2485
14246TIP3   OH264228   1.678   1.346   4.980 -0.1928 -0.1345  0.6392
14246TIP3    H164229   1.710   1.293   4.907  0.0100 -0.7969  1.2092
14246TIP3    H264230   1.686   1.436   4.949  2.2726 -0.2723  0.8007
14247TIP3   OH264231   4.549   6.228   1.580 -0.1059  0.1466 -0.4717
14247TIP3    H164232   4.578   6.136   1.579 -1.9703 -0.4755 -2.2853
14247TIP3    H264233   4.620   6.276   1.621  0.5607 -2.2474  1.2636
14248TIP3   OH264234   4.782   2.157  13.479  0.0140 -0.3154  0.3392
14248TIP3    H164235   4.812   2.227  13.537  0.9755  0.3051 -0.9010
14248TIP3    H264236   4.838   2.163  13.402 -1.3854 -1.0028 -0.7652
14249TIP3   OH264237   0.557   2.804   2.388 -0.1502 -0.1139  0.9451
14249TIP3    H164238   0.598   2.874   2.338  0.5265 -0.8975  0.3790
14249TIP3    H264239   0.464   2.826   2.389 -0.1462  0.0371 -0.4782
14250TIP3   OH264240   1.221   6.155   4.915  0.5413  0.0396  0.1268
14250TIP3    H164241   1.179   6.137   4.999  0.9190 -0.1019  0.2844
14250TIP3    H264242   1.226   6.070   4.871  1.8034 -0.1615  0.6347
14251TIP3   OH264243   2.502   4.783  15.190  0.0809 -0.3428  0.4342
14251TIP3    H164244   2.579   4.736  15.156  1.5424  1.8626  0.5964
14251TIP3    H264245   2.460   4.820  15.112 -0.2579 -0.7116  0.4400
14252TIP3   OH264246   3.657   1.894   3.800 -0.1233  0.6411  0.3423
14252TIP3    H164247   3.729   1.956   3.805 -0.9067  1.4709  1.9015
14252TIP3    H264248   3.621   1.892   3.889 -0.7937 -1.2278  0.0600
14253TIP3   OH264249   1.032   0.181   3.773 -0.1139  0.7083  0.1655
14253TIP3    H164250   1.124   0.207   3.772  0.0878  0.0302  0.7885
14253TIP3    H264251   1.027   0.105   3.715 -0.1607  0.3399  0.6528
14254TIP3   OH264252   2.323   1.240  16.508 -0.4374 -0.0140  0.1629
14254TIP3    H164253   2.400   1.288  16.539  0.3382 -2.4805  2.1779
14254TIP3    H264254   2.297   1.287  16.428  1.5381  2.4568  0.8819
14255TIP3   OH264255   0.000   4.777  10.670  0.1957 -0.3318 -0.1952
14255TIP3    H164256  -0.068   4.715  10.645 -0.3416  0.1039  0.1794
14255TIP3    H264257   0.071   4.721  10.705 -0.0454 -0.7684 -0.3961
14256TIP3   OH264258   2.167   6.806   6.401 -0.3299 -0.6151 -0.6183
14256TIP3    H164259   2.180   6.779   6.310 -1.7463  0.3435 -1.1369
14256TIP3    H264260   2.094   6.868   6.397  2.2494  2.6667  0.6195
14257TIP3   OH264261   3.665   5.978  16.118  0.2685 -0.2655 -0.8990
14257TIP3    H164262   3.726   6.022  16.179  0.8397 -0.6060 -1.2236
14257TIP3    H264263   3.720   5.952  16.044 -0.3344 -0.3000 -1.3379
14258TIP3   OH264264   3.433   3.229   6.324 -0.4546  0.2693  0.3229
14258TIP3    H164265   3.345   3.247   6.358 -0.0476  1.1407  0.9386
14258TIP3    H264266   3.450   3.138   6.347 -0.6071  0.5396  1.5408
14259TIP3   OH264267   1.558   2.892   1.304  0.0122  0.4035  0.2815
14259TIP3    H164268   1.482   2.833   1.311 -0.2992  0.8762  0.9426
14259TIP3    H264269   1.527   2.975   1.339  0.9007  0.5392  0.7719
14260TIP3   OH264270   5.354   0.756   0.316  0.4313 -0.6798  0.3974
14260TIP3    H164271   5.355   0.692   0.245 -2.4561 -0.2358 -0.0859
14260TIP3    H264272   5.447   0.775   0.332  1.2077 -2.5301 -1.6396
14261TIP3   OH264273   4.040   6.663  12.393  0.2279 -0.1375 -0.4240
14261TIP3    H164274   4.131   6.643  12.414  0.6382  2.8023  0.9274
14261TIP3    H264275   3.990   6.589  12.427  1.7856  0.0446  2.3676
14262TIP3   OH264276   4.190   6.583  11.084  0.0603  0.5614  0.3484
14262TIP3    H164277   4.262   6.539  11.130  0.0110  0.4847  0.3531
14262TIP3    H264278   4.232   6.654  11.036  0.3686 -0.4623 -0.9337
14263TIP3   OH264279   5.324   4.473  16.142 -0.5232 -0.3616  0.1996
14263TIP3    H164280   5.271   4.537  16.189 -2.1865 -0.7886 -1.0476
14263TIP3    H264281   5.311   4.391  16.190  3.0688  0.5173  2.9104
14264TIP3   OH264282   5.449   5.078   0.196  0.3055  0.0069 -1.0520
14264TIP3    H164283   5.461   5.066   0.101 -0.5222 -0.4453 -1.1029
14264TIP3    H264284   5.465   5.172   0.210 -0.1159  0.1861 -1.7249
14265TIP3   OH264285   5.564   2.067  16.666 -0.1577  0.1647 -0.4237
14265TIP3    H164286   5.612   2.094  16.588  0.2308 -0.7267 -0.4932
14265TIP3    H264287   5.586   2.133  16.732 -0.9013  1.2138 -1.2063
14266TIP3   OH264288   2.600   5.227   1.104  0.1439 -0.0710  1.2067
14266TIP3    H164289   2.592   5.166   1.177 -1.0930 -1.2116  0.1463
14266TIP3    H264290   2.612   5.313   1.145  1.9009 -1.0147  2.6947
14267TIP3   OH264291   0.105   2.590   1.568  0.2261 -0.2015  0.2930
14267TIP3    H164292   0.010   2.587   1.580  0.0435 -0.0214 -1.0526
14267TIP3    H264293   0.141   2.549   1.647 -0.9448  0.3968  1.1459
14268TIP3   OH264294   6.093   5.270   2.211 -0.4542 -0.1052  0.3668
14268TIP3    H164295   6.164   5.216   2.246  1.3646  1.3902 -0.8932
14268TIP3    H264296   6.134   5.320   2.140 -2.7753  0.8192 -0.3700
14269TIP3   OH264297   3.471   3.100  13.020 -0.0661 -0.5082 -0.2111
14269TIP3    H164298   3.383   3.072  12.993 -0.5608 -1.1752  1.9768
14269TIP3    H264299   3.506   3.026  13.069  1.7451 -0.2581 -1.0972
14270TIP3   OH264300   3.491   2.408   2.500 -0.1297  0.2424  0.0811
14270TIP3    H164301   3.450   2.493   2.484  0.4095  0.4384 -0.2794
14270TIP3    H264302   3.423   2.344   2.480 -0.2352  0.5623 -0.6043
14271TIP3   OH264303   6.725   3.469  16.644  0.4312  0.0915 -0.0698
14271TIP3    H164304   6.757   3.419  16.569 -1.2513  0.0262 -0.7658
14271TIP3    H264305   6.634   3.488  16.623  0.1460  0.6998  1.6402
14272TIP3   OH264306   4.538   1.712   2.143  0.6452  0.4367  0.2619
14272TIP3    H164307   4.501   1.800   2.142 -0.0534  0.1684  1.5855
14272TIP3    H264308   4.462   1.654   2.145  1.0551 -0.2772 -2.7081
14273TIP3   OH264309   2.659   2.025   5.547  0.1575  0.7625 -0.3534
14273TIP3    H164310   2.697   1.937   5.539  3.3431  2.0664 -0.2618
14273TIP3    H264311   2.601   2.020   5.623  1.7724 -0.7642  0.8084
14274TIP3   OH264312   2.409   4.305  14.599  0.5039  0.3884 -0.3198
14274TIP3    H164313   2.496   4.274  14.575  0.0721 -0.5458 -0.7030
14274TIP3    H264314   2.412   4.317  14.694  0.9644  0.0761 -0.2960
14275TIP3   OH264315   5.912   4.059  15.846  0.2413  0.0425  0.1794
14275TIP3    H164316   5.842   4.124  15.857  0.8339  0.5789  0.8357
14275TIP3    H264317   5.942   4.072  15.756 -0.1417  0.1799  0.0688
14276TIP3   OH264318   2.571   1.991  13.655 -0.1789  0.2576  0.0860
14276TIP3    H164319   2.495   1.990  13.598 -0.2119  2.0320  0.0647
14276TIP3    H264320   2.645   2.008  13.597  0.2571 -1.5185  0.0990
14277TIP3   OH264321   4.333   5.228   2.185 -0.4514  0.2314 -0.3232
14277TIP3    H164322   4.355   5.288   2.113 -0.8763 -0.4310 -1.0171
14277TIP3    H264323   4.417   5.188   2.209 -0.4398 -0.2051 -1.0627
14278TIP3   OH264324   6.076   3.842  11.753 -0.5304  0.1371 -0.6211
14278TIP3    H164325   6.007   3.857  11.818  0.7550  0.6150  0.6587
14278TIP3    H264326   6.145   3.796  11.801 -1.0295 -2.7650 -2.5267
14279TIP3   OH264327   5.589   0.639   3.669  0.2218  0.4287 -0.3036
14279TIP3    H164328   5.556   0.564   3.718  1.4909  0.1265  0.1011
14279TIP3    H264329   5.564   0.622   3.578  1.2103 -0.8802 -0.3333
14280TIP3   OH264330   0.131   5.584   4.171 -0.1837 -0.4165 -0.0697
14280TIP3    H164331   0.098   5.495   4.160  1.8430 -1.0555 -1.2227
14280TIP3    H264332   0.129   5.621   4.083 -1.1002  0.7308  0.4181
14281TIP3   OH264333   6.058   1.698  11.955 -0.8131  0.0612 -0.0432
14281TIP3    H164334   5.972   1.728  11.985 -0.8860 -0.0552 -0.1325
14281TIP3    H264335   6.115   1.709  12.030 -1.0232 -0.3458  0.1792
14282TIP3   OH264336   2.223   5.262   6.349 -0.4717  0.0266 -0.4178
14282TIP3    H164337   2.211   5.217   6.266  0.6058  0.3092 -0.7219
14282TIP3    H264338   2.316   5.282   6.354 -0.7768  1.4409  0.1150
14283TIP3   OH264339   3.265   5.258   6.964  0.5276  0.3184 -0.0013
14283TIP3    H164340   3.214   5.290   6.890  1.3667 -0.5617 -0.9712
14283TIP3    H264341   3.214   5.184   6.998 -0.2309  1.1826  0.7840
14284TIP3   OH264342   3.812   5.158  12.248 -0.5015 -0.3895 -0.3127
14284TIP3    H164343   3.896   5.113  12.256 -0.2489  0.0593 -0.3729
14284TIP3    H264344   3.775   5.127  12.165  0.7031  1.1913 -1.4770
14285TIP3   OH264345   2.835   1.215  15.318  0.2482 -0.8407  0.2984
14285TIP3    H164346   2.840   1.309  15.301  0.0312  0.1163  4.9690
14285TIP3    H264347   2.827   1.175  15.231  1.9124  3.3119 -1.8721
14286TIP3   OH264348   6.549   4.738   0.560  0.4703 -0.3192  0.1549
14286TIP3    H164349   6.472   4.695   0.597  1.0039 -0.9865  0.5129
14286TIP3    H264350   6.548   4.826   0.597  1.5120 -1.2751  2.5586
14287TIP3   OH264351   0.318   5.303  11.881  0.3204  0.6993  0.2398
14287TIP3    H164352   0.361   5.231  11.928  1.0999  0.4145 -0.8823
14287TIP3    H264353   0.251   5.260  11.829 -0.1321  0.9474  0.6161
14288TIP3   OH264354   5.718   6.815   0.091 -0.0608 -0.2314 -0.2070
14288TIP3    H164355   5.668   6.801   0.011  0.9905 -2.7084 -0.4681
14288TIP3    H264356   5.779   6.742   0.095  0.4748  0.2950  2.4347
14289TIP3   OH264357   5.539   0.535  16.159  0.0139 -0.0286  0.4501
14289TIP3    H164358   5.520   0.626  16.135 -1.4712 -0.0890  1.3469
14289TIP3    H264359   5.583   0.541  16.244  0.5762 -0.1049  0.1626
14290TIP3   OH264360   0.513   5.174   2.453  0.0753 -0.2657  0.4448
14290TIP3    H164361   0.561   5.211   2.379 -1.6075  1.1551  0.0473
14290TIP3    H264362   0.466   5.099   2.416  0.4267 -0.4622  0.3986
14291TIP3   OH264363   6.095   5.158  16.236  0.5257 -0.8378  0.6021
14291TIP3    H164364   6.174   5.160  16.182  1.1636 -0.3783  1.5441
14291TIP3    H264365   6.128   5.142  16.325 -0.3074  0.9893  1.2472
14292TIP3   OH264366   3.083   1.054   4.842 -0.1225  0.4295  0.1926
14292TIP3    H164367   3.050   1.020   4.759  0.0362  1.6740 -0.3935
14292TIP3    H264368   3.154   0.994   4.866 -1.3865 -1.0346  0.3957
14293TIP3   OH264369   5.000   0.948  16.195 -0.5502  0.2287 -0.6546
14293TIP3    H164370   4.911   0.920  16.176 -0.5682  0.2816 -0.6488
14293TIP3    H264371   4.990   1.023  16.253 -0.4894 -0.1098 -0.2051
14294TIP3   OH264372   0.580   3.507   4.626 -0.1814 -0.1864 -0.3682
14294TIP3    H164373   0.672   3.510   4.598  0.4334 -0.4069  1.5971
14294TIP3    H264374   0.584   3.515   4.721 -2.2480  0.4731 -0.3300
14295TIP3   OH264375   1.232   3.398   4.932 -0.4222 -0.3772 -0.1681
14295TIP3    H164376   1.167   3.356   4.988  1.9656 -0.4267  2.6824
14295TIP3    H264377   1.269   3.468   4.986  1.9528 -0.4140 -1.6684
14296TIP3   OH264378   4.579   1.580   3.817  0.0016  0.0188  0.8190
14296TIP3    H164379   4.568   1.594   3.723 -0.5701  2.1572  1.1780
14296TIP3    H264380   4.560   1.487   3.829  0.4452 -0.3713 -1.2245
14297TIP3   OH264381   6.752   4.294  17.240  0.1176  0.1065 -0.2904
14297TIP3    H164382   6.758   4.331  17.152 -0.3176  0.5584 -0.1289
14297TIP3    H264383   6.806   4.351  17.294  3.5521 -2.3393 -0.9463
14298TIP3   OH264384   2.697   6.219  13.580  0.4621  0.1191 -0.3741
14298TIP3    H164385   2.624   6.157  13.585 -0.3890  1.2106  1.1030
14298TIP3    H264386   2.706   6.253  13.669  2.6863  0.1289 -0.5646
14299TIP3   OH264387   4.606   4.440   3.457 -0.1692  0.5726  0.3032
14299TIP3    H164388   4.675   4.402   3.402 -0.6502 -0.4358  0.3883
14299TIP3    H264389   4.533   4.455   3.396 -0.4901  0.0103  0.5442
14300TIP3   OH264390   0.570   0.412   3.845  0.3438 -0.7634  1.1285
14300TIP3    H164391   0.570   0.476   3.773 -0.4312  1.0409  2.6825
14300TIP3    H264392   0.662   0.408   3.873  0.7061 -1.7325 -0.1785
14301TIP3   OH264393   6.233   1.744  12.773 -0.1271 -0.2122 -0.2831
14301TIP3    H164394   6.313   1.791  12.796  0.2805 -1.2366  0.4517
14301TIP3    H264395   6.243   1.658  12.815 -2.7778  0.5540  2.0422
14302TIP3   OH264396   2.398   6.432   3.595 -0.7569  0.3471  0.0457
14302TIP3    H164397   2.355   6.447   3.679  0.2599  3.0495  0.1098
14302TIP3    H264398   2.386   6.513   3.546  0.5022 -0.4303 -1.6047
14303TIP3   OH264399   5.487   4.024   4.536  0.0790  0.0097 -0.3557
14303TIP3    H164400   5.482   3.978   4.620 -0.4254  1.5934  0.4991
14303TIP3    H264401   5.447   3.964   4.473 -2.0388 -0.0766  1.0149
14304TIP3   OH264402   5.372   1.188  17.151  0.0046 -0.5906 -0.2901
14304TIP3    H164403   5.294   1.234  17.121  0.0190 -0.9467 -0.8965
14304TIP3    H264404   5.357   1.096  17.127 -0.0522 -0.9108  0.9555
14305TIP3   OH264405   1.360   2.363  15.059 -0.0612  0.5522  0.3868
14305TIP3    H164406   1.393   2.275  15.047  1.9711  1.2930  0.4123
14305TIP3    H264407   1.346   2.396  14.970  1.6190  1.0928  0.3094
14306TIP3   OH264408   4.478   2.314   2.319  0.3367  0.6732  0.1795
14306TIP3    H164409   4.519   2.337   2.236 -1.8173  0.7856 -0.8845
14306TIP3    H264410   4.551   2.312   2.382  1.8836  1.2943 -1.5407
14307TIP3   OH264411   6.230   1.023   5.443  1.2907  0.6753 -0.6004
14307TIP3    H164412   6.253   1.113   5.466  0.3349  0.5756  0.8018
14307TIP3    H264413   6.135   1.018   5.456  1.3861 -0.6353 -0.3383
14308TIP3   OH264414   3.353   0.795   0.745 -0.1899  0.0553 -0.0005
14308TIP3    H164415   3.345   0.885   0.712  1.4909 -0.1160 -0.9383
14308TIP3    H264416   3.401   0.804   0.827 -2.6603  0.2837  1.4734
14309TIP3   OH264417   5.571   2.241  15.176 -0.1154  0.2876  0.1649
14309TIP3    H164418   5.506   2.188  15.129 -0.5141  0.6954  0.2485
14309TIP3    H264419   5.616   2.179  15.234 -0.3244 -0.0256 -0.0064
14310TIP3   OH264420   4.529   1.427   5.533 -0.2934  0.1675 -0.0944
14310TIP3    H164421   4.446   1.467   5.559 -0.9217 -1.6400  0.7742
14310TIP3    H264422   4.543   1.358   5.598  0.4153 -1.4576 -1.9329
14311TIP3   OH264423   3.549   0.870   4.389 -0.3491 -0.1135  0.1924
14311TIP3    H164424   3.527   0.870   4.482 -0.4066  0.0106  0.1796
14311TIP3    H264425   3.500   0.797   4.352  0.6702 -0.9704  0.4918
14312TIP3   OH264426   1.771   4.651   0.941  0.2811 -0.6897 -0.0354
14312TIP3    H164427   1.687   4.684   0.908  0.1128 -0.5649  0.5222
14312TIP3    H264428   1.818   4.624   0.862 -0.1766 -0.5119 -0.3726
14313TIP3   OH264429   3.554   3.451   0.600 -0.1061 -0.2899 -0.6968
14313TIP3    H164430   3.518   3.497   0.525 -1.4729  0.0644  0.1565
14313TIP3    H264431   3.629   3.504   0.627 -0.1004  0.0186 -1.3056
14314TIP3   OH264432   0.532   4.287   2.339  0.0314 -0.0961  0.5387
14314TIP3    H164433   0.620   4.251   2.336  0.1750  0.1164  1.9184
14314TIP3    H264434   0.499   4.278   2.249  1.3389 -0.4375  0.0845
14315TIP3   OH264435   1.815   6.781  11.833 -0.1527  0.3046  0.3694
14315TIP3    H164436   1.724   6.811  11.828 -0.3567 -0.3295  0.2488
14315TIP3    H264437   1.813   6.709  11.895  0.2225  0.1050  0.1517
14316TIP3   OH264438   1.504   5.171   1.173  0.1269  0.2187 -0.2912
14316TIP3    H164439   1.538   5.261   1.174  2.0438 -0.4875  0.6469
14316TIP3    H264440   1.577   5.118   1.142 -0.3794 -1.2347  0.9140
14317TIP3   OH264441   1.819   1.494   1.086  0.0841 -0.4018  0.6404
14317TIP3    H164442   1.819   1.585   1.116  0.4878 -0.0877 -0.3000
14317TIP3    H264443   1.896   1.455   1.128  0.3076 -0.1181  0.5014
14318TIP3   OH264444   6.606   4.837   3.554  0.2007  0.2441 -0.8124
14318TIP3    H164445   6.620   4.753   3.509 -0.9138  0.7876 -2.2560
14318TIP3    H264446   6.688   4.855   3.598  0.2708 -1.8918  0.0085
14319TIP3   OH264447   5.056   6.507  14.868  0.0324 -0.6215  0.0901
14319TIP3    H164448   5.033   6.434  14.811  0.6335  0.1809 -1.1978
14319TIP3    H264449   5.073   6.466  14.953  0.1639 -1.9590 -0.5565
14320TIP3   OH264450   2.069   5.285  13.477  0.2669 -0.0413 -0.2462
14320TIP3    H164451   2.108   5.201  13.453 -0.5740 -0.4573 -0.1713
14320TIP3    H264452   2.130   5.323  13.540 -0.0729 -1.2496  0.8213
14321TIP3   OH264453   6.571   5.162   1.992  0.4481 -0.1013 -0.3155
14321TIP3    H164454   6.620   5.117   1.923 -1.7531 -0.3215 -1.7750
14321TIP3    H264455   6.564   5.252   1.961  0.6698  0.1400  0.3193
14322TIP3   OH264456   4.448   1.305  13.180 -0.2769 -0.0895 -0.2839
14322TIP3    H164457   4.515   1.351  13.230 -0.2936  0.5239 -0.8214
14322TIP3    H264458   4.367   1.353  13.198 -0.4672 -0.4801 -0.0919
14323TIP3   OH264459   0.581   0.488  11.575 -0.2873  0.1822 -0.7120
14323TIP3    H164460   0.537   0.465  11.493 -0.6413  1.2760 -0.8351
14323TIP3    H264461   0.657   0.539  11.548 -0.8949  1.3127 -0.3290
14324TIP3   OH264462   0.942   0.404  14.269 -0.1422 -0.8937  0.0393
14324TIP3    H164463   0.890   0.469  14.221  0.3393 -0.1598  0.5014
14324TIP3    H264464   0.890   0.385  14.347 -0.2692 -1.0532 -0.0809
14325TIP3   OH264465   6.792   3.195   4.261  0.3487  0.1995  0.0401
14325TIP3    H164466   6.757   3.198   4.172 -0.7192  1.1400  0.4759
14325TIP3    H264467   6.807   3.287   4.284 -0.1119  0.0151  1.1082
14326TIP3   OH264468   1.481   5.590  13.546 -0.3234 -0.8629  0.3597
14326TIP3    H164469   1.413   5.610  13.482  0.0116 -3.3369 -0.8134
14326TIP3    H264470   1.438   5.600  13.631 -1.5333 -0.2881 -0.3184
14327TIP3   OH264471   3.914   5.364   3.754  0.2064  1.1743 -0.3048
14327TIP3    H164472   3.847   5.311   3.711  2.5267 -1.2116 -1.0833
14327TIP3    H264473   3.877   5.383   3.840 -1.4081 -0.2894 -0.6393
14328TIP3   OH264474   5.685   6.039  12.409 -0.4500  0.0737  0.3260
14328TIP3    H164475   5.779   6.031  12.393 -0.5270  1.5908 -1.0401
14328TIP3    H264476   5.656   5.950  12.431  1.0409 -0.6912 -0.7383
14329TIP3   OH264477   0.005   5.654   2.877 -0.4258 -0.8070 -0.3491
14329TIP3    H164478  -0.062   5.673   2.812 -1.3483  1.9279  1.3219
14329TIP3    H264479  -0.033   5.585   2.932 -2.7003  1.8851  1.6350
14330TIP3   OH264480   4.823   5.258   0.725  0.3072 -0.6305  0.5659
14330TIP3    H164481   4.736   5.298   0.734  0.4585  0.1679 -1.2945
14330TIP3    H264482   4.824   5.224   0.636  1.8524 -0.7701  0.6352
14331TIP3   OH264483   0.536   6.037   1.832 -0.1521  0.3362 -0.0540
14331TIP3    H164484   0.466   6.072   1.778 -0.0995  0.8249  0.1893
14331TIP3    H264485   0.498   5.961   1.876 -0.6736  0.9001  0.4606
14332TIP3   OH264486   4.162   1.164  16.111 -1.0515 -0.1089 -0.3391
14332TIP3    H164487   4.208   1.092  16.153  0.0771  0.9235  0.2395
14332TIP3    H264488   4.081   1.173  16.162 -0.8937 -0.5388 -0.0122
14333TIP3   OH264489   1.073   0.604  15.508 -0.2043 -0.3207  0.0153
14333TIP3    H164490   1.009   0.586  15.440 -0.0694 -3.6314  0.7060
14333TIP3    H264491   1.041   0.683  15.552 -1.7245  0.2543 -2.1067
14334TIP3   OH264492   4.249   2.889   3.945  0.8724  0.5337  0.2840
14334TIP3    H164493   4.310   2.831   3.990 -0.9950 -1.5396  0.2722
14334TIP3    H264494   4.291   2.975   3.947  3.3901 -0.6655  0.9539
14335TIP3   OH264495   6.134   5.725   3.639  0.1770 -0.2470  0.9774
14335TIP3    H164496   6.228   5.739   3.646  0.3121 -1.4371  1.6091
14335TIP3    H264497   6.119   5.641   3.682 -1.0828 -0.3859  0.2795
14336TIP3   OH264498   5.312   2.897  16.942 -0.5157 -0.2652  0.0983
14336TIP3    H164499   5.400   2.861  16.944  0.0056  1.0176  0.3836
14336TIP3    H264500   5.283   2.894  17.033 -0.0630  1.0129  0.2956
14337TIP3   OH264501   3.947   3.091   0.038  0.0848 -0.5372  0.0804
14337TIP3    H164502   4.038   3.114   0.020  0.2647  0.2472  1.8109
14337TIP3    H264503   3.896   3.159  -0.005  0.5031  1.4008  2.5147
14338TIP3   OH264504   0.962   3.169  17.004 -0.0470  0.4290 -0.6257
14338TIP3    H164505   1.026   3.234  16.976 -0.2249  0.5489 -0.7581
14338TIP3    H264506   0.877   3.209  16.983 -0.1501  0.0677 -0.9003
14339TIP3   OH264507   0.019   2.688   5.624  0.2727 -0.1635 -0.2481
14339TIP3    H164508   0.041   2.758   5.563 -1.7870 -0.0558 -0.9017
14339TIP3    H264509  -0.068   2.658   5.596  0.1644 -1.4526  1.4030
14340TIP3   OH264510   6.294   1.116   4.422  0.0517  0.1825  0.6300
14340TIP3    H164511   6.302   1.062   4.343  0.9841 -0.7122  1.3212
14340TIP3    H264512   6.383   1.121   4.456 -0.4586 -0.0630  2.0331
14341TIP3   OH264513   2.629   5.488   2.447  0.2621  0.0617 -0.3768
14341TIP3    H164514   2.580   5.422   2.398 -0.8019  2.6527 -2.9906
14341TIP3    H264515   2.658   5.443   2.526 -4.0186 -2.3611 -0.0350
14342TIP3   OH264516   5.462   2.848   5.225 -0.1145  0.4683 -0.1967
14342TIP3    H164517   5.408   2.884   5.295  1.8660  1.0268  1.0924
14342TIP3    H264518   5.527   2.794   5.270  1.2691  0.9386 -1.5690
14343TIP3   OH264519   1.633   5.062  12.688  0.0867 -0.1111 -0.0590
14343TIP3    H164520   1.576   5.015  12.748  1.2184 -0.5804  0.6642
14343TIP3    H264521   1.573   5.102  12.624 -1.1398  0.5516  1.4711
14344TIP3   OH264522   4.682   3.173   5.786  0.2740  0.3308  0.1983
14344TIP3    H164523   4.697   3.084   5.753 -1.7340  0.2729 -0.6705
14344TIP3    H264524   4.712   3.230   5.716 -0.2043  0.2843 -0.0506
14345TIP3   OH264525   1.621   2.892  15.847  0.0144 -0.5197  0.1892
14345TIP3    H164526   1.689   2.950  15.813 -0.1567 -1.1228 -1.2143
14345TIP3    H264527   1.623   2.906  15.942 -0.6067  2.3810 -0.1893
14346TIP3   OH264528   1.863   4.835   0.491 -0.1384 -0.4909  0.5005
14346TIP3    H164529   1.876   4.870   0.579 -0.8709  1.8913 -0.2968
14346TIP3    H264530   1.785   4.781   0.498  1.0483 -2.0648  1.7776
14347TIP3   OH264531   6.371   1.337   2.789 -0.2572 -0.5685 -0.0533
14347TIP3    H164532   6.395   1.424   2.758  0.2146 -0.3575  0.8945
14347TIP3    H264533   6.278   1.328   2.765 -0.2695  0.1331 -0.2830
14348TIP3   OH264534   4.187   5.793   5.963 -0.2258  0.7236  0.4120
14348TIP3    H164535   4.148   5.767   5.879 -0.2075  0.6224  0.4346
14348TIP3    H264536   4.257   5.853   5.940  1.3792 -1.1872  0.1973
14349TIP3   OH264537   5.706   6.572  13.429  0.2281  0.2639  0.0845
14349TIP3    H164538   5.750   6.641  13.380  1.2676  0.2850  1.0259
14349TIP3    H264539   5.776   6.528  13.477 -0.3253 -1.9254 -1.0638
14350TIP3   OH264540   4.274   0.676  13.461  0.6333 -0.3170  0.2461
14350TIP3    H164541   4.275   0.665  13.556  0.0094 -3.2550 -0.0663
14350TIP3    H264542   4.182   0.666  13.436  0.6131  1.6161 -0.5743
14351TIP3   OH264543   2.248   3.380   2.415 -0.2787  0.6381 -0.5721
14351TIP3    H164544   2.156   3.388   2.439  0.0091  0.6787  0.5259
14351TIP3    H264545   2.263   3.454   2.356 -0.5560  1.5444  0.4828
14352TIP3   OH264546   2.829   0.650  11.295 -0.5290  0.3041 -0.4243
14352TIP3    H164547   2.924   0.639  11.299 -0.7019 -1.7068 -1.0434
14352TIP3    H264548   2.799   0.581  11.235 -2.6953 -1.3017  2.3622
14353TIP3   OH264549   4.578   4.650   2.157  0.0817 -0.0747 -0.0968
14353TIP3    H164550   4.615   4.712   2.220 -0.3141 -0.9424  1.0166
14353TIP3    H264551   4.603   4.564   2.191 -0.2485 -0.5625 -1.0666
14354TIP3   OH264552   5.963   6.525  15.328 -0.0849  0.5456  0.1703
14354TIP3    H164553   6.019   6.528  15.405  0.9914  0.9897 -0.6240
14354TIP3    H264554   5.900   6.456  15.348  1.0260 -0.2919  0.8730
14355TIP3   OH264555   4.348   2.993  15.673  0.4499  0.0795 -0.2947
14355TIP3    H164556   4.429   3.039  15.695 -0.4442  0.7218  1.7867
14355TIP3    H264557   4.295   2.998  15.753 -1.7036 -0.2141 -1.6644
14356TIP3   OH264558   4.033   1.528   5.323 -0.4115  0.2274 -0.1795
14356TIP3    H164559   4.004   1.593   5.387  0.2799  1.1663 -0.8046
14356TIP3    H264560   3.974   1.540   5.248 -0.4233 -0.0133 -0.2089
14357TIP3   OH264561   3.236   2.019  11.280  0.4314  0.2497 -0.6312
14357TIP3    H164562   3.185   2.068  11.215  1.5254  1.5536 -0.5255
14357TIP3    H264563   3.243   1.931  11.243  2.7197  1.4666 -3.2604
14358TIP3   OH264564   5.465   5.407   1.866 -0.8851 -0.3540 -0.1959
14358TIP3    H164565   5.519   5.384   1.941  0.4784  1.3678 -0.6214
14358TIP3    H264566   5.415   5.483   1.894  0.3954  0.9339 -1.3567
14359TIP3   OH264567   3.630   5.276   6.578  0.2543 -1.0801 -0.4016
14359TIP3    H164568   3.582   5.196   6.556 -1.7416  0.5176 -2.0122
14359TIP3    H264569   3.690   5.289   6.504 -0.6145 -0.1800 -0.9530
14360TIP3   OH264570   5.240   2.522  15.260  0.8253 -0.4051 -0.4440
14360TIP3    H164571   5.250   2.590  15.327 -0.0796 -0.6082 -0.0853
14360TIP3    H264572   5.145   2.509  15.254  1.0516 -4.1086  2.0564
14361TIP3   OH264573   5.369   5.412  12.854 -0.1836  0.3921  0.4851
14361TIP3    H164574   5.450   5.378  12.890  0.3759  2.7832  1.6272
14361TIP3    H264575   5.364   5.376  12.766  2.2240  0.3593  0.3369
14362TIP3   OH264576   4.568   1.240   1.665  0.2225  0.2987 -0.4749
14362TIP3    H164577   4.631   1.178   1.703  1.1419  2.0871  1.0120
14362TIP3    H264578   4.606   1.263   1.580 -0.3695 -1.5186 -1.2498
14363TIP3   OH264579   6.596   4.517   5.669  0.0919  0.3507 -0.1451
14363TIP3    H164580   6.529   4.536   5.734 -1.8399 -1.6306 -1.4946
14363TIP3    H264581   6.671   4.486   5.719 -1.0925 -0.4179  1.1913
14364TIP3   OH264582   3.540   2.735  10.679  0.0625 -0.0950 -0.5203
14364TIP3    H164583   3.589   2.799  10.626 -0.4928  0.6593 -0.1310
14364TIP3    H264584   3.603   2.665  10.696  1.4618  1.5281  1.1900
14365TIP3   OH264585   3.459   3.108   2.657 -0.1424 -0.2854 -0.0209
14365TIP3    H164586   3.387   3.045   2.664  0.1454 -0.6741 -0.5667
14365TIP3    H264587   3.452   3.161   2.737 -2.0458  0.7538 -0.8313
14366TIP3   OH264588   6.646   0.717  12.954 -0.2008  0.1534 -0.5727
14366TIP3    H164589   6.664   0.792  12.896 -1.1803 -0.1795 -1.3080
14366TIP3    H264590   6.569   0.744  13.004  1.1865  0.8213  1.2704
14367TIP3   OH264591   0.304   3.535   4.190 -0.1126  0.1648 -0.6116
14367TIP3    H164592   0.278   3.578   4.272  1.3752  2.5911 -1.3606
14367TIP3    H264593   0.246   3.571   4.124 -0.9580 -1.4009 -0.7414
14368TIP3   OH264594   1.713   4.974   1.573 -0.3819 -0.4106 -0.1499
14368TIP3    H164595   1.701   4.894   1.624 -0.8184  0.2052  0.7101
14368TIP3    H264596   1.803   5.000   1.590 -0.3607 -0.5015 -0.1221
14369TIP3   OH264597   4.350   4.558   5.810  0.3824  0.0117  0.3202
14369TIP3    H164598   4.264   4.600   5.805  0.3485 -0.1977 -1.3688
14369TIP3    H264599   4.412   4.630   5.819  0.1607  0.2991 -0.4045
14370TIP3   OH264600   4.735   5.562  11.314 -0.0545 -0.0126 -0.0949
14370TIP3    H164601   4.761   5.654  11.308 -0.8805  0.4609  2.7598
14370TIP3    H264602   4.649   5.559  11.272  0.3321  0.3528 -0.9212
14371TIP3   OH264603   2.858   6.468  12.208 -0.1186 -0.3302  0.4123
14371TIP3    H164604   2.864   6.546  12.152 -2.0741 -0.0313  0.6021
14371TIP3    H264605   2.899   6.399  12.156  0.2156  0.4628 -0.4053
14372TIP3   OH264606   2.458   4.055  14.737 -0.6680  0.6445  0.3479
14372TIP3    H164607   2.440   3.961  14.741  1.7350  0.2061  1.4468
14372TIP3    H264608   2.437   4.079  14.646 -0.6887 -1.0700 -0.1203
14373TIP3   OH264609   0.735   0.190  14.089  0.0112  0.2962  0.4905
14373TIP3    H164610   0.789   0.140  14.151  2.1429  2.1898  0.2126
14373TIP3    H264611   0.771   0.168  14.003 -2.1648 -1.3765 -0.0578
14374TIP3   OH264612   1.098   5.549   3.006  0.2997 -0.2386  0.6130
14374TIP3    H164613   1.098   5.454   2.993  1.2961  0.0180 -1.4944
14374TIP3    H264614   1.191   5.573   3.005  0.0195  0.8685  0.0262
14375TIP3   OH264615   3.987   0.676   1.496 -0.2179 -0.0580  0.8041
14375TIP3    H164616   3.997   0.601   1.554  0.0402  0.4216  1.3945
14375TIP3    H264617   3.977   0.751   1.555 -4.1832 -0.0559  0.2452
14376TIP3   OH264618   1.495   3.122   3.315 -0.2800  0.0389  0.4998
14376TIP3    H164619   1.539   3.096   3.396 -1.8634  0.3403  1.4812
14376TIP3    H264620   1.421   3.062   3.307 -0.1854  0.0654 -0.6904
14377TIP3   OH264621   4.626   4.055  15.900  0.1022 -0.8556  0.1564
14377TIP3    H164622   4.706   4.005  15.887  0.8345 -0.0462  1.3479
14377TIP3    H264623   4.558   4.004  15.858  1.2121 -1.6817 -0.6546
14378TIP3   OH264624   3.651   4.702   2.053 -0.4401 -0.2402  0.4664
14378TIP3    H164625   3.740   4.686   2.084 -0.7135 -2.4298  0.1858
14378TIP3    H264626   3.615   4.767   2.114  1.1314  0.1938  0.9414
14379TIP3   OH264627   0.745   0.936  13.768  0.3044 -0.0308 -0.0103
14379TIP3    H164628   0.757   0.854  13.816  0.7043 -0.4075 -0.7529
14379TIP3    H264629   0.678   0.917  13.703  1.0285 -0.0190 -0.7668
14380TIP3   OH264630   5.083   0.214  13.086  0.2146  0.6490  0.3141
14380TIP3    H164631   5.061   0.218  13.179 -0.0974 -0.2177  0.2823
14380TIP3    H264632   5.142   0.288  13.072  0.5586  0.5621  1.2767
14381TIP3   OH264633   0.464   2.292  17.181  0.2146 -0.4154  0.7998
14381TIP3    H164634   0.530   2.224  17.193  1.2502  0.6717  1.3339
14381TIP3    H264635   0.406   2.258  17.113  1.9220 -0.9221 -0.4313
14382TIP3   OH264636   0.224   6.279   3.521  0.3031 -0.2051 -0.1627
14382TIP3    H164637   0.164   6.291   3.594  0.3467 -3.6023  0.4965
14382TIP3    H264638   0.302   6.330   3.545 -1.2372  2.0404  0.1986
14383TIP3   OH264639   1.091   4.401  14.495 -0.6560  0.3442  0.0435
14383TIP3    H164640   1.178   4.371  14.522  0.6155  1.8200 -2.2512
14383TIP3    H264641   1.034   4.377  14.568  1.7875 -0.0463  1.8995
14384TIP3   OH264642   4.035   5.071   2.852 -0.1010  0.3312  0.0867
14384TIP3    H164643   4.076   5.157   2.864  2.2876 -0.1253 -3.9154
14384TIP3    H264644   3.991   5.078   2.767 -0.5799 -2.1822  0.1034
14385TIP3   OH264645   2.387   1.571  16.557  0.2504 -0.2805  0.0563
14385TIP3    H164646   2.452   1.592  16.491 -0.1513  0.3972 -0.1336
14385TIP3    H264647   2.405   1.631  16.629  0.0039 -0.2665  0.1080
14386TIP3   OH264648   5.842   0.920  12.460  0.4736 -0.0495  0.1157
14386TIP3    H164649   5.896   0.994  12.486  0.5983 -0.4206  0.9395
14386TIP3    H264650   5.762   0.928  12.512 -0.2576  0.4708 -1.0693
14387TIP3   OH264651   1.412   2.940   1.816 -0.2301 -0.0715 -0.3615
14387TIP3    H164652   1.399   2.882   1.891  1.4620 -1.2300 -0.9364
14387TIP3    H264653   1.393   3.027   1.850  0.3209 -0.6040  1.3661
14388TIP3   OH264654   5.800   4.728   3.080  0.4333 -0.6008  0.0123
14388TIP3    H164655   5.764   4.639   3.079  1.1191 -0.9015  1.1174
14388TIP3    H264656   5.894   4.715   3.094  0.6261  0.2714 -0.4801
14389TIP3   OH264657   3.440   6.309   1.321 -0.5122  0.2434 -0.0309
14389TIP3    H164658   3.384   6.232   1.321  1.4571 -1.2182 -0.0652
14389TIP3    H264659   3.518   6.283   1.371  0.0810  2.2805  0.1869
14390TIP3   OH264660   2.276   5.658   0.989  0.0081 -0.3695  0.1888
14390TIP3    H164661   2.239   5.745   1.002  1.4030  0.2550  0.1343
14390TIP3    H264662   2.324   5.664   0.906 -0.0679 -1.2514  0.0712
14391TIP3   OH264663   2.466   5.522  13.793 -0.8606 -0.0663  0.5323
14391TIP3    H164664   2.483   5.538  13.700  1.7325  2.8573  1.4178
14391TIP3    H264665   2.376   5.551  13.807 -2.0232 -2.6054 -1.4862
14392TIP3   OH264666   3.496   6.436  11.510  0.2884 -0.1533 -0.4637
14392TIP3    H164667   3.433   6.405  11.446 -1.0551  2.5483 -0.5301
14392TIP3    H264668   3.450   6.431  11.594  0.6807 -0.0703 -0.2400
14393TIP3   OH264669   5.911   0.351   3.254 -0.2873  0.0823 -0.4646
14393TIP3    H164670   5.931   0.279   3.313 -1.2186  0.6799  0.6051
14393TIP3    H264671   5.818   0.340   3.233 -0.6633  1.4473  0.3927
14394TIP3   OH264672   6.475   1.578   1.530  0.2547 -0.7497 -0.8196
14394TIP3    H164673   6.468   1.673   1.533 -1.5573 -0.8718 -0.6314
14394TIP3    H264674   6.523   1.555   1.610  2.2277  0.1148 -1.7314
14395TIP3   OH264675   1.146   5.056  11.734  0.5671 -0.3465  0.0707
14395TIP3    H164676   1.119   5.148  11.740 -0.0973 -0.5723  0.5081
14395TIP3    H264677   1.112   5.015  11.813  0.2171 -1.1414 -0.4866
14396TIP3   OH264678   3.670   4.107   4.676 -0.2407  0.3660 -0.0693
14396TIP3    H164679   3.619   4.039   4.719  0.4645  0.6757  1.3021
14396TIP3    H264680   3.676   4.079   4.585  1.1291 -2.0923  0.7205
14397TIP3   OH264681   5.525   2.858  16.192  0.6021  0.0489 -0.4580
14397TIP3    H164682   5.561   2.925  16.133  1.8145 -0.3725 -0.2233
14397TIP3    H264683   5.572   2.778  16.168  0.7608 -0.2310  0.7420
14398TIP3   OH264684   3.581   6.415  10.974  0.5611 -0.0196 -0.2987
14398TIP3    H164685   3.648   6.481  10.988  1.1005 -0.8946  1.4810
14398TIP3    H264686   3.573   6.407  10.879  2.0424  1.0244 -0.5137
14399TIP3   OH264687   4.066   5.787  16.688 -0.6578 -0.0571 -0.0960
14399TIP3    H164688   4.152   5.790  16.729 -0.7199  0.4510 -0.0014
14399TIP3    H264689   4.070   5.853  16.619 -0.8508 -0.2849 -0.3272
14400TIP3   OH264690   4.606   2.337   3.578  0.6761  0.3609 -0.3287
14400TIP3    H164691   4.512   2.322   3.566  0.4895  1.4838 -0.3337
14400TIP3    H264692   4.628   2.405   3.515  1.3997  0.4315 -0.0052
14401TIP3   OH264693   0.037   2.654  16.681 -0.2184  0.6903 -0.1872
14401TIP3    H164694   0.049   2.690  16.769  1.8936  2.0347 -0.9851
14401TIP3    H264695   0.097   2.705  16.626  0.1010 -1.5977 -2.0258
14402TIP3   OH264696   4.961   6.267  12.664 -0.1462 -0.2124  0.2292
14402TIP3    H164697   4.946   6.351  12.707 -0.6190  0.3475 -1.0164
14402TIP3    H264698   4.880   6.218  12.677  0.8878 -1.3312  2.8171
14403TIP3   OH264699   2.662   2.268  12.630  0.3442  0.2141 -0.2860
14403TIP3    H164700   2.638   2.239  12.718  0.0076  2.3256  0.3311
14403TIP3    H264701   2.756   2.253  12.625  0.4997  0.8241  0.7212
14404TIP3   OH264702   0.738   1.774  16.495 -0.0834 -0.4604  0.1602
14404TIP3    H164703   0.810   1.812  16.445 -0.2990 -0.2135  0.0393
14404TIP3    H264704   0.699   1.710  16.436 -0.0298 -0.5201  0.1893
14405TIP3   OH264705   3.090   6.421  10.720  0.3552  0.1310 -0.1658
14405TIP3    H164706   3.042   6.391  10.797 -1.1541  0.3767 -0.9946
14405TIP3    H264707   3.145   6.492  10.752  1.2705 -1.1226  1.0841
14406TIP3   OH264708   0.635   0.610   4.487  0.6353  0.6324 -0.2295
14406TIP3    H164709   0.624   0.595   4.580  2.2360  0.6683 -0.0212
14406TIP3    H264710   0.556   0.573   4.447  1.1882 -1.8696  0.9026
14407TIP3   OH264711   5.280   4.631  12.914  0.0076  0.4509 -0.7471
14407TIP3    H164712   5.347   4.562  12.916  1.4533  1.8226 -1.0557
14407TIP3    H264713   5.226   4.610  12.837  1.6413  0.7492 -2.0044
14408TIP3   OH264714   5.231   1.478  17.116  0.0619  0.0394 -0.1478
14408TIP3    H164715   5.198   1.555  17.163 -0.1729 -0.4422  0.4782
14408TIP3    H264716   5.152   1.431  17.088  0.2120 -0.7858  0.8121
14409TIP3   OH264717   4.744   1.636   2.377  0.1001 -0.5250  0.3916
14409TIP3    H164718   4.761   1.656   2.469  0.4148 -1.2231  0.4914
14409TIP3    H264719   4.652   1.658   2.364  0.0931 -0.2791  0.8290
14410TIP3   OH264720   3.868   0.061   3.566  0.0594  0.2451 -0.1229
14410TIP3    H164721   3.873  -0.030   3.596 -0.0311  0.8810  1.9166
14410TIP3    H264722   3.801   0.060   3.498  0.2027 -1.2479 -0.2620
14411TIP3   OH264723   6.214   4.023  11.962  0.3659 -0.0202 -0.5707
14411TIP3    H164724   6.227   4.065  11.877  1.0935  0.9343  0.0010
14411TIP3    H264725   6.221   3.929  11.943 -0.8672  0.1244 -1.7890
14412TIP3   OH264726   4.018   6.810  14.633  0.3314 -0.7965 -0.2786
14412TIP3    H164727   4.039   6.865  14.709  0.4435 -0.0899 -0.8176
14412TIP3    H264728   4.070   6.731  14.645  2.1059  0.2697 -0.8003
14413TIP3   OH264729   3.170   4.906   3.404  0.7973  0.6109  0.6299
14413TIP3    H164730   3.207   4.868   3.483  0.5003  1.2024  1.0552
14413TIP3    H264731   3.245   4.924   3.348  0.9212 -1.0156  0.2250
14414TIP3   OH264732   4.038   3.596   2.956 -0.1386  0.2201  0.2832
14414TIP3    H164733   4.041   3.691   2.952  0.6814  0.1384 -1.4426
14414TIP3    H264734   4.001   3.577   3.042  1.3233  2.0835  1.3631
14415TIP3   OH264735   5.908   5.782  14.809  0.0589  0.1528  0.1518
14415TIP3    H164736   5.996   5.818  14.813  1.4240 -3.0367  0.8251
14415TIP3    H264737   5.866   5.828  14.736  2.3879  1.4866 -0.3840
14416TIP3   OH264738   1.803   0.657  12.887  0.3540 -0.0703  0.3037
14416TIP3    H164739   1.751   0.578  12.877  1.0641 -0.5359  0.2676
14416TIP3    H264740   1.739   0.728  12.882 -0.1658 -0.5897 -0.6801
14417TIP3   OH264741   3.674   1.098  12.440  0.2605  0.2145  0.6242
14417TIP3    H164742   3.735   1.024  12.444 -0.8192 -0.6766  0.9656
14417TIP3    H264743   3.653   1.117  12.531 -0.2047  0.3029  0.5031
14418TIP3   OH264744   0.076   6.470   6.591  0.2085  0.4389  0.4363
14418TIP3    H164745   0.037   6.461   6.504  0.8440 -1.1295  0.2933
14418TIP3    H264746   0.012   6.432   6.650  0.7127 -0.5009  0.3969
14419TIP3   OH264747   3.937   3.567   3.213  0.3989 -0.1213 -1.1224
14419TIP3    H164748   3.980   3.492   3.254  0.9095 -0.2380 -1.8830
14419TIP3    H264749   3.844   3.554   3.233  0.6465 -0.1455  0.0619
14420TIP3   OH264750   3.562   1.170  11.755  0.2080 -0.2148  0.1876
14420TIP3    H164751   3.503   1.095  11.740 -1.3196  1.2330 -1.2813
14420TIP3    H264752   3.528   1.238  11.697  0.7574  2.0800  2.4995
14421TIP3   OH264753   2.055   5.689  16.816 -0.0937  0.3867 -1.0435
14421TIP3    H164754   2.106   5.769  16.804  2.0856 -0.6986  0.6361
14421TIP3    H264755   1.964   5.716  16.803  0.5601  3.2315  0.0469
14422TIP3   OH264756   4.787   3.324   2.630 -0.1155 -0.4052  0.2926
14422TIP3    H164757   4.802   3.238   2.590 -0.0501 -0.3229  0.1391
14422TIP3    H264758   4.851   3.329   2.701 -1.0513 -1.0483  1.1835
14423TIP3   OH264759   4.150   5.989  14.858 -0.3921  0.0232 -0.6842
14423TIP3    H164760   4.244   5.988  14.878 -0.5538  1.5579  0.2119
14423TIP3    H264761   4.146   6.012  14.765  0.0995  0.8223 -0.5159
14424TIP3   OH264762   0.476   5.557  12.247 -0.5010  0.0093  0.3374
14424TIP3    H164763   0.480   5.620  12.319  2.2200 -0.4098  0.6171
14424TIP3    H264764   0.563   5.561  12.207 -1.1119 -1.7308 -1.2185
14425TIP3   OH264765   0.641   2.896   4.638 -0.9950 -0.0241  0.5839
14425TIP3    H164766   0.630   2.893   4.543  0.2500 -0.3370  0.4362
14425TIP3    H264767   0.642   2.990   4.658  0.1447  0.0866  0.0918
14426TIP3   OH264768   5.100   0.407  15.966 -0.1956 -0.6558 -0.5970
14426TIP3    H164769   5.178   0.458  15.948 -0.9684  1.1680  0.9948
14426TIP3    H264770   5.069   0.378  15.880 -0.4400  2.6647 -1.6981
14427TIP3   OH264771   0.322   6.806  11.735 -0.2416  0.2155  0.0351
14427TIP3    H164772   0.285   6.870  11.796 -1.1386  0.4071 -0.7017
14427TIP3    H264773   0.388   6.759  11.787 -0.1508  1.1791  0.8119
14428TIP3   OH264774   2.062   6.384   3.070 -0.1803 -0.8279 -0.3174
14428TIP3    H164775   2.012   6.355   2.994 -0.1066 -0.1848 -0.6114
14428TIP3    H264776   2.078   6.477   3.055 -1.6776 -0.2605  1.2888
14429TIP3   OH264777   4.327   0.642  16.105 -0.3090  0.0409 -0.3519
14429TIP3    H164778   4.248   0.612  16.150  0.6038  0.3712  1.5297
14429TIP3    H264779   4.399   0.610  16.159  0.8685 -0.8045 -2.4044
14430TIP3   OH264780   2.963   1.755  12.802 -0.1004  0.7105  0.7881
14430TIP3    H164781   2.959   1.662  12.779 -0.1493  1.5294 -2.7965
14430TIP3    H264782   3.020   1.758  12.879  1.4659 -2.1128 -0.1795
14431TIP3   OH264783   6.296   0.530  14.253  0.1323  0.1652  0.3490
14431TIP3    H164784   6.202   0.542  14.241 -0.1438  0.3695  2.4751
14431TIP3    H264785   6.323   0.606  14.305  1.1388 -0.7842  1.2338
14432TIP3   OH264786   1.180   1.562  13.652  0.1223 -0.4084 -0.1515
14432TIP3    H164787   1.217   1.474  13.649  2.7882  0.6357  0.8278
14432TIP3    H264788   1.139   1.567  13.739 -0.8289 -0.9531 -0.5543
14433TIP3   OH264789   1.525   3.624  14.030 -0.1538  0.8025 -0.2390
14433TIP3    H164790   1.581   3.575  14.090 -1.8649  1.9207  2.3365
14433TIP3    H264791   1.445   3.572  14.025 -0.3716  1.1917 -0.8789
14434TIP3   OH264792   1.908   0.534   4.755  0.4391  0.6896  0.4868
14434TIP3    H164793   1.897   0.593   4.680 -1.2499  0.2742  0.3945
14434TIP3    H264794   1.867   0.580   4.828 -1.7680 -0.7861  0.1995
14435TIP3   OH264795   1.773   3.135   4.345  0.3799 -0.1551 -0.0486
14435TIP3    H164796   1.760   3.223   4.309  1.0543 -0.4388 -1.0090
14435TIP3    H264797   1.686   3.096   4.346  0.5323 -0.6284 -2.6920
14436TIP3   OH264798   0.524   5.900   5.200 -0.6225  0.8889  0.1878
14436TIP3    H164799   0.589   5.950   5.151 -0.5047 -0.8129 -1.4320
14436TIP3    H264800   0.552   5.907   5.291  1.3077  0.9312 -0.3925
14437TIP3   OH264801   4.759   2.402   1.876 -0.6456 -0.0484 -0.0515
14437TIP3    H164802   4.730   2.362   1.958  0.3890 -0.1143  0.2989
14437TIP3    H264803   4.747   2.334   1.810  2.0216 -1.3140  0.7090
14438TIP3   OH264804   4.430   1.811  16.127 -0.1722 -0.1022 -0.1613
14438TIP3    H164805   4.501   1.749  16.108  0.4410  0.8677 -1.0789
14438TIP3    H264806   4.457   1.856  16.207 -0.9826 -1.5402  0.9465
14439TIP3   OH264807   2.166   5.636   4.262  0.8481  0.1737  0.0044
14439TIP3    H164808   2.196   5.701   4.327  0.0749 -0.0217  0.5686
14439TIP3    H264809   2.137   5.689   4.187 -0.9325  0.5762  0.9349
14440TIP3   OH264810   4.666   5.517   3.700 -0.2331 -0.3700  0.3294
14440TIP3    H164811   4.710   5.519   3.615  0.0718 -3.1512  0.3644
14440TIP3    H264812   4.704   5.590   3.749  0.9112  0.1371 -1.2971
14441TIP3   OH264813   5.094   4.495   5.280  0.0114  1.0802  0.4483
14441TIP3    H164814   5.097   4.540   5.364  0.5500  0.4213  0.7845
14441TIP3    H264815   5.166   4.432   5.284 -1.5535 -0.7452  0.4882
14442TIP3   OH264816   4.250   0.886  17.098  0.1010  0.0732  0.3392
14442TIP3    H164817   4.250   0.969  17.051  2.2434  0.6229  1.2680
14442TIP3    H264818   4.338   0.850  17.083 -0.2422 -1.2111  1.3339
14443TIP3   OH264819   4.151   6.051   5.741 -0.1479 -0.3396 -0.4581
14443TIP3    H164820   4.176   5.982   5.680 -0.7987 -0.9583 -0.0236
14443TIP3    H264821   4.205   6.036   5.819 -0.1556 -0.2406 -0.4323
14444TIP3   OH264822   2.416   5.804  15.778 -0.5444 -0.2051  0.6289
14444TIP3    H164823   2.409   5.770  15.867  1.0110 -0.8462  0.5304
14444TIP3    H264824   2.506   5.836  15.771 -0.7109  0.0308 -0.6456
14445TIP3   OH264825   3.002   4.089  11.420  0.0521  0.2977  0.1162
14445TIP3    H164826   3.055   4.166  11.438 -0.0174  0.5595 -0.7901
14445TIP3    H264827   2.913   4.122  11.413  0.2852  0.5031 -2.5008
14446TIP3   OH264828   6.669   2.933   0.762  0.2095 -0.0122  0.2676
14446TIP3    H164829   6.637   2.913   0.850 -0.8492 -2.2437 -0.5966
14446TIP3    H264830   6.669   2.849   0.717  1.9173  0.9009 -1.5103
14447TIP3   OH264831   2.539   1.856  12.621 -0.1554  0.5017  0.2942
14447TIP3    H164832   2.496   1.934  12.656  0.2330 -0.0466  2.0630
14447TIP3    H264833   2.574   1.883  12.536 -0.4072  2.1164  0.6928
14448TIP3   OH264834   5.916   6.180  15.048  0.4458 -0.1615  0.0047
14448TIP3    H164835   5.825   6.207  15.054  0.7919  1.2196 -0.8097
14448TIP3    H264836   5.934   6.136  15.132 -0.2553  1.7431  1.1772
14449TIP3   OH264837   2.770   4.817   3.585 -0.0306  0.2129 -0.2407
14449TIP3    H164838   2.781   4.723   3.569  0.8439  0.1910  0.4174
14449TIP3    H264839   2.786   4.857   3.500  2.1952 -0.0675  0.0109
14450TIP3   OH264840   0.445   5.233  16.848 -0.2909 -0.4725 -0.7638
14450TIP3    H164841   0.352   5.249  16.864 -0.1828  0.5258 -1.0850
14450TIP3    H264842   0.485   5.239  16.935 -0.2868  0.8330 -0.8454
14451TIP3   OH264843   3.599   5.309   1.684  0.1095  0.4216 -0.2857
14451TIP3    H164844   3.692   5.291   1.671 -0.1847 -0.6687 -0.9646
14451TIP3    H264845   3.557   5.224   1.670 -1.0132  0.9760 -0.2665
14452TIP3   OH264846   3.804   0.472  16.431  0.2327 -0.0600  0.1173
14452TIP3    H164847   3.726   0.516  16.465  0.8830  0.8540  0.4445
14452TIP3    H264848   3.819   0.512  16.345  0.0267 -0.6324 -0.1895
14453TIP3   OH264849   3.601   2.924  17.051  0.2370  0.4920 -0.5045
14453TIP3    H164850   3.527   2.978  17.079 -0.2637 -0.7983  0.7214
14453TIP3    H264851   3.626   2.960  16.966 -3.7935 -0.9944 -2.4473
14454TIP3   OH264852   6.722   6.804  15.523  0.1937  0.0165  0.6199
14454TIP3    H164853   6.740   6.733  15.461  0.1988  0.1729  0.4419
14454TIP3    H264854   6.631   6.791  15.548 -0.1477  0.6225 -0.2827
14455TIP3   OH264855   0.488   0.665  13.183 -0.3553  0.5185  0.2607
14455TIP3    H164856   0.562   0.611  13.209  0.3231  1.0105 -0.6005
14455TIP3    H264857   0.460   0.629  13.099  0.4519  1.8041 -0.5931
14456TIP3   OH264858   0.542   0.407  12.809 -0.0527 -0.0440  0.3228
14456TIP3    H164859   0.513   0.467  12.741  0.8382 -1.5400 -1.4324
14456TIP3    H264860   0.552   0.461  12.887 -0.4094  1.8352 -0.9088
14457TIP3   OH264861   2.111   5.767  16.410 -0.4841  0.6816  0.0471
14457TIP3    H164862   2.027   5.771  16.457  0.1131  1.3814  1.0998
14457TIP3    H264863   2.107   5.839  16.347  0.4665  2.6702  2.1377
14458TIP3   OH264864   3.683   4.156   1.870  0.4670 -0.5782 -0.4146
14458TIP3    H164865   3.673   4.075   1.820 -1.2291 -0.3153 -0.5409
14458TIP3    H264866   3.597   4.200   1.862  1.3222  1.1723 -0.2707
14459TIP3   OH264867   6.545   0.655   3.484 -0.4037  0.2095 -0.4492
14459TIP3    H164868   6.582   0.577   3.441 -0.3375 -1.0415  1.8038
14459TIP3    H264869   6.457   0.662   3.448 -0.7633 -1.4994  0.0447
14460TIP3   OH264870   5.752   0.141   2.484  0.4877 -0.1035  0.0554
14460TIP3    H164871   5.823   0.085   2.515 -0.6447 -1.9608 -0.6339
14460TIP3    H264872   5.792   0.195   2.416  1.8100  0.6089  1.3634
14461TIP3   OH264873   4.986   6.100  15.204 -0.1184  0.1286 -0.1152
14461TIP3    H164874   4.940   6.175  15.242  1.0536  0.0927  1.3965
14461TIP3    H264875   4.941   6.024  15.240 -0.6821  0.0852 -0.8874
14462TIP3   OH264876   4.323   2.762   5.411 -0.0526  0.2454  0.3722
14462TIP3    H164877   4.328   2.707   5.490 -2.6463  1.6022  1.5680
14462TIP3    H264878   4.363   2.845   5.437 -0.6577  0.6016  0.1793
14463TIP3   OH264879   6.327   4.944   2.056  0.3528  0.5068  0.3064
14463TIP3    H164880   6.396   4.959   2.122  1.7885  0.5093 -1.1521
14463TIP3    H264881   6.271   5.022   2.062  1.6724  1.5009  0.1002
14464TIP3   OH264882   5.354   1.475   2.993 -0.9494 -0.4174  0.0063
14464TIP3    H164883   5.400   1.492   2.910 -0.7151 -0.0846  0.2037
14464TIP3    H264884   5.413   1.416   3.041 -0.3817  0.5937  0.5677
14465TIP3   OH264885   4.413   4.836  16.448 -0.2253 -0.2473  0.5137
14465TIP3    H164886   4.470   4.830  16.525  0.1329  1.2641  0.3887
14465TIP3    H264887   4.352   4.908  16.469  0.9527  1.3311 -1.2841
14466TIP3   OH264888   0.963   2.689  12.339  0.2406 -0.7682 -0.0644
14466TIP3    H164889   1.020   2.705  12.263 -0.2198 -0.0527 -0.2574
14466TIP3    H264890   0.954   2.593  12.341 -1.1582 -0.7145 -1.9719
14467TIP3   OH264891   4.455   0.786  16.364 -0.2916 -0.1817  0.0478
14467TIP3    H164892   4.418   0.742  16.441 -3.2719  1.5595 -0.3126
14467TIP3    H264893   4.470   0.714  16.302 -0.8183 -1.2521  1.1203
14468TIP3   OH264894   1.172   3.788   5.637 -0.6934  0.1991 -0.1239
14468TIP3    H164895   1.256   3.772   5.596 -1.4114  0.4093 -1.6925
14468TIP3    H264896   1.161   3.716   5.699  0.2747 -0.2506 -0.4797
14469TIP3   OH264897   5.040   0.859  12.116  0.3885  0.1755 -0.1551
14469TIP3    H164898   5.028   0.905  12.033  1.2262  0.1007 -0.3180
14469TIP3    H264899   4.951   0.835  12.143  0.1934 -0.5903 -1.4610
14470TIP3   OH264900   1.172   2.129   6.558  0.3124 -0.5062  0.4743
14470TIP3    H164901   1.076   2.123   6.554  0.3271 -0.1619 -0.5913
14470TIP3    H264902   1.200   2.046   6.597 -0.3105 -1.4223 -0.9988
14471TIP3   OH264903   5.476   3.358   4.996 -0.4890 -0.3086  0.4065
14471TIP3    H164904   5.537   3.312   4.939 -0.9684  0.1003 -0.4424
14471TIP3    H264905   5.391   3.348   4.953 -0.9651 -0.5723  1.3988
14472TIP3   OH264906   5.970   5.830   2.320  0.1230 -0.1307 -1.0079
14472TIP3    H164907   5.952   5.800   2.231  0.4403  0.6533 -1.3399
14472TIP3    H264908   6.065   5.820   2.329  0.3095  1.2306 -1.3018
14473TIP3   OH264909   0.261   5.831  11.400  0.5466  0.1344 -0.5486
14473TIP3    H164910   0.216   5.785  11.471  1.0801  0.3199 -0.0917
14473TIP3    H264911   0.193   5.886  11.360 -0.8813 -3.3370 -3.0909
14474TIP3   OH264912   5.489   1.447   0.313 -0.5614  0.1294  0.2268
14474TIP3    H164913   5.526   1.535   0.318 -2.0038  0.6997  1.3313
14474TIP3    H264914   5.551   1.391   0.359  0.1893  0.6275 -0.1753
14475TIP3   OH264915   6.368   0.138   2.212 -0.3266 -0.3989  0.2695
14475TIP3    H164916   6.373   0.133   2.307  1.0244 -1.3560  0.1661
14475TIP3    H264917   6.278   0.163   2.194 -0.6854 -0.5537  1.7902
14476TIP3   OH264918   2.736   6.523   1.843  0.5958  0.0490 -0.1302
14476TIP3    H164919   2.661   6.544   1.899 -0.0239 -1.3439 -0.4123
14476TIP3    H264920   2.709   6.551   1.756  1.1042  1.1599  0.0652
14477TIP3   OH264921   4.698   3.655   2.389 -0.1274  0.2894  0.0346
14477TIP3    H164922   4.706   3.582   2.328 -2.1303  0.1973 -0.1321
14477TIP3    H264923   4.751   3.725   2.351  2.7421 -1.4028  0.7519
14478TIP3   OH264924   4.336   1.021  16.521  0.0875  0.2182 -0.0621
14478TIP3    H164925   4.334   0.989  16.431  0.7243 -0.1844  0.0604
14478TIP3    H264926   4.343   1.116  16.513 -0.3384  0.2160 -0.4379
14479TIP3   OH264927   0.230   3.048   0.489  0.8308 -0.0231  0.6715
14479TIP3    H164928   0.325   3.053   0.491  0.8560 -0.0782 -0.2676
14479TIP3    H264929   0.209   3.010   0.404 -0.1592  3.3986 -0.7337
14480TIP3   OH264930   1.818   5.726  11.627  0.1319 -0.4708 -0.3344
14480TIP3    H164931   1.731   5.739  11.590 -0.0197  1.1796  0.5466
14480TIP3    H264932   1.877   5.769  11.564  0.0882  0.3588  0.1828
14481TIP3   OH264933   1.057   0.265  16.218 -0.0133 -0.9201 -0.0585
14481TIP3    H164934   1.084   0.193  16.275 -0.2683 -0.2708  0.8901
14481TIP3    H264935   0.983   0.230  16.169  0.0207 -1.3874  0.2219
14482TIP3   OH264936   3.263   4.278   4.072 -0.8301 -0.5575  0.4509
14482TIP3    H164937   3.256   4.182   4.066 -1.3547 -0.6504  2.2413
14482TIP3    H264938   3.293   4.294   4.162  2.1147  0.8388 -0.7088
14483TIP3   OH264939   6.317   6.232  16.698 -0.0582  0.0936 -0.0514
14483TIP3    H164940   6.283   6.162  16.642 -0.8531 -0.5392  1.1888
14483TIP3    H264941   6.411   6.214  16.704 -0.4571 -1.7161  1.3583
14484TIP3   OH264942   3.625   6.776  15.290 -0.8026 -0.1483  0.7768
14484TIP3    H164943   3.707   6.733  15.314 -0.0097  0.3462 -0.9304
14484TIP3    H264944   3.588   6.808  15.372  0.5436 -0.6842  1.5933
14485TIP3   OH264945   3.915   6.148  14.716 -0.2839 -0.6811  0.1652
14485TIP3    H164946   4.007   6.164  14.692  0.1747 -0.8731  1.7316
14485TIP3    H264947   3.866   6.165  14.635  1.3174 -2.6460 -1.2911
14486TIP3   OH264948   2.439   0.466   5.969  0.6700  0.2079  0.6036
14486TIP3    H164949   2.398   0.523   6.033  0.8929 -0.6126  1.4812
14486TIP3    H264950   2.530   0.496   5.965  1.1827 -1.0656  2.2124
14487TIP3   OH264951   4.587   2.276   2.087 -0.3538 -0.1683 -0.1439
14487TIP3    H164952   4.551   2.272   1.998 -0.7284  0.8770 -0.0504
14487TIP3    H264953   4.616   2.187   2.105 -1.1676 -0.6115 -0.9509
14488TIP3   OH264954   5.641   5.785  16.603  0.2382 -0.3242 -0.4098
14488TIP3    H164955   5.673   5.695  16.597  2.2619  0.4077 -1.2808
14488TIP3    H264956   5.683   5.820  16.681 -0.2608 -0.0341 -0.2713
14489TIP3   OH264957   0.309   1.140  12.778  0.1897  0.4473 -0.3180
14489TIP3    H164958   0.259   1.087  12.716  1.3058 -0.4494 -0.4852
14489TIP3    H264959   0.290   1.230  12.754 -3.8939  0.2350  1.6620
14490TIP3   OH264960   3.863   4.813  11.779  0.1469  0.2084  0.1759
14490TIP3    H164961   3.805   4.804  11.704  0.8514 -1.2892 -0.2174
14490TIP3    H264962   3.819   4.765  11.850  0.0840  0.5288  0.3521
14491TIP3   OH264963   1.336   1.111   5.751  0.1806  0.1140  0.2052
14491TIP3    H164964   1.344   1.200   5.786 -1.7507 -0.4953  2.2610
14491TIP3    H264965   1.424   1.075   5.757  1.0281  1.8947 -0.7682
14492TIP3   OH264966   1.948   5.928   2.278  0.3775  0.4985 -0.2322
14492TIP3    H164967   2.039   5.919   2.307  0.2401  0.4859  0.2086
14492TIP3    H264968   1.948   5.899   2.187  0.7275  0.0543 -0.0932
14493TIP3   OH264969   4.523   5.611   2.351 -0.3422  0.4573 -0.7292
14493TIP3    H164970   4.448   5.620   2.293  0.7204  1.1504 -2.0310
14493TIP3    H264971   4.599   5.614   2.293  0.8484  2.9877  0.8437
14494TIP3   OH264972   6.664   4.722  13.469  0.3050 -0.3741 -0.0736
14494TIP3    H164973   6.726   4.754  13.534  0.4689 -1.5102  0.3384
14494TIP3    H264974   6.716   4.667  13.410  0.0243  0.0870 -0.7602
14495TIP3   OH264975   2.067   2.160   4.003 -0.1119 -0.9350 -0.1132
14495TIP3    H164976   1.977   2.186   3.982 -0.3711 -1.9020 -0.2400
14495TIP3    H264977   2.074   2.070   3.969  0.4009 -1.4504  1.3345
14496TIP3   OH264978   6.101   6.752   1.380 -0.3817  0.5817 -0.4132
14496TIP3    H164979   6.188   6.765   1.342  1.4586 -0.6621  3.1071
14496TIP3    H264980   6.064   6.679   1.330  0.4291  1.3660 -2.2055
14497TIP3   OH264981   6.583   6.445  15.963 -0.2642  0.3238 -0.3521
14497TIP3    H164982   6.642   6.444  16.039  0.0375 -0.2946 -0.5880
14497TIP3    H264983   6.587   6.356  15.929 -0.1829  0.6647 -1.2539
14498TIP3   OH264984   0.023   1.422  12.155 -0.2595  0.3110 -0.0697
14498TIP3    H164985   0.066   1.472  12.225  1.8200 -1.2631 -0.1857
14498TIP3    H264986   0.092   1.365  12.120 -2.0737 -1.1710 -1.3135
14499TIP3   OH264987   1.489   4.906  17.058  0.0601 -0.0288 -0.0779
14499TIP3    H164988   1.575   4.881  17.025  0.4912  0.1165  0.9153
14499TIP3    H264989   1.503   4.993  17.096  0.5776 -1.8529  4.2345
14500TIP3   OH264990   1.787   1.137  17.088 -0.2159 -0.1770  0.1057
14500TIP3    H164991   1.872   1.098  17.107 -1.1416 -1.9449  0.8182
14500TIP3    H264992   1.766   1.110  16.999  0.1447  0.6215 -0.2264
14501TIP3   OH264993   4.055   3.964  11.774 -0.0706  0.4575  0.0616
14501TIP3    H164994   3.962   3.943  11.770  0.0215  0.3026 -1.8712
14501TIP3    H264995   4.059   4.051  11.813 -1.1550  1.2109 -1.4627
14502TIP3   OH264996   1.151   1.337  16.396 -0.3293  0.0052  0.6634
14502TIP3    H164997   1.124   1.306  16.309  0.7501  2.4944 -0.6182
14502TIP3    H264998   1.219   1.276  16.424  1.3025  0.7758 -1.4966
14503TIP3   OH264999   4.220   5.265  15.205  0.4083 -0.7006  0.3654
14503TIP3    H165000   4.127   5.269  15.224  0.2627 -2.4377  0.0973
14503TIP3    H265001   4.230   5.190  15.146  1.6378  0.9793 -1.6448
14504TIP3   OH265002   4.070   6.782  12.750  0.3792  0.4759  0.3405
14504TIP3    H165003   4.028   6.830  12.679 -1.1343  0.2522  1.0754
14504TIP3    H265004   4.021   6.700  12.755  0.8515  0.2508  1.2726
14505TIP3   OH265005   2.302   2.285  13.548  0.2137 -0.5324 -0.1340
14505TIP3    H165006   2.313   2.367  13.500  0.9322 -1.8581 -2.3462
14505TIP3    H265007   2.391   2.261  13.575  0.4124 -1.9600 -1.9463
14506TIP3   OH265008   3.759   3.447   1.879  0.0002 -0.6001  0.5395
14506TIP3    H165009   3.678   3.399   1.864 -0.0923 -0.2597 -0.0407
14506TIP3    H265010   3.824   3.404   1.824 -0.0885 -0.0500 -0.0035
14507TIP3   OH265011   0.502   5.403  15.544 -0.1640  0.2705 -0.3888
14507TIP3    H165012   0.429   5.426  15.601 -0.0821 -1.9850  0.6877
14507TIP3    H265013   0.464   5.402  15.456 -1.1146  0.4083  0.0130
14508TIP3   OH265014   4.008   6.760  16.917 -0.2129 -0.4523 -0.0523
14508TIP3    H165015   3.938   6.700  16.892 -0.0044 -0.6739 -0.0994
14508TIP3    H265016   4.028   6.808  16.837 -1.3419  0.6647  0.3189
14509TIP3   OH265017   1.089   5.880  16.154 -0.2987 -0.1477  0.1710
14509TIP3    H165018   1.110   5.969  16.185 -0.6135  0.5181 -1.4630
14509TIP3    H265019   0.995   5.872  16.167 -0.0639 -0.7499  1.5592
14510TIP3   OH265020   5.491   2.179   3.938 -0.4442  0.6333 -0.1946
14510TIP3    H165021   5.468   2.095   3.898  0.2514  0.1363  0.4330
14510TIP3    H265022   5.407   2.217   3.964 -0.7809  0.2326 -0.6888
14511TIP3   OH265023   2.566   0.711  13.132 -0.1769  0.6531 -0.0519
14511TIP3    H165024   2.555   0.629  13.084  0.0705  0.2910  0.5080
14511TIP3    H265025   2.487   0.718  13.185  0.2965  0.2158  0.7299
14512TIP3   OH265026   3.917   1.404   1.614 -0.2259 -0.3934  0.0473
14512TIP3    H165027   3.965   1.345   1.672 -1.1180  0.3784  1.6220
14512TIP3    H265028   3.982   1.436   1.552  0.9206 -0.6657  1.0946
14513TIP3   OH265029   3.235   4.768   4.024  0.4291 -0.8336  0.8374
14513TIP3    H165030   3.309   4.709   4.039  0.3353 -1.0965  0.2948
14513TIP3    H265031   3.276   4.850   3.997  0.5224 -1.0449  0.3216
14514TIP3   OH265032   1.942   1.166  11.084 -0.3005  0.5354 -0.6598
14514TIP3    H165033   1.934   1.157  11.179  1.7759 -0.2165 -0.5231
14514TIP3    H265034   1.880   1.102  11.049 -0.2531  0.0097  0.2006
14515TIP3   OH265035   4.012   3.752   0.726 -0.2698  0.3127 -0.0926
14515TIP3    H165036   3.991   3.798   0.807  0.2354  1.9264 -0.8534
14515TIP3    H265037   4.077   3.808   0.683 -1.4567  0.1177 -2.2027
14516TIP3   OH265038   6.298   3.504  13.773 -0.0674  0.4635  0.0068
14516TIP3    H165039   6.312   3.589  13.732 -0.9300  1.1266  1.0711
14516TIP3    H265040   6.361   3.501  13.845 -0.9795  0.7923  0.8344
14517TIP3   OH265041   5.889   2.902  15.004 -0.5836 -0.0215  0.1191
14517TIP3    H165042   5.822   2.834  15.016  0.2089 -1.1260 -1.6275
14517TIP3    H265043   5.845   2.970  14.953 -0.3657 -0.7637 -1.0626
14518TIP3   OH265044   1.842   5.362   2.105  0.3548  0.9377 -0.2793
14518TIP3    H165045   1.766   5.388   2.052  1.0039  2.8218 -0.3121
14518TIP3    H265046   1.805   5.302   2.171 -0.4116 -1.7518 -3.0013
14519TIP3   OH265047   1.442   6.419   5.096 -0.2110  0.0846  0.1908
14519TIP3    H165048   1.480   6.344   5.050 -0.4386  1.4729 -2.3540
14519TIP3    H265049   1.516   6.460   5.140  0.4386  0.0639 -0.8584
14520TIP3   OH265050   2.577   6.590   3.424  0.2051 -0.1614 -0.8747
14520TIP3    H165051   2.640   6.542   3.478  0.3792  0.2426 -0.7153
14520TIP3    H265052   2.606   6.576   3.334  0.8688  0.5052 -0.7696
14521TIP3   OH265053   5.106   4.759  11.578  0.0259  0.0973 -0.5101
14521TIP3    H165054   5.097   4.734  11.486  0.0940 -0.0397 -0.4791
14521TIP3    H265055   5.153   4.843  11.575  0.5992 -0.2271 -0.5677
14522TIP3   OH265056   1.427   6.675   5.824 -0.2566  0.4311  0.1100
14522TIP3    H165057   1.472   6.605   5.777 -0.6848  0.0684  0.2332
14522TIP3    H265058   1.392   6.633   5.902  0.2105  0.9699  0.6137
14523TIP3   OH265059   4.624   4.253   2.683  0.4442  0.2308  0.1194
14523TIP3    H165060   4.546   4.305   2.704  0.3935 -0.6175  2.1523
14523TIP3    H265061   4.590   4.169   2.652  0.5443  0.6186 -1.0570
14524TIP3   OH265062   5.801   2.036  16.876  0.2224 -0.1893 -0.2482
14524TIP3    H165063   5.762   2.120  16.852 -1.0131 -0.1885  1.6657
14524TIP3    H265064   5.878   2.059  16.928  0.3596 -0.2316 -0.4351
14525TIP3   OH265065   0.137   0.648  15.398  0.1241  0.3399  0.0031
14525TIP3    H165066   0.078   0.579  15.429 -0.9002  0.5474 -1.4086
14525TIP3    H265067   0.168   0.691  15.478 -0.6178 -0.6150  0.8185
14526TIP3   OH265068   3.997   6.547   0.875 -0.2553  0.7301  0.3572
14526TIP3    H165069   3.998   6.488   0.800 -1.4815  1.2753 -0.1015
14526TIP3    H265070   3.922   6.519   0.928 -0.7489  1.7501  0.2224
14527TIP3   OH265071   3.446   2.354   0.635  0.2804 -0.5010  0.3646
14527TIP3    H165072   3.399   2.292   0.580 -0.8750  0.5438  0.1373
14527TIP3    H265073   3.481   2.419   0.573  0.4409 -0.2574  0.7084
14528TIP3   OH265074   0.265   2.268   2.366  0.5592 -0.1656 -0.4458
14528TIP3    H165075   0.269   2.214   2.445  1.5411  1.1969  0.4623
14528TIP3    H265076   0.354   2.300   2.354 -0.0612  1.5040 -0.7688
14529TIP3   OH265077   3.671   1.228   5.157 -0.2474  0.1139  0.0864
14529TIP3    H165078   3.690   1.310   5.203  0.3537 -0.1391  0.2993
14529TIP3    H265079   3.579   1.235   5.131 -0.0598  1.0520 -0.3181
14530TIP3   OH265080   1.248   0.838   1.706  0.9557 -0.2330  0.1712
14530TIP3    H165081   1.170   0.809   1.658  0.0694 -0.3087  1.6200
14530TIP3    H265082   1.234   0.805   1.795  2.0825  0.7871  0.7286
14531TIP3   OH265083   2.528   6.492   5.102  0.0379  0.3199 -0.5391
14531TIP3    H165084   2.518   6.554   5.173  1.8995 -0.9093  0.8420
14531TIP3    H265085   2.458   6.514   5.040 -1.3557  1.6468  1.4677
14532TIP3   OH265086   0.356   5.368   4.234 -0.2327 -0.1289  0.1527
14532TIP3    H165087   0.276   5.420   4.240 -0.1678 -0.1121  0.8582
14532TIP3    H265088   0.406   5.391   4.312  0.1548 -0.6572  0.0649
14533TIP3   OH265089   4.470   4.844   3.856  0.9017  0.1396  0.0153
14533TIP3    H165090   4.403   4.816   3.918  0.7391  1.0099  0.2333
14533TIP3    H265091   4.462   4.783   3.782 -1.6836  1.6433 -1.0222
14534TIP3   OH265092   2.411   0.746   4.036 -0.1410  0.0377 -0.1146
14534TIP3    H165093   2.413   0.669   4.093  0.2340  0.3420  0.2838
14534TIP3    H265094   2.457   0.717   3.957  0.5824  0.0477  0.2914
14535TIP3   OH265095   4.955   5.717  15.873 -0.4580  0.0867 -0.1482
14535TIP3    H165096   4.891   5.788  15.877  0.9468  1.4645 -1.4563
14535TIP3    H265097   5.033   5.753  15.916 -0.0055 -0.9828 -0.0498
14536TIP3   OH265098   4.399   2.205  13.188  0.2221 -0.1563  0.0903
14536TIP3    H165099   4.325   2.264  13.177  0.8318  0.2879 -1.8284
14536TIP3    H265100   4.463   2.256  13.238 -0.0533  0.0825  0.2006
14537TIP3   OH265101   4.034   4.169  14.382  0.4347 -0.6415  0.7558
14537TIP3    H165102   3.956   4.163  14.327  1.9551  0.8556 -1.6892
14537TIP3    H265103   4.013   4.235  14.447 -0.6180 -0.8136  0.5942
14538TIP3   OH265104   1.974   3.957  16.146 -0.1259  0.1469  0.4357
14538TIP3    H165105   1.888   3.948  16.105  0.4656  1.1482 -1.0507
14538TIP3    H265106   1.977   3.886  16.211 -1.8624 -0.2100  0.1450
14539TIP3   OH265107   6.228   2.787  13.074  0.0936  0.3598  0.6769
14539TIP3    H165108   6.216   2.698  13.041  0.3447  0.3390  0.6419
14539TIP3    H265109   6.220   2.779  13.169  3.5950 -0.2772  0.9611
14540TIP3   OH265110   1.229   1.298   6.605 -0.1689 -0.5799 -0.1159
14540TIP3    H165111   1.163   1.236   6.634 -0.1631  0.0499  1.3051
14540TIP3    H265112   1.302   1.286   6.666 -0.2025  0.8534  0.2443
14541TIP3   OH265113   0.496   3.815  15.713  0.1475 -0.7362 -0.0837
14541TIP3    H165114   0.477   3.819  15.620  1.9820 -0.3775 -0.4558
14541TIP3    H265115   0.487   3.905  15.744  1.6520 -0.4785 -0.3587
14542TIP3   OH265116   5.924   4.062  12.739  0.5700 -0.1007  0.4142
14542TIP3    H165117   5.967   4.003  12.678 -1.0900 -1.2774  0.3712
14542TIP3    H265118   5.886   4.005  12.806 -0.2992  0.9725  0.8618
14543TIP3   OH265119   1.803   6.072  15.357  0.1909 -0.7566 -0.2787
14543TIP3    H165120   1.729   6.133  15.351 -0.1075 -1.2315 -1.5954
14543TIP3    H265121   1.815   6.059  15.451 -0.0024  1.0129  0.0211
14544TIP3   OH265122   3.977   5.068  13.819  0.4333 -0.7933  0.3653
14544TIP3    H165123   4.034   5.145  13.824 -0.0538 -0.2706 -1.6048
14544TIP3    H265124   4.020   5.010  13.756 -0.1377 -1.3170  0.4521
14545TIP3   OH265125   3.573   6.096  11.413 -0.1245 -0.7876  0.9639
14545TIP3    H165126   3.573   6.022  11.352 -0.5736 -0.3481  0.4379
14545TIP3    H265127   3.554   6.172  11.359  2.5028  0.0402  1.1272
14546TIP3   OH265128   1.911   5.915   1.337  0.4786 -0.2828  0.5441
14546TIP3    H165129   1.876   5.853   1.401  0.6577  0.1665  1.0866
14546TIP3    H265130   1.851   5.909   1.263  0.5340 -1.1465  0.5625
14547TIP3   OH265131   1.760   0.085  16.626 -0.2400  0.0089  0.0930
14547TIP3    H165132   1.822   0.093  16.699  1.5145  0.9073 -1.4693
14547TIP3    H265133   1.713   0.169  16.626  1.2391  0.8452 -1.1231
14548TIP3   OH265134   3.758   0.855  17.289 -0.4945 -0.0740  0.2122
14548TIP3    H165135   3.682   0.847  17.347 -0.8011  0.5614 -0.0943
14548TIP3    H265136   3.831   0.818  17.340 -0.8940 -0.1529  0.7345
14549TIP3   OH265137   6.479   0.559   3.890 -0.1472 -0.3103  0.5558
14549TIP3    H165138   6.439   0.549   3.804  0.7242 -3.0044  0.4132
14549TIP3    H265139   6.562   0.603   3.873 -0.0197 -0.7538  0.0013
14550TIP3   OH265140   5.057   1.982  14.590 -0.0708 -0.0143 -0.5100
14550TIP3    H165141   5.084   2.000  14.500  1.5793  0.9567  0.1525
14550TIP3    H265142   4.962   1.975  14.585 -0.0748  0.8037 -2.2022
14551TIP3   OH265143   4.959   5.809  11.858  0.1843 -0.0865  0.0837
14551TIP3    H165144   4.989   5.718  11.865  0.2881  0.1100  2.8672
14551TIP3    H265145   4.871   5.808  11.898 -0.5743  0.7021 -1.5217
14552TIP3   OH265146   1.294   5.919   4.561 -0.3073 -0.3103  0.5363
14552TIP3    H165147   1.222   5.961   4.607 -0.5913 -0.6870  0.4376
14552TIP3    H265148   1.252   5.857   4.501  0.0739 -0.1348  0.0768
14553TIP3   OH265149   2.860   6.650  16.005 -0.4651  0.0366 -0.1661
14553TIP3    H165150   2.799   6.697  15.949  0.0066  0.3759 -0.3959
14553TIP3    H265151   2.834   6.672  16.095 -0.5887  0.2927 -0.2686
14554TIP3   OH265152   5.757   1.661   4.875 -0.9797 -0.0760  0.3994
14554TIP3    H165153   5.808   1.588   4.838 -0.6150  0.1937  0.3703
14554TIP3    H265154   5.774   1.734   4.816 -0.2152  0.4192  1.2216
14555TIP3   OH265155   4.536   5.247   1.227  0.3628  0.3506  0.1250
14555TIP3    H165156   4.533   5.253   1.323 -1.4072 -1.4452  0.2177
14555TIP3    H265157   4.481   5.319   1.197  1.4940  1.3546  0.4181
14556TIP3   OH265158   0.510   3.994  16.556  0.2549 -0.0379  0.0906
14556TIP3    H165159   0.485   3.904  16.576 -0.4776  0.3797  1.1091
14556TIP3    H265160   0.429   4.036  16.526  0.7751  0.0575 -1.2046
14557TIP3   OH265161   6.792   6.511  14.547 -0.1318 -0.6606 -0.4293
14557TIP3    H165162   6.743   6.458  14.483  1.3114 -2.0657 -0.3957
14557TIP3    H265163   6.734   6.515  14.623 -1.9917  1.2811 -1.9057
14558TIP3   OH265164   6.428   4.373   2.029 -0.4783  0.4352  0.3418
14558TIP3    H165165   6.493   4.305   2.013 -0.4764  0.1782  1.4454
14558TIP3    H265166   6.467   4.428   2.097 -0.8380  1.0611  0.0523
14559TIP3   OH265167   0.858   5.045   2.806  0.2808  0.7375 -0.6609
14559TIP3    H165168   0.859   5.121   2.747 -2.1559 -0.0393 -1.7841
14559TIP3    H265169   0.946   5.041   2.842  0.5970  3.7673 -1.0187
14560TIP3   OH265170   5.489   6.749   2.010  0.6979  0.2459 -0.4807
14560TIP3    H165171   5.404   6.774   2.047  2.3774  2.0368  2.2769
14560TIP3    H265172   5.481   6.655   1.992 -1.0762 -0.1026  1.9468
14561TIP3   OH265173   1.636   3.147   5.757 -0.8546 -0.7384 -0.0386
14561TIP3    H165174   1.582   3.068   5.756 -0.2777 -1.1352  0.0692
14561TIP3    H265175   1.715   3.122   5.806  0.2873 -0.7118 -1.8328
14562TIP3   OH265176   0.164   3.263  12.737 -0.0109 -0.2715 -0.1819
14562TIP3    H165177   0.227   3.270  12.665  1.2294  3.2382  1.1667
14562TIP3    H265178   0.217   3.236  12.812 -0.1755  2.2017  0.8468
14563TIP3   OH265179   5.297   0.141   0.087  0.8145  0.7560 -0.0175
14563TIP3    H165180   5.240   0.072   0.122 -0.2702  2.1349  0.9595
14563TIP3    H265181   5.330   0.104   0.005 -2.4982  0.3831 -1.2941
14564TIP3   OH265182   4.670   5.717   4.149 -0.1328 -0.5651 -0.5555
14564TIP3    H165183   4.709   5.709   4.236 -1.2059  1.0378  0.1016
14564TIP3    H265184   4.595   5.657   4.151  0.2138 -0.9948 -0.5791
14565TIP3   OH265185   1.198   1.621   6.025 -0.2996  0.0213  0.3291
14565TIP3    H165186   1.125   1.600   5.966  1.1453 -0.7722 -1.2068
14565TIP3    H265187   1.156   1.636   6.110 -2.2529 -0.4324 -0.5233
14566TIP3   OH265188   6.161   3.533  14.672  0.1507  0.4524  0.3896
14566TIP3    H165189   6.156   3.518  14.766 -3.4406  0.5538  0.2692
14566TIP3    H265190   6.141   3.448  14.632 -1.2494  1.0763 -0.2711
14567TIP3   OH265191   1.514   6.133  14.987 -0.9827 -0.3666  0.1661
14567TIP3    H165192   1.451   6.061  14.977 -2.8601  0.8817  2.4164
14567TIP3    H265193   1.523   6.143  15.082  1.5207  0.4540 -0.1288
14568TIP3   OH265194   4.702   0.272  15.857  0.3526 -0.1296  0.1910
14568TIP3    H165195   4.713   0.315  15.772 -0.9608 -0.2606 -0.0571
14568TIP3    H265196   4.608   0.278  15.874  0.4396 -1.1870  1.0590
14569TIP3   OH265197   6.698   1.556   0.574 -0.5618  0.5928 -0.0092
14569TIP3    H165198   6.604   1.537   0.575 -0.8991  2.2132  1.8677
14569TIP3    H265199   6.727   1.529   0.487 -2.6322 -0.5446 -0.3710
14570TIP3   OH265200   1.317   2.026  15.665 -0.0401  0.8240  0.4274
14570TIP3    H165201   1.397   2.067  15.699 -0.9130  0.8239  2.6124
14570TIP3    H265202   1.323   1.935  15.693  0.4826  0.1252 -1.8419
14571TIP3   OH265203   4.594   3.938   5.123 -0.2328  0.1959  0.1116
14571TIP3    H165204   4.572   4.005   5.058  1.1092  1.0618  0.5228
14571TIP3    H265205   4.516   3.930   5.176 -1.7728 -1.3509 -2.2934
14572TIP3   OH265206   5.626   4.926   6.216 -0.0271  0.0247 -0.3754
14572TIP3    H165207   5.690   4.854   6.213  0.1077  0.1712 -1.1052
14572TIP3    H265208   5.586   4.918   6.303  0.2350 -0.7198 -0.3136
14573TIP3   OH265209   5.910   6.193  14.530  0.5340 -0.2734  0.4968
14573TIP3    H165210   5.948   6.211  14.616  1.7515 -0.7663  0.0631
14573TIP3    H265211   5.920   6.275  14.482 -0.2221  0.0291  0.8418
14574TIP3   OH265212   5.783   3.278  14.306 -0.8074 -0.4157  1.2707
14574TIP3    H165213   5.771   3.337  14.381  0.6904 -0.1881  1.3527
14574TIP3    H265214   5.762   3.191  14.340  0.2902 -0.3755  2.1035
14575TIP3   OH265215   0.941   0.735  15.108 -0.3503  0.1746 -0.3654
14575TIP3    H165216   0.953   0.712  15.016 -0.6787 -0.4010 -0.2663
14575TIP3    H265217   0.922   0.829  15.107  1.0453  0.4690 -0.7658
14576TIP3   OH265218   5.547   3.303  14.923  0.0108  0.0939 -0.4098
14576TIP3    H165219   5.633   3.344  14.936  0.7227 -1.0365 -1.4658
14576TIP3    H265220   5.527   3.318  14.831 -0.2380 -0.9426 -0.5263
14577TIP3   OH265221   2.040   0.275  13.313 -0.2916 -0.4867 -0.0133
14577TIP3    H165222   1.959   0.237  13.280 -0.7542  1.4027 -1.1458
14577TIP3    H265223   2.016   0.365  13.335  1.5656  0.1943 -0.7026
14578TIP3   OH265224   3.198   1.527   5.054 -0.2859 -1.1668  0.0121
14578TIP3    H165225   3.222   1.559   4.967 -0.2058 -1.4311 -0.0668
14578TIP3    H265226   3.185   1.605   5.106  0.9214 -1.0004  0.0966
14579TIP3   OH265227   2.627   6.308  13.014  0.4929  0.0815 -0.5455
14579TIP3    H165228   2.702   6.342  13.063  0.7701 -0.7030 -0.4028
14579TIP3    H265229   2.550   6.336  13.064  0.8009 -1.2955  0.7363
14580TIP3   OH265230   2.669   2.626   4.424  0.1986 -0.3647 -0.2588
14580TIP3    H165231   2.758   2.599   4.447  0.1899 -0.2765 -0.1230
14580TIP3    H265232   2.677   2.664   4.337  0.5376  0.9434  0.3221
14581TIP3   OH265233   2.699   3.222   4.709 -0.8902  0.2029  0.2198
14581TIP3    H165234   2.668   3.181   4.628 -1.0145 -0.7957  0.7665
14581TIP3    H265235   2.707   3.150   4.771 -0.7175  0.9547  1.0825
14582TIP3   OH265236   0.768   5.355  11.739  0.3899  0.4940  0.2712
14582TIP3    H165237   0.734   5.440  11.712 -0.4723  0.3655  0.8943
14582TIP3    H265238   0.704   5.324  11.804  0.3429 -0.9184 -0.4443
14583TIP3   OH265239   5.812   1.318  16.461 -0.3536  0.4198 -0.3450
14583TIP3    H165240   5.740   1.354  16.511 -0.6781  0.6577 -0.9748
14583TIP3    H265241   5.773   1.293  16.377  0.6654  2.4102 -1.4495
14584TIP3   OH265242   3.630   1.838   1.175 -0.3170  0.5513 -0.5764
14584TIP3    H165243   3.643   1.855   1.269 -0.3935 -1.1830 -0.2480
14584TIP3    H265244   3.538   1.857   1.160 -0.5741 -0.2864 -0.0562
14585TIP3   OH265245   5.042   2.128   1.485  0.2579 -0.3300  0.3035
14585TIP3    H165246   5.013   2.069   1.415  0.5699  0.7274 -0.7468
14585TIP3    H265247   5.000   2.212   1.464  0.2331 -0.0457  1.4807
14586TIP3   OH265248   3.671   2.707  17.231  0.0928 -0.4149 -0.3927
14586TIP3    H165249   3.586   2.691  17.272  1.0267 -3.0522  0.6738
14586TIP3    H265250   3.653   2.770  17.161 -2.8068 -1.2716 -0.4855
14587TIP3   OH265251   2.920   4.934  15.345 -0.5218 -0.2916  0.3245
14587TIP3    H165252   2.883   5.016  15.377  1.5990  0.6652  0.3923
14587TIP3    H265253   2.925   4.946  15.250  0.2312 -0.1563  0.3796
14588TIP3   OH265254   5.484   1.634   2.075  0.1508 -0.2031 -0.1425
14588TIP3    H165255   5.395   1.599   2.067  0.5610 -1.3045  0.0889
14588TIP3    H265256   5.499   1.679   1.992 -0.3773 -0.5708 -0.4391
14589TIP3   OH265257   6.533   4.581   1.034  0.3305 -0.2856 -0.0687
14589TIP3    H165258   6.510   4.655   1.090 -0.1445  0.2072 -0.9103
14589TIP3    H265259   6.627   4.591   1.018  0.3926 -0.2193  0.3413
14590TIP3   OH265260   3.586   4.770  15.920 -0.4933 -0.4018 -0.0409
14590TIP3    H165261   3.604   4.861  15.943  0.1074 -0.3782 -0.5981
14590TIP3    H265262   3.515   4.744  15.979  0.3463 -0.0336  1.1469
14591TIP3   OH265263   3.799   1.695  16.017  0.3659 -0.0960  0.2409
14591TIP3    H165264   3.754   1.649  16.087 -1.0078  0.1821 -0.4499
14591TIP3    H265265   3.824   1.627  15.955  1.0798 -0.2712  0.7139
14592TIP3   OH265266   1.845   4.604   5.704  0.3375 -0.2866  0.0091
14592TIP3    H165267   1.925   4.656   5.703  1.8347 -2.5535 -1.3411
14592TIP3    H265268   1.873   4.517   5.733 -1.4572 -1.3480 -1.3658
14593TIP3   OH265269   0.557   0.991  15.622  0.6705 -0.0574  0.0876
14593TIP3    H165270   0.556   0.925  15.553  0.5601 -0.4814  0.4916
14593TIP3    H265271   0.641   1.036  15.612  1.4703 -1.3572  0.8323
14594TIP3   OH265272   0.579   5.011   2.936  0.2521 -0.1192  0.6005
14594TIP3    H165273   0.554   5.094   2.896  2.0036  0.8939  1.5365
14594TIP3    H265274   0.675   5.010   2.931  0.2986 -1.5988  1.5492
14595TIP3   OH265275   4.716   2.734  14.108 -0.4246  0.0811  0.2639
14595TIP3    H165276   4.786   2.799  14.117 -2.5128  2.4410  0.0659
14595TIP3    H265277   4.706   2.697  14.196  0.0281  0.8347  0.6355
14596TIP3   OH265278   4.582   3.864  11.624  0.2998  0.0859  0.1455
14596TIP3    H165279   4.623   3.860  11.710  0.7661 -0.0812 -0.0838
14596TIP3    H265280   4.633   3.804  11.570 -0.6556 -0.6461  0.0292
14597TIP3   OH265281   4.305   1.995  14.383 -0.4457 -0.1711 -0.4207
14597TIP3    H165282   4.241   2.064  14.368 -1.1420 -0.8610 -0.6020
14597TIP3    H265283   4.255   1.914  14.381  0.0074 -0.5438  1.9991
14598TIP3   OH265284   0.393   1.126  11.870  0.4367  0.0160 -0.4838
14598TIP3    H165285   0.349   1.140  11.786  0.0642 -0.0005 -0.2927
14598TIP3    H265286   0.484   1.107  11.846  1.1467  3.4487 -0.7312
14599TIP3   OH265287   5.355   2.273  14.143 -0.0650  0.1092 -0.2223
14599TIP3    H165288   5.305   2.353  14.127 -0.3188  0.0994  0.5308
14599TIP3    H265289   5.294   2.215  14.189  1.5107  1.2185  3.4632
14600TIP3   OH265290   2.269   3.276  13.699 -0.0185  0.1799 -0.3529
14600TIP3    H165291   2.222   3.307  13.777  1.1507 -0.1693  0.5120
14600TIP3    H265292   2.338   3.341  13.685 -1.7108  1.5569 -2.5848
14601TIP3   OH265293   2.140   5.818   1.866  0.2493 -0.0713  0.1689
14601TIP3    H165294   2.168   5.909   1.859  0.3818 -0.1335 -0.1120
14601TIP3    H265295   2.210   5.768   1.824 -0.3398 -0.2178 -0.6461
14602TIP3   OH265296   5.271   6.468   4.195 -0.2159  0.7408  0.5517
14602TIP3    H165297   5.323   6.387   4.192 -0.8158  0.3819 -0.5272
14602TIP3    H265298   5.244   6.476   4.287 -0.3352 -0.4157  0.6259
14603TIP3   OH265299   5.576   3.860  14.892  0.5516 -0.6363  0.3753
14603TIP3    H165300   5.496   3.840  14.940  0.0606 -0.2936 -0.3045
14603TIP3    H265301   5.640   3.797  14.926  0.2696 -0.2710  1.6171
14604TIP3   OH265302   4.024   1.328   0.120 -0.1747  0.0291  0.0774
14604TIP3    H165303   4.006   1.408   0.170  1.6830  0.4933  0.0558
14604TIP3    H265304   4.100   1.289   0.164  0.7312 -0.2035 -1.6429
14605TIP3   OH265305   6.593   2.488  11.695  0.3990  0.5113 -0.1968
14605TIP3    H165306   6.517   2.509  11.640 -1.6137 -1.2269  1.8343
14605TIP3    H265307   6.620   2.401  11.666  1.0038  0.6950 -0.1999
14606TIP3   OH265308   4.105   2.809   6.744  0.6342  0.2891  0.2144
14606TIP3    H165309   4.085   2.721   6.711 -2.5978  1.2355 -0.4832
14606TIP3    H265310   4.027   2.835   6.792  1.5567  2.7834  0.4114
14607TIP3   OH265311   3.976   3.366  12.280  0.0548 -0.8444  0.0509
14607TIP3    H165312   4.001   3.284  12.237 -0.0883 -0.9539  0.1775
14607TIP3    H265313   3.998   3.434  12.217 -0.1934 -1.0085 -0.2143
14608TIP3   OH265314   4.994   3.994  15.075  0.4185  0.2847  0.4997
14608TIP3    H165315   5.024   3.919  15.127  0.4482 -0.2323 -0.2625
14608TIP3    H265316   5.069   4.016  15.021 -0.5915 -1.0798 -1.5021
14609TIP3   OH265317   0.820   3.902   3.737  0.0023  0.3405  0.2781
14609TIP3    H165318   0.853   3.821   3.699 -2.9136 -0.8401  0.1481
14609TIP3    H265319   0.815   3.884   3.831 -1.4925  0.0360  0.1497
14610TIP3   OH265320   3.156   1.272  12.247 -0.2188 -0.0562  0.3197
14610TIP3    H165321   3.184   1.257  12.157 -1.2602 -1.6228  0.2165
14610TIP3    H265322   3.233   1.251  12.300 -0.4358 -1.9874 -0.0728
14611TIP3   OH265323   3.734   1.513   1.101 -0.0982 -0.0553 -0.0817
14611TIP3    H165324   3.754   1.472   1.185 -0.8540  0.5668  0.4120
14611TIP3    H265325   3.638   1.513   1.096 -0.0624 -0.2041 -1.0076
14612TIP3   OH265326   5.135   1.343  14.536 -0.2338 -0.4263  0.0771
14612TIP3    H165327   5.102   1.347  14.625 -0.5123 -1.4976  0.0212
14612TIP3    H265328   5.091   1.416  14.491 -0.7560 -0.4277  0.5814
14613TIP3   OH265329   0.712   4.101  12.134 -0.6382 -0.8288  0.1302
14613TIP3    H165330   0.686   4.025  12.186  0.4487 -0.9934  0.4588
14613TIP3    H265331   0.663   4.092  12.052 -2.2330 -0.6620  1.0516
14614TIP3   OH265332   1.381   3.190  16.668 -0.5116  0.4372  0.0628
14614TIP3    H165333   1.470   3.202  16.636  0.0409 -0.7371  1.1220
14614TIP3    H265334   1.371   3.095  16.677 -1.3039  0.6518  1.5318
14615TIP3   OH265335   2.347   6.401   2.116  0.7178  0.7439 -0.0701
14615TIP3    H165336   2.399   6.465   2.068 -0.3584  0.8549 -1.0986
14615TIP3    H265337   2.411   6.345   2.158  1.6916  2.7001  1.1384
14616TIP3   OH265338   5.561   2.858   2.651  0.0767 -0.0725 -0.4581
14616TIP3    H165339   5.549   2.943   2.609  2.9116  0.5731 -0.0876
14616TIP3    H265340   5.530   2.871   2.741  0.3311  0.5250 -0.4532
14617TIP3   OH265341   3.141   0.802   2.057  0.5138 -0.1163 -0.4187
14617TIP3    H165342   3.143   0.737   2.127 -0.2290  1.1821  0.8490
14617TIP3    H265343   3.198   0.872   2.088 -0.4896  0.8483 -0.7147
14618TIP3   OH265344   5.904   4.520  13.474  0.5373  0.5700 -0.8690
14618TIP3    H165345   5.925   4.488  13.561 -0.4864 -1.9630 -1.4858
14618TIP3    H265346   5.985   4.508  13.424  0.5525  0.1618 -0.7508
14619TIP3   OH265347   6.453   3.649   1.793  0.3270  0.2085  0.2169
14619TIP3    H165348   6.478   3.643   1.701  3.2666  1.2090  0.8774
14619TIP3    H265349   6.461   3.560   1.826 -0.5942 -0.1301 -0.4528
14620TIP3   OH265350   0.374   3.033  10.976  0.1262 -0.2839 -0.3244
14620TIP3    H165351   0.409   3.110  11.021  0.2788 -0.1109 -0.7374
14620TIP3    H265352   0.312   3.068  10.913  0.7550 -0.4483 -1.0351
14621TIP3   OH265353   6.203   5.489   2.978  0.0466  0.1214 -0.0554
14621TIP3    H165354   6.188   5.406   3.023  0.1990  0.7201  1.1240
14621TIP3    H265355   6.117   5.513   2.942 -0.0626 -0.3912 -0.1400
14622TIP3   OH265356   2.295   2.719   5.693  0.2334  0.6878 -0.3093
14622TIP3    H165357   2.271   2.655   5.626 -0.0377 -0.8297  1.2151
14622TIP3    H265358   2.259   2.802   5.660 -0.5070 -0.1532 -1.6956
14623TIP3   OH265359   4.901   5.113   1.636  0.5327  0.2707 -0.2005
14623TIP3    H165360   4.957   5.154   1.701 -1.2537  1.6789  0.4916
14623TIP3    H265361   4.822   5.166   1.635 -0.7923 -1.6404 -1.1687
14624TIP3   OH265362   0.812   0.908   4.640  0.0565 -0.2725 -0.4365
14624TIP3    H165363   0.722   0.924   4.669  0.3655 -1.0769  1.0185
14624TIP3    H265364   0.844   0.839   4.698  2.2383  1.3234  0.2937
14625TIP3   OH265365   4.252   4.597  17.055  0.2839 -0.1657 -0.4485
14625TIP3    H165366   4.291   4.510  17.065 -0.1843 -0.3074  0.1915
14625TIP3    H265367   4.164   4.581  17.020  0.2605  0.0603 -0.4980
14626TIP3   OH265368   4.025   3.503   3.712 -0.3053  0.6645  0.3926
14626TIP3    H165369   4.044   3.596   3.717  1.3456  0.3557  0.3368
14626TIP3    H265370   4.088   3.463   3.773  0.9832 -0.6602 -1.7568
14627TIP3   OH265371   5.336   3.246  12.458  0.6514  0.3902 -0.5109
14627TIP3    H165372   5.307   3.193  12.384  0.4476 -0.7114  0.3522
14627TIP3    H265373   5.265   3.307  12.474  0.4793  0.2891 -0.8964
14628TIP3   OH265374   5.218   6.152   0.742 -0.6324  0.1032 -0.5757
14628TIP3    H165375   5.219   6.057   0.755  1.0199 -0.1592 -2.3256
14628TIP3    H265376   5.176   6.163   0.656 -0.1602  0.8856 -0.7133
14629TIP3   OH265377   1.313   6.102   1.667 -0.0261  0.1027  0.7224
14629TIP3    H165378   1.276   6.176   1.715 -0.7881 -0.5689  1.1779
14629TIP3    H265379   1.362   6.143   1.595  1.0700  1.1114  2.0037
14630TIP3   OH265380   4.689   5.937   5.395 -0.2777 -0.4306  0.0975
14630TIP3    H165381   4.668   5.909   5.484  2.3083  0.2788  0.9697
14630TIP3    H265382   4.769   5.889   5.373  0.8808  1.7505 -0.6299
14631TIP3   OH265383   2.413   4.237   2.176  0.3247 -0.1036  0.1165
14631TIP3    H165384   2.495   4.272   2.210  0.0990  0.8709 -0.3295
14631TIP3    H265385   2.375   4.309   2.125 -0.7465 -0.5876  0.2172
14632TIP3   OH265386   0.881   3.182   4.383 -0.2639  0.1860  0.4122
14632TIP3    H165387   0.888   3.146   4.471 -0.8491 -1.2158 -0.0914
14632TIP3    H265388   0.809   3.133   4.343 -1.0012  1.8460 -0.3497
14633TIP3   OH265389   6.498   1.685   6.542 -0.4381  0.5135 -0.0087
14633TIP3    H165390   6.452   1.602   6.556  0.3126  0.0617 -0.2000
14633TIP3    H265391   6.508   1.721   6.629  1.4215 -0.7834  0.3339
14634TIP3   OH265392   0.267   1.323   1.576 -0.7299 -0.2036 -0.1613
14634TIP3    H165393   0.173   1.313   1.588 -0.2795 -1.9276  2.3044
14634TIP3    H265394   0.283   1.417   1.584 -2.0920 -0.0299  0.4975
14635TIP3   OH265395   3.903   6.052  16.300 -0.2771  0.1799  0.0577
14635TIP3    H165396   3.922   5.986  16.366 -1.2337 -1.6411 -1.4440
14635TIP3    H265397   3.937   6.015  16.218 -0.9567  1.4783 -0.8379
14636TIP3   OH265398   3.496   6.200   1.861 -0.4713  0.2267  0.7965
14636TIP3    H165399   3.428   6.169   1.920  1.1855 -0.6030  2.3039
14636TIP3    H265400   3.475   6.292   1.845 -2.5194 -0.2921  0.4013
14637TIP3   OH265401   3.253   5.718   1.269  0.3770  0.6442  0.0090
14637TIP3    H165402   3.345   5.741   1.255  0.2835  0.1366 -1.6162
14637TIP3    H265403   3.209   5.745   1.188 -0.5422 -0.9819 -0.0553
14638TIP3   OH265404   2.261   2.527  15.084 -0.0410 -0.4902  0.5434
14638TIP3    H165405   2.350   2.537  15.117 -0.0523 -1.8216  1.0424
14638TIP3    H265406   2.252   2.594  15.017  0.7637  0.7572  1.6648
14639TIP3   OH265407   3.264   0.383  12.224 -0.2778 -0.1167 -0.0542
14639TIP3    H165408   3.209   0.304  12.226  2.3777 -2.0024  1.3423
14639TIP3    H265409   3.268   0.411  12.316  0.7959  0.2124 -0.2016
14640TIP3   OH265410   0.926   3.854   5.553  0.7474 -0.0064 -0.2122
14640TIP3    H165411   0.890   3.882   5.637 -1.9410 -2.4703 -0.4612
14640TIP3    H265412   1.014   3.823   5.573  0.5973  0.6003  1.4509
14641TIP3   OH265413   6.449   4.641   6.005 -0.0132  0.1068  0.3111
14641TIP3    H165414   6.427   4.732   6.023  1.4505  0.9381 -2.0294
14641TIP3    H265415   6.545   4.639   6.002 -0.0768 -1.1151 -1.5796
14642TIP3   OH265416   5.610   1.546  16.458 -0.0001  0.4826 -0.1456
14642TIP3    H165417   5.572   1.519  16.542  1.1211 -0.1295  0.1618
14642TIP3    H265418   5.534   1.557  16.401 -0.7529  0.6054  0.8549
14643TIP3   OH265419   3.004   5.971  12.967 -0.1386  0.0154 -0.1880
14643TIP3    H165420   3.004   5.998  13.058 -0.3784 -0.7948  0.0502
14643TIP3    H265421   2.912   5.976  12.940 -0.0927  0.0783 -0.3388
14644TIP3   OH265422   5.547   3.758  12.168 -0.7992 -0.1397  0.2281
14644TIP3    H165423   5.560   3.852  12.180  1.6896 -0.5200  0.7738
14644TIP3    H265424   5.555   3.744  12.073  1.1562 -0.1054  0.3782
14645TIP3   OH265425   3.499   4.231  16.934 -0.5790  0.2860  0.1942
14645TIP3    H165426   3.517   4.309  16.882 -2.6867  0.6096 -0.0813
14645TIP3    H265427   3.539   4.249  17.019 -0.7855  1.5209  0.0296
14646TIP3   OH265428   4.282   6.124   3.239 -0.1596  0.1015  0.0717
14646TIP3    H165429   4.277   6.158   3.329  1.0037 -0.5707  0.4020
14646TIP3    H265430   4.287   6.029   3.250  2.1761  0.1060 -0.5768
14647TIP3   OH265431   6.635   0.168   1.788  0.3138  0.3650  0.8003
14647TIP3    H165432   6.650   0.235   1.722 -0.0222 -1.0119 -0.7266
14647TIP3    H265433   6.568   0.205   1.845 -0.2591  1.1267 -0.3402
14648TIP3   OH265434   2.984   0.069   5.364 -0.2483 -0.1984 -0.3654
14648TIP3    H165435   3.004   0.146   5.311  1.3248 -0.5695 -0.3449
14648TIP3    H265436   3.048   0.003   5.334  0.5184 -0.4749  1.8278
14649TIP3   OH265437   1.811   5.432   1.441  0.0046  0.3278  0.2287
14649TIP3    H165438   1.777   5.407   1.527 -1.5183 -3.0383 -1.2607
14649TIP3    H265439   1.850   5.351   1.406  3.4760  2.4145 -0.9722
14650TIP3   OH265440   5.844   5.188  12.214 -0.0600  0.1852 -0.0604
14650TIP3    H165441   5.853   5.254  12.145 -2.2366 -0.4366 -0.9519
14650TIP3    H265442   5.768   5.217  12.265 -0.4820 -1.1519  0.0803
14651TIP3   OH265443   5.992   6.470  12.739 -0.6332  0.2645 -0.0618
14651TIP3    H165444   5.930   6.497  12.671  0.3725  0.6479 -0.8335
14651TIP3    H265445   5.970   6.526  12.814 -1.4645  0.1366 -0.2063
14652TIP3   OH265446   3.220   6.447  16.435 -0.0901  0.6748 -0.1063
14652TIP3    H165447   3.315   6.457  16.437  0.1440 -1.2583 -0.6600
14652TIP3    H265448   3.195   6.436  16.527  0.4462 -0.6849 -0.1193
14653TIP3   OH265449   3.809   4.250  14.961  0.2377  0.4814  0.1698
14653TIP3    H165450   3.829   4.342  14.945 -0.2147  0.5236 -0.1611
14653TIP3    H265451   3.790   4.245  15.055  0.0573  0.7676  0.1492
14654TIP3   OH265452   3.814   2.282   2.778  0.3641  0.4617  0.4307
14654TIP3    H165453   3.789   2.364   2.734  0.2440  0.0008 -0.3624
14654TIP3    H265454   3.799   2.214   2.713  2.8914  0.0753  0.2299
14655TIP3   OH265455   3.402   0.761   5.789 -0.2351 -0.3505  0.3793
14655TIP3    H165456   3.411   0.856   5.788 -1.1478 -0.2567  0.7700
14655TIP3    H265457   3.492   0.729   5.787  0.0649  0.4767 -2.4438
14656TIP3   OH265458   4.524   6.553  15.446  0.5290  0.0669 -0.0638
14656TIP3    H165459   4.567   6.611  15.383 -0.4586 -0.9059 -1.6993
14656TIP3    H265460   4.435   6.589  15.454 -0.1996 -1.3965 -1.3669
14657TIP3   OH265461   2.678   3.610  15.689 -0.3646  0.0232 -0.1185
14657TIP3    H165462   2.713   3.581  15.773  2.1272 -0.2659 -1.2059
14657TIP3    H265463   2.630   3.533  15.656 -1.9862  0.3764  1.3153
14658TIP3   OH265464   0.247   6.285   1.447 -0.1179  0.0682 -0.0426
14658TIP3    H165465   0.201   6.232   1.382  0.8982  1.0736 -1.5946
14658TIP3    H265466   0.236   6.375   1.417  0.4145  0.5459  1.1549
14659TIP3   OH265467   5.187   2.660  16.665  0.6717  0.4146 -0.2855
14659TIP3    H165468   5.242   2.667  16.743 -0.5285  2.8293  0.4300
14659TIP3    H265469   5.110   2.612  16.694  0.1775  1.4042  0.0876
14660TIP3   OH265470   1.376   2.791   0.068 -0.5359 -0.2448 -0.1889
14660TIP3    H165471   1.442   2.727   0.043  2.0938  2.4688 -0.4244
14660TIP3    H265472   1.399   2.816   0.158  0.4049  2.6423 -1.1801
14661TIP3   OH265473   0.951   5.457   1.042  0.4986  0.4812  0.1741
14661TIP3    H165474   0.908   5.523   1.097  1.8477  2.8527 -1.5018
14661TIP3    H265475   1.034   5.440   1.087  1.7592  2.6828 -1.2038
14662TIP3   OH265476   6.241   4.253  13.482  0.0934 -0.0676  0.1444
14662TIP3    H165477   6.280   4.166  13.469 -1.1082 -0.4420 -1.0912
14662TIP3    H265478   6.173   4.239  13.549 -0.1853 -0.1143 -0.1468
14663TIP3   OH265479   3.454   4.858   0.032  0.4207 -0.7139 -0.2652
14663TIP3    H165480   3.439   4.942   0.075  1.1588 -0.3790 -0.6679
14663TIP3    H265481   3.372   4.810   0.044 -0.4626  0.5662 -1.2129
14664TIP3   OH265482   2.835   4.375   5.066 -0.3290 -0.3881  0.2137
14664TIP3    H165483   2.763   4.339   5.118 -1.6245  1.7615 -0.0111
14664TIP3    H265484   2.891   4.300   5.047 -1.0654 -1.6087  2.7071
14665TIP3   OH265485   3.266   4.779  16.493 -0.1849 -0.1223 -0.1313
14665TIP3    H165486   3.280   4.796  16.586 -0.8296  0.4727 -0.1291
14665TIP3    H265487   3.241   4.865  16.457 -1.3126 -0.6243 -0.5742
14666TIP3   OH265488   4.001   6.793   0.730  0.1291 -0.3502 -0.5547
14666TIP3    H165489   4.093   6.812   0.743 -0.8982  2.6653  3.1897
14666TIP3    H265490   3.987   6.709   0.773  1.1762 -0.9680 -1.4124
14667TIP3   OH265491   4.674   3.174  17.078  0.2764  0.3881 -0.2930
14667TIP3    H165492   4.612   3.130  17.137 -0.2701  1.9532  0.3222
14667TIP3    H265493   4.697   3.255  17.124  1.7154  0.4645 -1.1477
14668TIP3   OH265494   3.776   6.069  17.006 -0.3475  0.2301 -0.5139
14668TIP3    H165495   3.691   6.025  17.002 -0.4402  0.1577  1.5149
14668TIP3    H265496   3.773   6.120  17.087  2.5135 -1.8563  1.0150
14669TIP3   OH265497   2.623   0.741   5.327 -0.1312  0.2405 -0.3679
14669TIP3    H165498   2.711   0.752   5.290 -0.4867 -0.5619 -1.4841
14669TIP3    H265499   2.604   0.648   5.316 -1.2679  0.4805 -0.4483
14670TIP3   OH265500   6.065   6.048   6.046 -0.0746 -0.7976 -0.2658
14670TIP3    H165501   6.122   5.985   6.091  0.4769 -0.2243 -0.1450
14670TIP3    H265502   5.984   6.047   6.096  0.0831 -1.1145 -0.0158
14671TIP3   OH265503   2.590   5.669  11.591  0.1819  0.6642 -0.3953
14671TIP3    H165504   2.666   5.610  11.591 -0.7670 -0.5928 -1.1966
14671TIP3    H265505   2.537   5.639  11.517  0.0195  2.9877 -1.2538
14672TIP3   OH265506   5.553   4.560   0.614  0.0550  0.1481 -0.3245
14672TIP3    H165507   5.519   4.597   0.533 -0.0007  1.3085  0.2230
14672TIP3    H265508   5.584   4.473   0.589 -0.1747  0.4032 -1.5388
14673TIP3   OH265509   2.265   4.822  14.914 -0.2014 -0.0012  0.6075
14673TIP3    H165510   2.358   4.808  14.895 -0.0937 -1.0771  1.8254
14673TIP3    H265511   2.222   4.818  14.828  1.0682  2.3383 -0.1882
14674TIP3   OH265512   2.070   1.346   1.127  0.4049  0.1635 -0.4980
14674TIP3    H165513   2.145   1.376   1.178  1.0532  0.7508 -1.7651
14674TIP3    H265514   2.067   1.252   1.142  2.4305 -0.1362 -1.7484
14675TIP3   OH265515   3.505   5.575   2.179  0.1196  0.4282  0.3458
14675TIP3    H165516   3.539   5.635   2.245 -0.7069  0.4011  0.7967
14675TIP3    H265517   3.492   5.629   2.101  2.2861  0.2158 -0.1982
14676TIP3   OH265518   4.675   2.338  12.526 -0.8482  0.0281 -0.2312
14676TIP3    H165519   4.641   2.427  12.535  0.4503  0.6564 -1.4784
14676TIP3    H265520   4.697   2.312  12.616 -2.1137  0.6084  0.2498
14677TIP3   OH265521   2.514   4.672  12.673 -0.1093  0.1828 -0.0163
14677TIP3    H165522   2.470   4.604  12.621 -1.4521  0.9726  0.0896
14677TIP3    H265523   2.606   4.665  12.647 -0.1993 -1.8024  0.1282
14678TIP3   OH265524   0.319   1.503   4.232  0.1513  0.2016 -0.2446
14678TIP3    H165525   0.237   1.481   4.188  0.2355 -0.5300 -0.0481
14678TIP3    H265526   0.343   1.589   4.197  1.4377 -1.3845 -3.4771
14679TIP3   OH265527   2.645   0.747   4.605  0.3715  0.3668  0.0754
14679TIP3    H165528   2.697   0.710   4.534 -0.5529  0.5702 -0.7199
14679TIP3    H265529   2.644   0.841   4.586 -2.4896  0.0872 -1.4317
14680TIP3   OH265530   4.292   0.381  13.683 -0.0047  0.4831  0.6711
14680TIP3    H165531   4.272   0.452  13.744 -0.1830  3.2092 -2.4148
14680TIP3    H265532   4.227   0.390  13.613  1.3178 -1.3995 -0.8649
14681TIP3   OH265533   3.354   3.401   1.028  0.2096 -0.2051 -0.1031
14681TIP3    H165534   3.342   3.423   1.120  0.0424 -1.8900  0.2801
14681TIP3    H265535   3.446   3.422   1.011  0.5190 -0.8754  0.7244
14682TIP3   OH265536   4.530   5.428  13.953 -0.1390  0.0543  0.0062
14682TIP3    H165537   4.508   5.433  14.046 -1.0196  0.0892 -0.2063
14682TIP3    H265538   4.604   5.367  13.950 -0.1071  0.0482  0.7286
14683TIP3   OH265539   5.095   4.880   4.541 -0.0538 -0.1336 -0.4154
14683TIP3    H165540   5.116   4.952   4.482 -0.3801 -0.3567 -0.8003
14683TIP3    H265541   5.176   4.867   4.592 -0.0488  0.6105 -0.2275
14684TIP3   OH265542   5.406   0.343   1.801  0.2678  0.4241 -0.4491
14684TIP3    H165543   5.319   0.305   1.787  0.5345 -0.2913 -0.1915
14684TIP3    H265544   5.442   0.292   1.873  0.3950  1.5695  0.3071
14685TIP3   OH265545   0.458   3.800  15.978  0.3871  0.2799 -0.0491
14685TIP3    H165546   0.439   3.717  16.021  0.8263  0.3820  0.3544
14685TIP3    H265547   0.499   3.776  15.895  1.4823  0.0972  0.5344
14686TIP3   OH265548   5.200   6.204  11.698 -0.2149 -0.3349  0.0450
14686TIP3    H165549   5.160   6.286  11.671 -1.3836 -0.2496  1.9600
14686TIP3    H265550   5.127   6.150  11.727  0.8584 -0.7618  2.0636
14687TIP3   OH265551   5.287   3.783  15.691  0.5226 -0.3709 -0.4094
14687TIP3    H165552   5.247   3.699  15.711 -0.7438  0.2053 -0.4675
14687TIP3    H265553   5.306   3.779  15.597  2.7257 -1.5051  0.0359
14688TIP3   OH265554   0.973   5.451  13.798 -0.0969  0.1242 -0.0517
14688TIP3    H165555   1.028   5.422  13.725 -0.0407 -0.5634  0.2639
14688TIP3    H265556   1.025   5.433  13.876 -0.3458  0.4324  0.1823
14689TIP3   OH265557   1.857   3.261   3.948  0.2689  0.2941  0.3186
14689TIP3    H165558   1.800   3.336   3.966 -0.0286 -0.3759  2.2133
14689TIP3    H265559   1.807   3.185   3.979  0.3665 -0.7603 -2.0018
14690TIP3   OH265560   3.771   3.596  13.142  0.5262 -0.1982 -0.0272
14690TIP3    H165561   3.765   3.582  13.047  0.8212  1.2806 -0.2802
14690TIP3    H265562   3.684   3.626  13.168  0.1909 -1.4428  0.3341
14691TIP3   OH265563   3.812   0.083   5.559  0.5574  0.6360 -0.9290
14691TIP3    H165564   3.893   0.122   5.526 -0.1423  2.2147 -0.8057
14691TIP3    H265565   3.758   0.068   5.481  0.9843 -0.5184 -1.0231
14692TIP3   OH265566   0.894   6.390  12.988 -0.7180  0.4941  0.1608
14692TIP3    H165567   0.814   6.442  12.989 -0.8678  0.3231 -1.1335
14692TIP3    H265568   0.964   6.454  12.978 -0.8000  0.5475 -0.0751
14693TIP3   OH265569   0.019   6.050   6.695 -0.5027 -1.1247 -0.1153
14693TIP3    H165570  -0.070   6.055   6.728 -0.2730 -0.0527  0.3697
14693TIP3    H265571   0.010   6.060   6.600 -0.7171  1.3403  0.1371
14694TIP3   OH265572   3.774   6.528  14.690 -0.0272 -0.5085  0.3077
14694TIP3    H165573   3.773   6.606  14.633  0.6671  0.0861  1.0866
14694TIP3    H265574   3.684   6.521  14.723 -0.3528 -0.6678 -0.6086
14695TIP3   OH265575   1.522   5.015  15.852 -0.4244 -0.3055  1.0215
14695TIP3    H165576   1.444   5.066  15.873  0.2505  1.5601 -0.8281
14695TIP3    H265577   1.594   5.077  15.858  0.3557 -0.8825 -1.7305
14696TIP3   OH265578   2.590   4.284  15.193 -0.0902  0.4917 -0.2254
14696TIP3    H165579   2.568   4.300  15.284 -2.3310 -0.5341 -0.5498
14696TIP3    H265580   2.661   4.220  15.196 -2.6527 -2.4305  0.8028
14697TIP3   OH265581   1.644   4.367   5.922  0.1575 -0.2371  0.4884
14697TIP3    H165582   1.713   4.301   5.920  0.2700 -0.2245  2.4381
14697TIP3    H265583   1.567   4.321   5.954 -0.1313  0.2474  0.5027
14698TIP3   OH265584   2.519   3.918   0.179  0.5978  0.0604  0.1874
14698TIP3    H165585   2.530   3.854   0.109  0.0455  0.6920 -0.4849
14698TIP3    H265586   2.570   3.883   0.252  1.5924 -0.3378 -0.6989
14699TIP3   OH265587   2.869   4.680   2.022  0.3617 -0.4673 -0.1453
14699TIP3    H165588   2.884   4.685   1.927  3.1898  1.4935  0.3532
14699TIP3    H265589   2.951   4.647   2.058 -0.5422 -0.7837  1.6745
14700TIP3   OH265590   1.120   5.870   4.194 -0.4083 -0.2218  0.1129
14700TIP3    H165591   1.183   5.812   4.237 -0.8503 -1.8901 -1.4165
14700TIP3    H265592   1.036   5.846   4.234 -0.8927 -2.1135 -1.9264
14701TIP3   OH265593   2.744   2.242  16.162 -0.8502  0.5023 -0.4143
14701TIP3    H165594   2.701   2.269  16.243 -0.5257  2.2430 -0.7861
14701TIP3    H265595   2.695   2.166  16.133  0.2619 -1.4252  2.4682
14702TIP3   OH265596   4.807   1.810  15.897  0.6217  0.3060 -0.1761
14702TIP3    H165597   4.767   1.857  15.825 -0.1765  0.6082  0.4562
14702TIP3    H265598   4.765   1.724  15.896 -0.2550  0.7151  0.6542
14703TIP3   OH265599   3.412   1.065   0.808 -0.3185 -0.2137  0.7902
14703TIP3    H165600   3.407   1.158   0.831 -1.3653  0.0118 -0.3242
14703TIP3    H265601   3.494   1.035   0.848 -0.5058  0.9202  2.0774
14704TIP3   OH265602   2.654   1.109  13.849  0.0702  0.4176 -0.4704
14704TIP3    H165603   2.712   1.040  13.815  0.8627  1.2824 -0.9077
14704TIP3    H265604   2.661   1.179  13.785 -3.5176 -0.4562 -1.8911
14705TIP3   OH265605   0.753   1.298  15.024  0.4183 -0.2672  0.5610
14705TIP3    H165606   0.695   1.343  15.085 -0.7124 -0.0054 -0.6806
14705TIP3    H265607   0.736   1.338  14.939  3.2233  0.5642  0.3267
14706TIP3   OH265608   1.186   0.794   2.507  0.4475  0.7660  0.2923
14706TIP3    H165609   1.109   0.844   2.482 -0.4848 -1.3391 -1.1995
14706TIP3    H265610   1.254   0.821   2.444  0.2474  0.9062  0.1372
14707TIP3   OH265611   2.388   3.145   2.365  0.6831  0.3125 -0.2403
14707TIP3    H165612   2.333   3.222   2.378 -0.0464 -0.2973  0.3634
14707TIP3    H265613   2.467   3.163   2.415 -0.3270 -0.1857  1.6143
14708TIP3   OH265614   4.575   5.434  15.652  0.3939 -0.0882  0.1037
14708TIP3    H165615   4.503   5.465  15.597 -1.3425 -1.4622  1.5498
14708TIP3    H265616   4.586   5.502  15.719  0.0667 -0.1287  0.2007
14709TIP3   OH265617   4.976   6.476   0.879 -0.0772  0.5131  0.7329
14709TIP3    H165618   4.990   6.545   0.814 -2.9169  0.5356  0.0913
14709TIP3    H265619   4.894   6.434   0.853  0.1695 -1.2932  2.7139
14710TIP3   OH265620   5.364   0.942  11.943 -0.2121  0.3321 -0.6034
14710TIP3    H165621   5.455   0.943  11.914  0.2161 -1.8253  0.5343
14710TIP3    H265622   5.322   1.012  11.893  2.2790  2.0325 -0.3670
14711TIP3   OH265623   1.796   0.467   3.002  0.1259 -0.5071  0.7396
14711TIP3    H165624   1.815   0.519   3.080  0.5359  0.6517 -0.1330
14711TIP3    H265625   1.701   0.473   2.992 -0.1038 -1.8252  1.9554
14712TIP3   OH265626   5.150   1.439  13.430 -0.1121 -0.1972 -0.8418
14712TIP3    H165627   5.184   1.412  13.345 -2.2566 -0.4109 -1.6591
14712TIP3    H265628   5.138   1.534  13.422 -1.6893 -0.4207 -1.3029
14713TIP3   OH265629   2.000   2.938  12.199  0.3339 -0.3870 -0.6904
14713TIP3    H165630   1.912   2.933  12.162 -0.2721  0.6124  0.5998
14713TIP3    H265631   2.024   3.030  12.192  0.6373 -0.3809  0.4226
14714TIP3   OH265632   1.876   4.658  17.178  0.0579  0.2080  0.1821
14714TIP3    H165633   1.797   4.652  17.124 -0.7678  0.1199  1.3943
14714TIP3    H265634   1.889   4.752  17.192 -0.9964  0.1498  1.6627
14715TIP3   OH265635   4.996   4.916   5.359 -0.3035 -0.1014 -0.2994
14715TIP3    H165636   4.983   4.891   5.267 -0.4187  2.2631 -0.9405
14715TIP3    H265637   4.913   4.954   5.385 -0.9036 -2.4609  1.3971
14716TIP3   OH265638   4.482   2.497   1.122  0.3151 -0.1476  0.8785
14716TIP3    H165639   4.389   2.517   1.107 -0.0068 -1.8094  0.5883
14716TIP3    H265640   4.522   2.500   1.035  0.3340 -0.3990  0.8775
14717TIP3   OH265641   4.536   6.260   2.801  0.0227 -0.4126  0.0093
14717TIP3    H165642   4.497   6.307   2.875  0.7873 -1.5205  1.1483
14717TIP3    H265643   4.630   6.272   2.812  0.2336 -2.1525  0.3082
14718TIP3   OH265644   6.478   1.642  14.978  0.3217 -0.3599 -0.0926
14718TIP3    H165645   6.504   1.638  15.070  1.9750  0.1331 -0.5167
14718TIP3    H265646   6.430   1.561  14.963 -2.1812  0.6918  1.8424
14719TIP3   OH265647   0.311   2.612  14.970  0.2251 -0.0404  0.5029
14719TIP3    H165648   0.225   2.573  14.986  0.4008 -0.5031  0.3264
14719TIP3    H265649   0.371   2.537  14.964  0.5673  0.2559  0.1824
14720TIP3   OH265650   3.280   1.506  15.510  0.1069 -0.1241  0.0151
14720TIP3    H165651   3.353   1.486  15.451 -0.8804 -1.2238 -0.8667
14720TIP3    H265652   3.245   1.589  15.478  0.2644 -0.1620 -0.2592
14721TIP3   OH265653   6.744   5.711  13.021 -0.7079  0.5401  0.8538
14721TIP3    H165654   6.684   5.726  12.949  1.1629  0.9564 -0.6413
14721TIP3    H265655   6.694   5.735  13.099 -1.9293  2.4542 -0.4879
14722TIP3   OH265656   3.990   0.369  12.648 -0.1535  0.1343 -0.6455
14722TIP3    H165657   4.015   0.341  12.737  2.3150  0.2582 -1.2559
14722TIP3    H265658   4.007   0.292  12.594 -0.1486  0.5655 -1.2577
14723TIP3   OH265659   2.274   5.927   0.953  0.4702 -0.3594 -0.0077
14723TIP3    H165660   2.354   5.975   0.975 -0.7127  0.6176  2.3277
14723TIP3    H265661   2.267   5.935   0.857  1.3635  2.4776  0.1041
14724TIP3   OH265662   6.076   5.678   2.094  0.3509 -0.6579 -0.2304
14724TIP3    H165663   6.172   5.682   2.096  0.3569 -1.2379  0.3827
14724TIP3    H265664   6.053   5.731   2.017  1.1478 -0.3139 -0.2463
14725TIP3   OH265665   6.235   4.151  15.171 -0.4812  0.1188  0.7360
14725TIP3    H165666   6.261   4.066  15.134 -1.7347  0.3585 -0.7407
14725TIP3    H265667   6.297   4.213  15.133  0.0823 -0.0535  1.3709
14726TIP3   OH265668   6.725   6.767   2.865  0.3206 -0.5847 -0.1814
14726TIP3    H165669   6.785   6.714   2.917  0.7591  0.6649  0.5986
14726TIP3    H265670   6.764   6.768   2.777  1.9284  0.9501  0.5310
14727TIP3   OH265671   2.275   2.852   2.531  0.0705 -0.1501 -0.1152
14727TIP3    H165672   2.266   2.909   2.608 -1.0340  0.5519 -0.7559
14727TIP3    H265673   2.364   2.868   2.500 -0.4395  1.7239 -0.6709
14728TIP3   OH265674   2.890   1.247  10.894 -0.2972 -0.1871 -0.2785
14728TIP3    H165675   2.848   1.325  10.857 -0.7124 -0.0345  0.4956
14728TIP3    H265676   2.861   1.175  10.838  1.1308  0.3897 -1.7751
14729TIP3   OH265677   1.094   5.432  14.040  0.6158 -0.3729 -0.2196
14729TIP3    H165678   1.089   5.506  14.101 -0.0390  0.3634 -1.1640
14729TIP3    H265679   1.119   5.358  14.096 -0.3919  0.2017  1.0297
14730TIP3   OH265680   3.526   5.238  15.618  0.0895 -0.0306 -0.1359
14730TIP3    H165681   3.472   5.287  15.556 -1.0325  0.7917  1.4493
14730TIP3    H265682   3.574   5.176  15.564 -2.2682 -0.6281 -1.6348
14731TIP3   OH265683   1.610   5.324   3.651  0.5909  0.2103 -0.0407
14731TIP3    H165684   1.541   5.322   3.585  1.4745  1.0067 -0.9995
14731TIP3    H265685   1.575   5.272   3.724 -1.8436  2.2605  0.3146
14732TIP3   OH265686   3.793   0.527  15.036  0.1451  0.0667 -0.7155
14732TIP3    H165687   3.873   0.567  15.003 -0.1800  1.4840  0.1501
14732TIP3    H265688   3.748   0.494  14.958  0.3922  1.4668 -1.4608
14733TIP3   OH265689   5.001   1.404  16.955 -0.3166  0.3977  0.5545
14733TIP3    H165690   5.009   1.463  16.880  0.1181  2.1899  1.9860
14733TIP3    H265691   4.915   1.423  16.992 -1.0629 -1.3935 -0.2401
14734TIP3   OH265692   5.092   4.289   3.111  0.4912 -0.1361  0.5641
14734TIP3    H165693   5.004   4.255   3.094  0.6489 -0.5275  0.5346
14734TIP3    H265694   5.148   4.212   3.108  1.6698  0.7425 -4.7710
14735TIP3   OH265695   2.218   3.838   3.408  0.1292  0.0106  0.1829
14735TIP3    H165696   2.260   3.815   3.326 -1.5915  0.7517 -0.9261
14735TIP3    H265697   2.288   3.872   3.463  1.6589 -2.3630 -0.2269
14736TIP3   OH265698   0.949   3.466  15.717  0.8480 -0.3421 -0.0998
14736TIP3    H165699   0.877   3.508  15.670  3.0843  1.9884 -1.5264
14736TIP3    H265700   0.965   3.385  15.667  0.1191 -0.2166 -0.5487
14737TIP3   OH265701   5.700   6.473  10.363  0.0661 -0.1106  0.2312
14737TIP3    H165702   5.744   6.555  10.387 -0.6565  0.1532  0.6491
14737TIP3    H265703   5.612   6.482  10.399 -0.1934 -0.8290 -0.2313
14738TIP3   OH265704   1.156   1.548   3.810 -0.1040  0.1261 -0.3149
14738TIP3    H165705   1.184   1.457   3.816  3.3037  1.1426  0.1982
14738TIP3    H265706   1.161   1.569   3.717 -1.0931 -0.2321 -0.4599
14739TIP3   OH265707   3.822   2.102  11.814  0.0389  0.0241 -0.3268
14739TIP3    H165708   3.848   2.114  11.722 -0.9375 -1.9433 -0.8730
14739TIP3    H265709   3.869   2.023  11.842  0.9136  1.0281  1.1127
14740TIP3   OH265710   5.176   6.487  11.609  0.1827 -0.4836  0.4459
14740TIP3    H165711   5.129   6.525  11.684 -1.9359  0.5311 -1.3336
14740TIP3    H265712   5.239   6.555  11.584 -0.3410 -0.0755  0.2143
14741TIP3   OH265713   3.043   4.643   5.040  0.2638 -0.2507 -0.3256
14741TIP3    H165714   3.129   4.629   5.079  0.0771  0.4618  0.3658
14741TIP3    H265715   3.053   4.619   4.948  1.3897  0.5209 -0.4142
14742TIP3   OH265716   2.001   3.528   6.009  0.1879  0.2958  0.0815
14742TIP3    H165717   1.937   3.470   5.969  2.1329 -3.1646  1.7416
14742TIP3    H265718   2.079   3.519   5.955  0.7998  0.6468  0.8967
14743TIP3   OH265719   2.223   4.270  15.768  0.3693  0.1640 -0.3934
14743TIP3    H165720   2.311   4.251  15.800  0.5762 -0.5149 -1.3439
14743TIP3    H265721   2.190   4.186  15.736 -1.6379 -0.1677  2.3523
14744TIP3   OH265722   1.985   2.425  15.876 -0.1721 -0.2885  0.3746
14744TIP3    H165723   2.007   2.488  15.945 -1.6231  1.2307 -0.5254
14744TIP3    H265724   1.915   2.467  15.826  0.9070 -1.3127 -2.1001
14745TIP3   OH265725   0.062   0.689  12.666  0.0363 -0.4357  0.1262
14745TIP3    H165726   0.136   0.663  12.612 -0.5222 -2.1512  0.1626
14745TIP3    H265727  -0.014   0.680  12.609 -0.5454 -2.1701  1.1493
14746TIP3   OH265728   6.746   3.106   5.535 -0.2525  0.2253  0.5184
14746TIP3    H165729   6.691   3.180   5.560 -0.1178  1.0625 -1.5020
14746TIP3    H265730   6.818   3.106   5.598 -2.1508 -0.4266  2.7279
14747TIP3   OH265731   2.899   0.235   0.933 -0.0754 -0.5785  0.4198
14747TIP3    H165732   2.814   0.192   0.921 -0.2616  0.0249 -0.4315
14747TIP3    H265733   2.898   0.262   1.025 -0.2231 -1.8028  0.7925
14748TIP3   OH265734   1.276   1.330   2.394  0.2706  0.7061 -0.2137
14748TIP3    H165735   1.268   1.257   2.456  1.9152  0.0195 -0.7576
14748TIP3    H265736   1.324   1.397   2.443 -2.1875  1.8801  0.6425
14749TIP3   OH265737   0.757   2.552  11.717  0.1525  0.0358  0.4997
14749TIP3    H165738   0.675   2.597  11.735  0.7428  0.8298  1.2542
14749TIP3    H265739   0.743   2.509  11.632 -0.3063  1.9395 -0.4096
14750TIP3   OH265740   3.534   6.809   6.092 -0.5469 -0.2116  0.0233
14750TIP3    H165741   3.528   6.774   6.003 -0.9782 -1.1192  0.3996
14750TIP3    H265742   3.561   6.734   6.145  2.0453  0.8719  0.3039
14751TIP3   OH265743   1.684   1.738   2.660  0.0854  0.4017  0.4898
14751TIP3    H165744   1.602   1.689   2.665 -0.7558  1.5013 -1.7653
14751TIP3    H265745   1.711   1.750   2.751 -1.2169 -1.6752  1.1845
14752TIP3   OH265746   4.912   6.141   2.396 -0.3081  0.1891  0.7609
14752TIP3    H165747   4.974   6.122   2.466 -0.8527 -0.1126  1.1681
14752TIP3    H265748   4.831   6.165   2.442 -0.2712  1.3260  0.2443
14753TIP3   OH265749   5.494   0.920   1.357  0.3491  0.0501  0.0922
14753TIP3    H165750   5.442   0.845   1.328  1.9902 -0.6603 -1.1004
14753TIP3    H265751   5.451   0.996   1.319 -0.7345 -0.3760  0.4554
14754TIP3   OH265752   0.253   6.686  13.656 -0.1165  0.0249  0.3325
14754TIP3    H165753   0.345   6.664  13.642 -0.1963 -0.1741  0.1136
14754TIP3    H265754   0.205   6.633  13.592 -0.4377 -0.4304  0.9446
14755TIP3   OH265755   1.127   1.409  11.696 -0.0784 -0.0181 -0.6590
14755TIP3    H165756   1.069   1.336  11.719 -0.1505 -0.1643 -1.2951
14755TIP3    H265757   1.097   1.481  11.751  1.3900 -1.0531  1.5815
14756TIP3   OH265758   1.158   2.440   6.496 -0.5036 -0.3420 -0.7992
14756TIP3    H165759   1.083   2.491   6.466 -1.1504 -0.9431 -0.2254
14756TIP3    H265760   1.167   2.461   6.589 -0.8770 -1.3933 -0.5224
14757TIP3   OH265761   3.062   3.945   3.659 -0.1583  0.0418 -0.0012
14757TIP3    H165762   3.032   3.854   3.665 -0.9043  0.2039 -1.0738
14757TIP3    H265763   2.982   3.995   3.646  0.0109  1.1111  2.7034
14758TIP3   OH265764   0.988   3.850  12.566 -0.2614 -0.6974  0.6204
14758TIP3    H165765   0.935   3.887  12.495  0.6172 -1.3386 -0.3855
14758TIP3    H265766   0.924   3.821  12.631 -1.0766 -0.0160  0.1432
14759TIP3   OH265767   5.686   5.828  15.444  0.1991  0.4238  0.0844
14759TIP3    H165768   5.724   5.761  15.387  2.0299  2.0825 -0.7187
14759TIP3    H265769   5.654   5.780  15.520 -0.7659 -1.6413 -1.5721
14760TIP3   OH265770   3.472   4.705   1.412  0.1665 -0.0871 -0.2321
14760TIP3    H165771   3.514   4.680   1.330 -0.6770  0.2491 -0.7721
14760TIP3    H265772   3.390   4.746   1.385  0.1769  0.5886  0.7549
14761TIP3   OH265773   5.867   0.632   0.992  0.3539 -0.3496  0.2123
14761TIP3    H165774   5.895   0.561   1.050  0.4612 -0.6089 -0.1606
14761TIP3    H265775   5.783   0.660   1.029  0.8031  0.0211  0.9624
14762TIP3   OH265776   6.071   3.812  13.560  0.1199  0.4742 -0.3100
14762TIP3    H165777   6.049   3.821  13.468 -0.7363  0.0356 -0.1579
14762TIP3    H265778   5.995   3.847  13.607 -0.5066 -1.5403  0.2370
14763TIP3   OH265779   2.425   2.667   1.492 -0.2177 -0.3847  0.1814
14763TIP3    H165780   2.399   2.672   1.583 -0.4728 -2.7177  0.2718
14763TIP3    H265781   2.343   2.658   1.443 -0.1179  1.3966 -0.3257
14764TIP3   OH265782   4.946   1.349   5.697 -0.5559  0.3256 -0.3413
14764TIP3    H165783   5.038   1.358   5.669 -1.3296  2.5879 -2.3702
14764TIP3    H265784   4.944   1.386   5.785  0.7424 -1.0686  0.2963
14765TIP3   OH265785   0.977   5.029  14.818  0.0810  0.1107  0.7800
14765TIP3    H165786   1.026   4.973  14.757 -0.1955  1.0624 -0.3284
14765TIP3    H265787   0.912   4.971  14.856  0.7213 -0.6709  0.7129
14766TIP3   OH265788   1.404   6.687  13.393 -0.6079  0.1254 -0.6256
14766TIP3    H165789   1.325   6.632  13.396 -1.6638  1.4102 -3.1557
14766TIP3    H265790   1.457   6.649  13.324  0.7985 -0.4442  0.7499
14767TIP3   OH265791   2.445   5.916  12.187  0.7892 -0.1740  0.0836
14767TIP3    H165792   2.513   5.959  12.238  0.5533  0.2883  0.0059
14767TIP3    H265793   2.489   5.890  12.106 -0.0392  3.6240 -1.7019
14768TIP3   OH265794   4.485   4.944  14.346  0.1709 -0.1052 -0.1564
14768TIP3    H165795   4.545   4.886  14.300 -0.8866 -1.7217  0.4731
14768TIP3    H265796   4.436   4.887  14.405 -0.6125  1.4833  0.7656
14769TIP3   OH265797   6.098   1.769  15.374  0.0460  0.7409  0.3342
14769TIP3    H165798   6.155   1.815  15.313  1.5745  0.6470  1.6549
14769TIP3    H265799   6.022   1.744  15.322 -0.7016  4.4816 -0.5074
14770TIP3   OH265800   3.672   3.351   5.429  0.0534  0.1538 -0.0949
14770TIP3    H165801   3.712   3.290   5.367 -1.4684 -0.9776  0.0048
14770TIP3    H265802   3.688   3.311   5.515 -0.1912  0.3412  0.0371
14771TIP3   OH265803   2.143   0.396   4.537  0.0134 -0.1901 -0.1312
14771TIP3    H165804   2.158   0.479   4.582 -1.4137  0.1199 -0.2045
14771TIP3    H265805   2.075   0.353   4.588 -1.2979 -0.0329 -1.7174
14772TIP3   OH265806   3.674   3.146   1.356 -0.1994 -0.7098 -0.2424
14772TIP3    H165807   3.621   3.121   1.281 -0.6542  0.2619 -0.2615
14772TIP3    H265808   3.628   3.109   1.432 -0.8783  0.0461 -0.2666
14773TIP3   OH265809   2.501   5.524   4.522  0.1495  0.5277 -0.4894
14773TIP3    H165810   2.424   5.473   4.498  0.6664  0.4242 -1.9752
14773TIP3    H265811   2.572   5.461   4.525  0.4077  0.8214 -0.2933
14774TIP3   OH265812   1.875   6.629  13.818  0.2026 -0.1291 -0.8453
14774TIP3    H165813   1.813   6.606  13.887  1.4278 -0.2285  0.2566
14774TIP3    H265814   1.932   6.552  13.812  1.0131  0.4777 -0.9164
14775TIP3   OH265815   5.287   5.819   4.917 -0.5790  0.6226  0.5735
14775TIP3    H165816   5.334   5.902   4.925  0.6257 -0.1297  1.5494
14775TIP3    H265817   5.220   5.821   4.986 -0.6447  0.8446  0.5008
14776TIP3   OH265818   0.336   0.652  14.349  0.1743 -0.0370  0.3833
14776TIP3    H165819   0.389   0.700  14.286 -1.2818 -0.4084 -1.1731
14776TIP3    H265820   0.318   0.568  14.306 -0.5304 -0.4369  1.4388
14777TIP3   OH265821   0.857   3.177  15.648 -0.3467 -0.8119 -0.3005
14777TIP3    H165822   0.892   3.186  15.737  0.3694  0.4596 -0.7004
14777TIP3    H265823   0.775   3.226  15.650  0.6787  0.9542 -0.8893
14778TIP3   OH265824   6.731   3.620  12.558  0.3172  0.4835 -0.1190
14778TIP3    H165825   6.768   3.607  12.646 -2.4434  0.8034  1.1488
14778TIP3    H265826   6.777   3.696  12.524  2.2118 -0.3045  0.5889
14779TIP3   OH265827   1.238   3.717   2.583  0.0105  0.3021  0.3866
14779TIP3    H165828   1.232   3.706   2.488 -0.0322 -1.3480  0.5576
14779TIP3    H265829   1.150   3.742   2.610 -0.2048 -0.1154  0.0815
14780TIP3   OH265830   2.722   0.844   3.268  0.1624 -0.5522 -0.6225
14780TIP3    H165831   2.764   0.759   3.284 -1.1937 -0.8808  1.3862
14780TIP3    H265832   2.639   0.821   3.226 -0.7141 -0.3350  0.9345
14781TIP3   OH265833   4.297   3.540   6.613 -0.5853  0.5419  0.0818
14781TIP3    H165834   4.371   3.538   6.674 -0.5115  2.5839  0.1168
14781TIP3    H265835   4.246   3.616   6.641 -1.7650  0.1572 -1.0031
14782TIP3   OH265836   4.783   0.137  17.189  0.2638 -0.2759  0.0337
14782TIP3    H165837   4.705   0.145  17.245  0.4740  1.1017  0.1466
14782TIP3    H265838   4.786   0.044  17.165 -1.7983 -0.2176 -0.5279
14783TIP3   OH265839   2.511   2.565  15.197  0.4362  0.5193 -0.3297
14783TIP3    H165840   2.534   2.629  15.265 -3.6257  0.9279  0.7867
14783TIP3    H265841   2.548   2.483  15.229  0.2575  1.0933  1.4203
14784TIP3   OH265842   1.257   5.403   3.683 -0.7634  0.2931 -0.0673
14784TIP3    H165843   1.168   5.390   3.716 -0.8791  0.9729 -0.1167
14784TIP3    H265844   1.313   5.380   3.757 -0.9852  0.1659  0.0625
14785TIP3   OH265845   2.615   6.526   5.463  0.4479 -0.0250  0.1896
14785TIP3    H165846   2.543   6.568   5.415 -1.2053 -0.9057  1.8524
14785TIP3    H265847   2.683   6.593   5.466 -0.9349  1.4285  0.0275
14786TIP3   OH265848   4.585   4.861  16.662 -0.0253  0.2455 -0.0432
14786TIP3    H165849   4.665   4.865  16.611  0.9254  1.2429  1.4725
14786TIP3    H265850   4.609   4.900  16.747 -1.9240 -0.0502  0.6524
14787TIP3   OH265851   5.223   5.609  12.566  0.2288 -0.1173  0.0783
14787TIP3    H165852   5.267   5.670  12.626 -0.9484 -0.2335  1.0673
14787TIP3    H265853   5.158   5.662  12.521 -0.0176 -0.3945  0.1065
14788TIP3   OH265854   3.638   1.501  14.474  0.2774  0.2032 -0.1526
14788TIP3    H165855   3.584   1.533  14.402 -0.5188  1.8305  1.1201
14788TIP3    H265856   3.655   1.579  14.527  0.3973 -1.0385  1.6937
14789TIP3   OH265857   4.554   3.356   1.356 -0.1045 -0.4858  0.6281
14789TIP3    H165858   4.581   3.356   1.448  1.0600  0.3794  0.3021
14789TIP3    H265859   4.505   3.438   1.345  2.2986  0.8898 -0.2105
14790TIP3   OH265860   3.969   4.441   1.007  0.1695 -0.4310  0.5780
14790TIP3    H165861   3.972   4.469   1.098  1.3696 -0.8807  0.6870
14790TIP3    H265862   3.890   4.387   1.001 -0.5991  0.6399  1.0421
14791TIP3   OH265863   1.024   0.885   6.484 -0.6843  0.6064 -0.3408
14791TIP3    H165864   1.092   0.874   6.550 -0.3228 -1.3627 -1.0209
14791TIP3    H265865   1.047   0.966   6.439  1.4260 -0.2027 -0.7807
14792TIP3   OH265866   6.357   4.208  16.564 -0.4666  0.1243  0.6282
14792TIP3    H165867   6.273   4.214  16.610 -1.4412 -1.2763 -0.9005
14792TIP3    H265868   6.404   4.138  16.610 -1.5265 -1.4261 -0.6047
14793TIP3   OH265869   2.822   6.642   4.423  0.2567 -0.4017 -0.4438
14793TIP3    H165870   2.900   6.672   4.468 -0.7223 -1.3142  1.9278
14793TIP3    H265871   2.810   6.704   4.351  1.0383  1.9778  1.4231
14794TIP3   OH265872   4.464   2.522   6.100  0.1402 -0.2071 -0.1478
14794TIP3    H165873   4.555   2.517   6.129 -0.0489  0.6328  0.6238
14794TIP3    H265874   4.417   2.463   6.159  0.0352  0.1274  0.1065
14795TIP3   OH265875   6.424   6.677  10.977  0.1455  0.6510  0.3298
14795TIP3    H165876   6.413   6.661  10.883 -2.1975 -0.8112  0.8314
14795TIP3    H265877   6.399   6.769  10.988  1.4152  1.1293 -0.6154
14796TIP3   OH265878   2.121   3.917   2.162  0.7454  0.0866 -0.7140
14796TIP3    H165879   2.029   3.929   2.138  0.5203  0.1881  0.2117
14796TIP3    H265880   2.146   3.999   2.204  1.1156 -0.1318 -0.5059
14797TIP3   OH265881   2.890   2.428   3.675  0.0575  0.0217  0.4194
14797TIP3    H165882   2.918   2.342   3.705 -0.7075 -1.2501 -2.3541
14797TIP3    H265883   2.924   2.434   3.585 -0.3776  2.3974  0.3720
14798TIP3   OH265884   4.520   1.290  13.655 -0.3025  0.2251 -0.4114
14798TIP3    H165885   4.445   1.342  13.627 -0.4781 -0.5065 -1.3150
14798TIP3    H265886   4.556   1.338  13.729 -1.0884  1.0821 -0.5775
14799TIP3   OH265887   2.567   4.890   5.783  0.4563 -0.2448  0.0882
14799TIP3    H165888   2.601   4.859   5.699  1.3457 -0.4432  0.5169
14799TIP3    H265889   2.490   4.942   5.759  1.2690  0.5327 -0.9314
14800TIP3   OH265890   5.078   1.687  15.199  0.5656 -0.0272 -0.1291
14800TIP3    H165891   5.109   1.597  15.185  0.0558  0.1130 -2.3081
14800TIP3    H265892   4.983   1.680  15.197  0.5235  0.5973 -0.6487
14801TIP3   OH265893   2.036   2.033  16.228  0.3275  0.1791  0.2818
14801TIP3    H165894   1.948   2.068  16.216  0.2714  0.0611  0.3442
14801TIP3    H265895   2.036   1.997  16.316  0.9650  1.6804  0.9066
14802TIP3   OH265896   3.295   3.404   2.275  0.5429  0.2567  0.2412
14802TIP3    H165897   3.304   3.489   2.318 -2.3779 -0.8246  3.2562
14802TIP3    H265898   3.265   3.345   2.344 -1.4323 -2.2995 -2.6182
14803TIP3   OH265899   2.582   4.566  12.063 -0.1844 -0.1064  0.1479
14803TIP3    H165900   2.647   4.627  12.027  0.8963 -0.6074  1.1934
14803TIP3    H265901   2.566   4.597  12.152 -1.3105 -0.0524 -0.0684
14804TIP3   OH265902   6.338   1.581  12.073 -0.5080  0.4204 -0.7830
14804TIP3    H165903   6.309   1.493  12.051 -1.5433  0.1235  1.6172
14804TIP3    H265904   6.428   1.570  12.103 -1.5826 -0.2854  2.3145
14805TIP3   OH265905   2.294   5.948  11.864  0.1884 -0.1208  0.3546
14805TIP3    H165906   2.367   5.896  11.898  0.1961 -1.6190 -1.8229
14805TIP3    H265907   2.235   5.884  11.824 -0.6018  1.3934 -0.9628
14806TIP3   OH265908   4.184   6.459   2.663 -0.2895 -0.0107 -0.5162
14806TIP3    H165909   4.248   6.423   2.601 -0.5722 -0.0070 -0.8133
14806TIP3    H265910   4.150   6.537   2.620 -1.6433 -0.8805 -1.0669
14807TIP3   OH265911   6.168   3.215   4.573 -0.1569  0.8040 -0.1920
14807TIP3    H165912   6.123   3.230   4.489  2.3362  1.8615 -1.3799
14807TIP3    H265913   6.252   3.259   4.564  0.9753 -0.7408  2.1587
14808TIP3   OH265914   3.573   1.328   4.573  0.1468 -0.4737 -0.1600
14808TIP3    H165915   3.575   1.236   4.547  0.6567 -0.5474  0.1324
14808TIP3    H265916   3.618   1.374   4.502  0.9496 -0.5959  0.2598
14809TIP3   OH265917   1.075   1.555   1.598 -0.1828 -0.4759  0.3244
14809TIP3    H165918   1.065   1.612   1.674 -0.6653  0.9395 -0.7633
14809TIP3    H265919   1.132   1.604   1.538 -0.2408 -1.3273 -0.4440
14810TIP3   OH265920   3.171   2.659  14.432 -0.5165  0.4221 -0.3315
14810TIP3    H165921   3.116   2.593  14.390 -2.5290  1.3132  0.8116
14810TIP3    H265922   3.216   2.612  14.502 -1.0939  0.0315 -0.2206
14811TIP3   OH265923   0.469   2.439   5.146 -0.2211  0.1214  0.1905
14811TIP3    H165924   0.503   2.360   5.106 -1.7921 -0.9658  0.9403
14811TIP3    H265925   0.439   2.493   5.073  0.8489  0.0371 -0.3175
14812TIP3   OH265926   3.761   2.880   5.167  0.2090  0.4786  0.3571
14812TIP3    H165927   3.774   2.788   5.146  1.9735  0.5929  0.8995
14812TIP3    H265928   3.700   2.880   5.241 -0.1272 -0.2209  0.0866
14813TIP3   OH265929   0.325   2.776   4.261 -0.2017  1.0152  0.3594
14813TIP3    H165930   0.251   2.719   4.240 -1.5738  1.6971  3.0882
14813TIP3    H265931   0.293   2.865   4.245  0.3760  1.2709  0.6008
14814TIP3   OH265932   5.960   5.635   1.033 -0.1340 -0.1895  0.2676
14814TIP3    H165933   5.999   5.709   0.987 -2.0218  0.8978  0.3862
14814TIP3    H265934   6.014   5.625   1.112  1.4599 -0.3480 -0.8195
14815TIP3   OH265935   0.643   6.244  16.624  1.1655 -0.0515  0.3716
14815TIP3    H165936   0.673   6.323  16.669  0.3225 -0.7482  2.2400
14815TIP3    H265937   0.596   6.195  16.692 -0.5635 -0.9235 -1.4019
14816TIP3   OH265938   5.631   1.816   1.155 -0.4163 -0.5948 -0.3361
14816TIP3    H165939   5.719   1.849   1.171 -0.7068  0.2232 -0.4040
14816TIP3    H265940   5.580   1.894   1.131 -0.9045 -1.2269 -1.3452
14817TIP3   OH265941   0.395   5.863  14.603  0.3423  0.1407  0.0665
14817TIP3    H165942   0.336   5.878  14.677  1.8178 -0.1292  1.3288
14817TIP3    H265943   0.453   5.792  14.632  0.5997 -0.3485 -1.5574
14818TIP3   OH265944   5.372   5.586  11.609 -0.1843  0.3211  0.0350
14818TIP3    H165945   5.397   5.588  11.516 -0.9860  0.4291 -0.1924
14818TIP3    H265946   5.453   5.569  11.656  0.2286  0.2389 -0.6928
14819TIP3   OH265947   0.711   3.202  16.104  0.4227 -0.5567  0.0674
14819TIP3    H165948   0.647   3.156  16.158  0.6926  0.8990  1.6806
14819TIP3    H265949   0.660   3.267  16.056  0.3345 -1.1339 -0.6275
14820TIP3   OH265950   4.375   0.978  15.575  0.0502 -0.0781 -0.5679
14820TIP3    H165951   4.470   0.976  15.589  0.3403  0.5781 -2.2380
14820TIP3    H265952   4.354   1.071  15.567 -0.9601 -0.1570  1.1444
14821TIP3   OH265953   6.141   2.262  16.747 -0.3877 -0.3877  0.6168
14821TIP3    H165954   6.058   2.298  16.717 -1.4795 -1.6592  2.0505
14821TIP3    H265955   6.152   2.296  16.835  0.0688 -1.0922  0.8412
14822TIP3   OH265956   6.445   4.477  13.824  0.0102  0.2403  0.0661
14822TIP3    H165957   6.538   4.485  13.840 -0.2424  0.6353  1.3824
14822TIP3    H265958   6.438   4.446  13.733  1.4425 -0.8450  0.3192
14823TIP3   OH265959   3.330   1.692  12.856  0.1667  0.0840 -0.6366
14823TIP3    H165960   3.406   1.659  12.809  0.5681 -1.7947  1.2391
14823TIP3    H265961   3.363   1.712  12.944 -1.3420 -0.1507  0.0085
14824TIP3   OH265962   2.887   3.209  14.693  0.1849  0.5404 -0.7355
14824TIP3    H165963   2.793   3.191  14.689  0.3632 -0.7884  0.6741
14824TIP3    H265964   2.925   3.129  14.730  1.8476  1.1497 -1.0923
14825TIP3   OH265965   2.701   5.034   0.648  0.4920  0.2247  0.0980
14825TIP3    H165966   2.677   5.104   0.588  1.1858 -0.4224 -0.9560
14825TIP3    H265967   2.638   5.041   0.720  0.0014  1.3548 -0.4307
14826TIP3   OH265968   1.272   2.682  16.250  0.2910 -0.0514 -0.2493
14826TIP3    H165969   1.220   2.615  16.206  1.2360 -1.2336  0.4076
14826TIP3    H265970   1.211   2.727  16.308 -0.2030 -0.7851 -0.2072
14827TIP3   OH265971   3.025   0.148  13.339  0.8781  0.1500 -0.1198
14827TIP3    H165972   2.974   0.192  13.407 -0.5633 -0.4397 -0.7944
14827TIP3    H265973   2.997   0.057  13.342  2.2855 -0.3039 -0.1676
14828TIP3   OH265974   1.651   6.815   5.246  0.0416  0.3024 -0.1345
14828TIP3    H165975   1.651   6.720   5.234 -2.2732  0.1431  0.9256
14828TIP3    H265976   1.731   6.833   5.294  0.8562 -1.0169 -0.9661
14829TIP3   OH265977   6.284   5.430   0.963  0.0855 -0.1912 -0.5093
14829TIP3    H165978   6.336   5.351   0.950 -1.3388 -1.4385  1.2065
14829TIP3    H265979   6.259   5.457   0.874  1.5609 -0.9680 -1.1736
14830TIP3   OH265980   1.813   5.391  12.547 -0.2134  0.8751  0.2139
14830TIP3    H165981   1.719   5.393  12.568 -0.5062 -0.9919 -0.8316
14830TIP3    H265982   1.857   5.393  12.632 -1.2699 -1.0934  0.8291
14831TIP3   OH265983   4.000   6.041  11.108  0.6238 -0.0420  0.4298
14831TIP3    H165984   3.951   6.102  11.053 -0.5228 -0.5977  0.8236
14831TIP3    H265985   3.973   5.954  11.078  2.2233 -0.3698 -0.1087
14832TIP3   OH265986   0.680   6.081   4.431 -0.2572  0.2480 -0.4364
14832TIP3    H165987   0.701   6.163   4.475 -0.0013  0.6100 -1.2195
14832TIP3    H265988   0.597   6.053   4.470 -0.1098  0.6309  0.1645
14833TIP3   OH265989   5.952   2.578  14.456 -1.0098 -0.1911 -0.2248
14833TIP3    H165990   5.971   2.659  14.409  0.9477  0.1608  1.1349
14833TIP3    H265991   5.913   2.607  14.538  2.5079 -0.4240  1.6146
14834TIP3   OH265992   4.973   3.722   2.666 -0.6588 -0.8178 -0.8218
14834TIP3    H165993   4.883   3.691   2.673 -0.5279 -1.6564 -2.4971
14834TIP3    H265994   4.973   3.782   2.591  0.0156 -0.1703 -0.3251
14835TIP3   OH265995   6.602   0.133  15.271 -0.2877 -0.1396 -0.0979
14835TIP3    H165996   6.612   0.041  15.294 -1.1132 -0.0396  0.6565
14835TIP3    H265997   6.624   0.137  15.178  2.6927 -0.6087  0.5173
14836TIP3   OH265998   1.514   1.707   5.517  0.3272  0.3939 -0.1753
14836TIP3    H165999   1.479   1.618   5.527  0.1485  0.1705 -2.5203
14836TIP3    H266000   1.448   1.763   5.558 -0.0198 -0.4823  0.4807
14837TIP3   OH266001   2.401   5.299  13.242  0.0375 -0.1899  0.5654
14837TIP3    H166002   2.397   5.278  13.335  2.0937  0.1894  0.7716
14837TIP3    H266003   2.373   5.219  13.198 -2.5915  0.1511  1.5122
14838TIP3   OH266004   3.329   0.747   4.741  0.0083 -0.1872  0.8527
14838TIP3    H166005   3.345   0.732   4.834  0.5506 -0.7002  0.6813
14838TIP3    H266006   3.370   0.831   4.722  0.0442 -0.1623  1.0444
14839TIP3   OH266007   0.111   1.638   0.947  0.0824 -0.0163 -0.0010
14839TIP3    H166008   0.080   1.548   0.936  1.4902 -0.5174  0.0456
14839TIP3    H266009   0.143   1.663   0.860  0.5718  0.1017  0.2152
14840TIP3   OH266010   0.293   3.719   5.037 -0.1532 -0.2793 -0.2736
14840TIP3    H166011   0.280   3.634   5.081  1.0616 -0.0877  0.4848
14840TIP3    H266012   0.215   3.769   5.058 -0.6258 -1.0193 -0.2488
14841TIP3   OH266013   1.920   5.910  16.073  0.3366 -0.2694 -0.3538
14841TIP3    H166014   1.903   5.990  16.023  2.6964 -0.0667 -0.8787
14841TIP3    H266015   1.963   5.852  16.010  2.3343 -0.4334  1.1510
14842TIP3   OH266016   6.512   2.012   6.687 -0.3934  0.3686 -0.0170
14842TIP3    H166017   6.513   1.925   6.725  0.3115 -0.0310 -0.9290
14842TIP3    H266018   6.551   2.068   6.754 -1.5212  0.1075  0.8533
14843TIP3   OH266019   5.983   0.207  14.771 -0.1610 -0.2679 -0.6196
14843TIP3    H166020   6.076   0.189  14.786  0.1145  0.5488 -1.2890
14843TIP3    H266021   5.967   0.177  14.682 -1.2655 -3.1016  0.4950
14844TIP3   OH266022   0.562   1.020  14.487 -0.0922 -0.7075  0.6588
14844TIP3    H166023   0.615   1.057  14.416 -1.0336  0.1971  0.4191
14844TIP3    H266024   0.617   1.030  14.565 -0.0605  0.6213  0.4890
14845TIP3   OH266025   4.615   3.240  13.021  0.5222 -0.3040  0.1779
14845TIP3    H166026   4.535   3.293  13.023  1.3629  0.9479  0.6378
14845TIP3    H266027   4.685   3.302  13.000  1.4808 -1.2761  0.4683
14846TIP3   OH266028   4.078   5.047  15.029 -0.4605 -0.6186  0.3625
14846TIP3    H166029   4.065   5.080  14.941 -1.2439 -1.7586  0.0481
14846TIP3    H266030   4.030   4.965  15.032  0.3681 -1.0803  1.5452
14847TIP3   OH266031   0.794   6.449  11.705  0.0091 -0.0629  0.2723
14847TIP3    H166032   0.744   6.489  11.776 -1.8521 -0.4721 -0.7719
14847TIP3    H266033   0.885   6.456  11.733 -0.7105 -0.5624  2.8576
14848TIP3   OH266034   4.783   3.978  10.911 -0.4838  0.3477 -0.2880
14848TIP3    H166035   4.753   4.038  10.980  0.2860  0.9998 -0.5172
14848TIP3    H266036   4.877   3.993  10.906 -0.2326 -1.1145 -0.1315
14849TIP3   OH266037   5.216   4.961  16.986 -0.5217 -0.1301 -0.6603
14849TIP3    H166038   5.203   4.883  17.040 -1.3136  0.9604  0.7336
14849TIP3    H266039   5.138   4.965  16.930 -2.3261  1.7389  1.8905
14850TIP3   OH266040   5.063   4.488  13.428  0.3747  0.3875 -0.2238
14850TIP3    H166041   5.121   4.446  13.492  0.4938 -1.3047 -1.4104
14850TIP3    H266042   5.120   4.511  13.355 -0.5313 -2.1452 -1.8089
14851TIP3   OH266043   1.899   1.467   3.699 -0.8459  0.1404 -0.0006
14851TIP3    H166044   1.831   1.518   3.742 -1.2099 -0.9195  0.7070
14851TIP3    H266045   1.857   1.384   3.678 -0.3895  0.2912 -1.5532
14852TIP3   OH266046   0.176   1.870   6.200  0.5667  0.2114 -0.0383
14852TIP3    H166047   0.148   1.826   6.120 -0.6831  1.5385 -0.3444
14852TIP3    H266048   0.167   1.804   6.269 -1.3012 -0.0297 -0.4881
14853TIP3   OH266049   3.680   1.052  14.269 -0.0865 -0.1339 -0.0825
14853TIP3    H166050   3.707   1.022  14.355 -0.3931 -2.6485 -0.8229
14853TIP3    H266051   3.727   0.996  14.207 -1.4843  0.1962 -1.5095
14854TIP3   OH266052   5.011   1.345  14.093 -0.1253  0.1508 -0.0758
14854TIP3    H166053   4.973   1.411  14.035  1.7948  1.2903 -0.0624
14854TIP3    H266054   5.047   1.279  14.034  0.2643  0.4199 -0.1368
14855TIP3   OH266055   2.992   3.500   3.317  0.8283  0.0814 -0.1517
14855TIP3    H166056   3.061   3.454   3.366  0.0839  0.9427  1.7746
14855TIP3    H266057   3.029   3.586   3.298  0.7991  0.0574 -0.3113
14856TIP3   OH266058   2.733   5.194  14.104 -0.5998  1.1101  0.1787
14856TIP3    H166059   2.828   5.208  14.106 -0.4388 -0.0322  1.5808
14856TIP3    H266060   2.702   5.249  14.032  1.1433  1.4033 -0.3768
14857TIP3   OH266061   5.793   1.931  15.952  0.1932 -0.0107  0.1380
14857TIP3    H166062   5.836   1.973  16.027 -1.1603 -0.8551  1.4320
14857TIP3    H266063   5.714   1.891  15.990 -0.5443 -0.4029 -1.7636
14858TIP3   OH266064   2.032   0.025   2.218 -0.2788 -0.1327  0.7311
14858TIP3    H166065   2.073  -0.044   2.165 -1.4342  0.1626 -0.5645
14858TIP3    H266066   2.081   0.104   2.196 -2.2249  0.4479 -1.6959
14859TIP3   OH266067   0.170   0.928   4.086  0.1270  0.3268  0.0896
14859TIP3    H166068   0.143   1.011   4.125 -0.1747 -0.3792  1.4085
14859TIP3    H266069   0.263   0.921   4.107  0.0974  0.2154  0.1816
14860TIP3   OH266070   4.985   0.943  10.943 -0.0803  0.0544 -0.0783
14860TIP3    H166071   4.918   0.926  11.010  0.2450 -0.2541  0.1659
14860TIP3    H266072   5.022   1.028  10.968 -1.4756  0.9926 -1.1147
14861TIP3   OH266073   2.510   2.892  11.503  0.3543 -0.5618 -0.2022
14861TIP3    H166074   2.579   2.836  11.468  1.7208  1.4421 -0.8199
14861TIP3    H266075   2.539   2.981  11.482 -1.0199  0.4671  2.0665
14862TIP3   OH266076   5.909   2.219  12.502  0.1100 -0.0637  0.6034
14862TIP3    H166077   5.908   2.173  12.418  1.4269 -0.4621  0.7954
14862TIP3    H266078   5.883   2.153  12.566  0.0710 -0.0174  0.6356
14863TIP3   OH266079   5.069   1.506   4.623 -0.0574 -0.9804 -0.0256
14863TIP3    H166080   5.140   1.479   4.566  1.1699 -1.8493  1.8721
14863TIP3    H266081   4.991   1.462   4.588  0.8053 -2.0628 -0.5928
14864TIP3   OH266082   0.033   4.852  13.611 -0.4124 -0.2994  0.4457
14864TIP3    H166083   0.119   4.842  13.569 -1.6128 -1.1720 -1.8728
14864TIP3    H266084   0.018   4.946  13.614  0.5535 -0.1494  0.7549
14865TIP3   OH266085   2.218   3.402   2.106  0.0644 -0.3513  0.2432
14865TIP3    H166086   2.175   3.336   2.160  0.1881  0.1865  1.0253
14865TIP3    H266087   2.311   3.378   2.108  0.1399 -0.0317  0.7150
14866TIP3   OH266088   4.979   0.432  11.737  0.2738 -0.1881 -0.0385
14866TIP3    H166089   4.990   0.500  11.671  0.7222  0.9231  1.1636
14866TIP3    H266090   4.904   0.381  11.706  0.8607 -0.0673 -1.7152
14867TIP3   OH266091   5.395   6.202  15.671  0.1847 -0.5734  0.1408
14867TIP3    H166092   5.468   6.247  15.713 -1.3248  1.3029  0.8082
14867TIP3    H266093   5.343   6.168  15.743 -2.0804  2.1185 -0.1207
14868TIP3   OH266094   5.525   3.744  12.550 -0.0566  0.4568 -0.0395
14868TIP3    H166095   5.512   3.738  12.645  0.3168 -0.4356 -0.0425
14868TIP3    H266096   5.546   3.836  12.535  1.6470  0.2497  0.9577
14869TIP3   OH266097   6.583   6.678  14.288 -0.7927 -0.3925  0.4045
14869TIP3    H166098   6.585   6.585  14.309  0.2675 -0.2982  0.7326
14869TIP3    H266099   6.673   6.700  14.266 -0.7373  0.9132  1.8778
14870TIP3   OH266100   4.312   6.482  16.091  0.0605  0.2537 -0.0446
14870TIP3    H166101   4.284   6.448  16.006 -1.5036  0.0689  0.5158
14870TIP3    H266102   4.260   6.562  16.103 -1.8657 -1.2281  1.9623
14871TIP3   OH266103   2.419   4.211   3.465 -0.3913  0.2508  0.4138
14871TIP3    H166104   2.502   4.258   3.458 -0.3468  0.0117 -0.6437
14871TIP3    H266105   2.363   4.249   3.397 -0.9198 -0.0719  0.6580
14872TIP3   OH266106   5.688   5.264  15.756  0.0102 -0.4176 -0.4022
14872TIP3    H166107   5.616   5.236  15.699 -1.9355  2.0176  0.7663
14872TIP3    H266108   5.708   5.186  15.808 -2.6436 -0.8227  0.1206
14873TIP3   OH266109   4.864   5.892  14.897  0.3835  0.5843  0.5263
14873TIP3    H166110   4.917   5.814  14.883  0.3109  0.5638  0.3682
14873TIP3    H266111   4.852   5.896  14.992 -0.8133 -0.3871  0.4181
14874TIP3   OH266112   6.330   5.709  13.221  0.2991 -0.3472  0.1086
14874TIP3    H166113   6.314   5.623  13.183 -0.4947 -0.0612 -0.2298
14874TIP3    H266114   6.248   5.730  13.268 -0.0746  0.8492 -1.0460
14875TIP3   OH266115   1.086   5.784  17.077  0.1040 -0.0244 -0.0841
14875TIP3    H166116   1.129   5.805  17.160  0.1182 -2.9756  0.7123
14875TIP3    H266117   1.027   5.712  17.099 -1.1845  0.3350 -2.2976
14876TIP3   OH266118   5.808   1.551  17.115  1.2354 -0.0974  0.2941
14876TIP3    H166119   5.796   1.601  17.034 -0.1624  0.4527  0.8271
14876TIP3    H266120   5.790   1.460  17.090 -1.7219  0.3809  0.5010
14877TIP3   OH266121   2.574   5.999  12.707 -0.1601 -0.2793  0.2390
14877TIP3    H166122   2.633   5.986  12.781  0.3626  1.5818  0.1792
14877TIP3    H266123   2.614   6.070  12.656 -1.2789 -0.5333 -1.0309
14878TIP3   OH266124   2.619   6.216  15.874  0.2325 -0.2482  0.1253
14878TIP3    H166125   2.638   6.171  15.956  0.6997 -0.6579 -0.2072
14878TIP3    H266126   2.705   6.239  15.839  0.0837 -1.1007 -0.8229
14879TIP3   OH266127   4.682   3.877  11.871 -0.1757  0.1120 -0.5536
14879TIP3    H166128   4.712   3.964  11.897 -1.1015 -0.0634  1.1439
14879TIP3    H266129   4.742   3.817  11.914 -0.3652 -0.1211 -0.6172
14880TIP3   OH266130   1.685   2.107   3.505 -0.1278  0.5491  0.2487
14880TIP3    H166131   1.759   2.167   3.517  0.8666 -0.3110 -1.3712
14880TIP3    H266132   1.642   2.137   3.425 -0.7424  0.2357  0.4565
14881TIP3   OH266133   3.272   1.937   2.639 -0.1127 -1.4173  0.3757
14881TIP3    H166134   3.307   1.903   2.557 -0.0151 -1.1529  0.3070
14881TIP3    H266135   3.264   2.031   2.624 -0.0097 -1.3576  0.7016
14882TIP3   OH266136   0.263   1.723  13.980 -0.4572 -0.6400  0.1291
14882TIP3    H166137   0.261   1.784  13.907 -1.5830  0.9384  1.4620
14882TIP3    H266138   0.172   1.699  13.995 -0.4337  0.3085  2.0177
14883TIP3   OH266139   1.676   2.016  15.020  0.3062 -0.3118 -0.9572
14883TIP3    H166140   1.661   2.094  15.073  2.8021  1.4760 -2.7360
14883TIP3    H266141   1.604   2.015  14.957 -0.0679  0.2259 -0.5368
14884TIP3   OH266142   2.064   6.113  15.252  0.3237 -0.3558 -0.7037
14884TIP3    H166143   2.023   6.180  15.197 -0.2688 -1.3090 -1.4542
14884TIP3    H266144   1.992   6.079  15.306  0.3272 -1.3128 -1.2870
14885TIP3   OH266145   3.907   3.251   4.840  0.6474  0.4217 -0.0255
14885TIP3    H166146   3.943   3.231   4.926  0.5354 -0.1129 -0.1034
14885TIP3    H266147   3.982   3.243   4.781  0.2854 -1.3748 -0.2877
14886TIP3   OH266148   6.434   4.200   4.489 -0.1478 -0.3384 -0.2722
14886TIP3    H166149   6.496   4.174   4.557  0.5229 -2.5123 -1.6635
14886TIP3    H266150   6.348   4.194   4.531  0.2073 -2.2671  0.2430
14887TIP3   OH266151   6.539   1.248  13.423  0.2774  0.0449 -0.5823
14887TIP3    H166152   6.464   1.305  13.410  0.2077  0.6650  2.0815
14887TIP3    H266153   6.613   1.295  13.384 -0.1837  0.9133 -0.4143
14888TIP3   OH266154   4.999   5.056  12.321  0.3198  0.5733  0.4915
14888TIP3    H166155   4.928   5.022  12.376 -1.1430  2.6796 -0.0473
14888TIP3    H266156   4.992   5.008  12.239 -1.1971  1.5276  0.0480
14889TIP3   OH266157   3.625   5.020  13.724 -0.5777  0.2143 -0.6093
14889TIP3    H166158   3.699   5.040  13.666  1.3010  2.1260  2.3148
14889TIP3    H266159   3.569   4.963  13.672  2.1834 -0.0395 -3.4795
14890TIP3   OH266160   3.957   4.246  12.317 -0.0002 -0.3300  0.1062
14890TIP3    H166161   4.005   4.220  12.396  0.2854 -0.7628 -0.2110
14890TIP3    H266162   3.982   4.181  12.251  1.7994  1.4929 -1.0776
14891TIP3   OH266163   0.641   6.418  14.108  0.6073  0.4126  0.0690
14891TIP3    H166164   0.588   6.342  14.130  0.1417  0.9536  0.8663
14891TIP3    H266165   0.715   6.414  14.168 -0.2812  1.4829  1.2761
14892TIP3   OH266166   5.421   4.938  11.980 -0.5641  0.1209  0.2246
14892TIP3    H166167   5.353   4.937  11.913  1.4185  0.5586 -1.8337
14892TIP3    H266168   5.469   4.856  11.967  0.9780  1.0612 -0.0876
14893TIP3   OH266169   3.251   1.641   0.024  0.3270 -0.5543  0.0035
14893TIP3    H166170   3.289   1.603   0.104  1.8938 -2.9094 -1.7946
14893TIP3    H266171   3.206   1.568  -0.018 -1.2827  0.8848 -0.8496
14894TIP3   OH266172   5.455   4.560   0.255  0.1730  0.3739 -0.3180
14894TIP3    H166173   5.529   4.553   0.195  3.2519  2.5808  2.9514
14894TIP3    H266174   5.410   4.640   0.229  0.8258  0.7071 -0.4362
14895TIP3   OH266175   1.058   4.743  14.625  0.0329  0.1975  0.4634
14895TIP3    H166176   1.137   4.690  14.617 -2.3918 -3.6370  0.5465
14895TIP3    H266177   1.049   4.759  14.719  1.0828  1.2490  0.3848
14896TIP3   OH266178   0.115   0.745   1.929 -0.2371  0.1461  0.1247
14896TIP3    H166179   0.118   0.837   1.902 -0.1083  0.0794 -0.0956
14896TIP3    H266180   0.126   0.696   1.847 -0.5172 -0.0665  0.2118
14897TIP3   OH266181   1.534   4.812   6.032 -0.5340  0.1979 -0.1940
14897TIP3    H166182   1.559   4.721   6.046  1.0370  0.6545  0.1019
14897TIP3    H266183   1.613   4.862   6.054 -1.8510  1.7320  1.1947
14898TIP3   OH266184   5.055   5.678  12.363  0.2105  0.2205 -0.0421
14898TIP3    H166185   4.977   5.639  12.323  0.6431  1.2940 -1.9660
14898TIP3    H266186   5.096   5.728  12.293  1.2339  1.7909  1.6411
14899TIP3   OH266187   2.554   6.431   6.337 -0.0901  0.0114  0.2610
14899TIP3    H166188   2.498   6.430   6.415  2.3293  0.0025  2.0531
14899TIP3    H266189   2.562   6.524   6.314 -1.4498 -0.0408 -0.4982
14900TIP3   OH266190   4.263   5.942   3.989 -0.0252 -0.6651 -1.2193
14900TIP3    H166191   4.294   5.851   3.987  0.2734 -0.6157  0.4709
14900TIP3    H266192   4.340   5.994   3.967  0.3459 -0.7152 -0.0838
14901TIP3   OH266193   0.180   1.433   2.170  0.4958 -0.3455 -0.0471
14901TIP3    H166194   0.109   1.394   2.120  0.1643  0.4139 -0.1766
14901TIP3    H266195   0.153   1.423   2.262  1.2851 -2.0816  0.0036
14902TIP3   OH266196   1.488   3.481  11.508  0.3910  0.0789 -0.3946
14902TIP3    H166197   1.558   3.511  11.451 -0.3055 -0.9923 -1.8392
14902TIP3    H266198   1.461   3.560  11.556  2.7078  0.4491  0.3724
14903TIP3   OH266199   5.538   3.692  13.550  0.5003 -0.1548 -0.2870
14903TIP3    H166200   5.514   3.707  13.459  0.9560 -1.7667 -0.6764
14903TIP3    H266201   5.535   3.780  13.590  1.6653  0.7704 -2.1634
14904TIP3   OH266202   4.681   1.774   5.586 -0.1045 -0.0608 -0.1171
14904TIP3    H166203   4.774   1.795   5.585  0.0310 -0.6797 -0.6285
14904TIP3    H266204   4.650   1.804   5.672 -0.5091  4.7593 -1.7987
14905TIP3   OH266205   3.939   2.052  13.094  0.1855  0.3885  0.2892
14905TIP3    H166206   3.887   2.099  13.029  0.4740  0.7715  0.3279
14905TIP3    H266207   3.901   2.076  13.179 -1.1140 -1.2658  0.1972
14906TIP3   OH266208   1.926   3.590  12.788 -0.1149  0.6551 -0.2528
14906TIP3    H166209   1.935   3.549  12.702 -0.6372  2.4067 -1.1647
14906TIP3    H266210   1.967   3.676  12.779  1.3387  0.2309  1.7549
14907TIP3   OH266211   4.639   2.780  16.392  0.1674  0.1580  0.0864
14907TIP3    H166212   4.699   2.855  16.402 -1.6747  1.6761 -0.0495
14907TIP3    H266213   4.595   2.774  16.477 -0.6165  0.0276 -0.3319
14908TIP3   OH266214   1.599   3.555  11.776 -0.4803 -0.1149  0.5411
14908TIP3    H166215   1.642   3.637  11.750 -0.8458  0.2938  1.2287
14908TIP3    H266216   1.517   3.555  11.728  0.2409 -0.8660 -0.7246
14909TIP3   OH266217   3.922   5.576   4.653  0.3530 -0.1882  0.5026
14909TIP3    H166218   4.013   5.589   4.626  0.1987 -1.2993 -0.6132
14909TIP3    H266219   3.880   5.661   4.636  0.3561 -0.7166 -2.5226
14910TIP3   OH266220   5.767   4.073  10.866 -0.5690  0.4885  0.3695
14910TIP3    H166221   5.683   4.032  10.846 -1.2383  2.3815 -0.7626
14910TIP3    H266222   5.808   4.087  10.780  0.0929  1.2699  0.8022
14911TIP3   OH266223   1.776   2.215   1.756  0.1420 -0.4927  0.0539
14911TIP3    H166224   1.731   2.268   1.689  0.5041 -0.8280 -0.4567
14911TIP3    H266225   1.735   2.241   1.838  0.9055  1.2458 -0.0811
14912TIP3   OH266226   3.962   1.988   2.975 -0.1366 -0.0424  0.0962
14912TIP3    H166227   3.961   1.954   3.064  2.0769  0.4194  0.3473
14912TIP3    H266228   4.050   1.966   2.943 -0.8188  0.0338 -1.8726
14913TIP3   OH266229   4.969   2.596   0.260 -0.0588  0.5356  0.4782
14913TIP3    H166230   5.043   2.612   0.319  0.5904  0.2137 -0.2370
14913TIP3    H266231   4.921   2.678   0.258  1.2521  1.2864 -0.4050
14914TIP3   OH266232   4.874   2.766   3.162 -0.2871  0.1974  0.0226
14914TIP3    H166233   4.824   2.688   3.139 -0.4448  0.6545 -1.2202
14914TIP3    H266234   4.931   2.781   3.087  0.7136  0.4973  0.8331
14915TIP3   OH266235   4.851   2.626  16.626  0.0191 -0.0619  0.3117
14915TIP3    H166236   4.921   2.569  16.658  0.1602  0.1916  0.4614
14915TIP3    H266237   4.873   2.712  16.662  1.6132  0.8043 -2.5738
14916TIP3   OH266238   2.576   3.164   5.790 -0.2035 -0.2554 -0.1110
14916TIP3    H166239   2.491   3.207   5.796  0.1987  0.9077 -2.2240
14916TIP3    H266240   2.612   3.193   5.706  1.8473 -1.5234  0.2847
14917TIP3   OH266241   6.796   0.156  17.184 -0.8841  0.1988 -0.2184
14917TIP3    H166242   6.862   0.097  17.149 -1.0899  1.5828 -3.0871
14917TIP3    H266243   6.804   0.148  17.279  0.0131 -3.3586 -0.5358
14918TIP3   OH266244   4.448   6.178  16.465  0.8098 -0.1923 -0.3635
14918TIP3    H166245   4.375   6.212  16.415  0.9147  1.6050  0.6563
14918TIP3    H266246   4.523   6.182  16.405  0.9128  1.8228 -0.1196
14919TIP3   OH266247   4.314   3.672  12.447  0.3853  0.4117 -0.0734
14919TIP3    H166248   4.346   3.664  12.357  1.9585  0.3019  0.4651
14919TIP3    H266249   4.247   3.604  12.456  0.7074 -0.0236 -0.9587
14920TIP3   OH266250   2.349   6.549   1.715  0.1371 -0.0536 -0.4577
14920TIP3    H166251   2.367   6.608   1.788  0.7756 -0.5650 -0.1942
14920TIP3    H266252   2.363   6.462   1.752  1.0377 -0.2942 -1.3446
14921TIP3   OH266253   3.088   0.433   3.187  0.0958  0.1961 -0.7130
14921TIP3    H166254   3.073   0.379   3.265  0.4658 -1.4652 -1.7629
14921TIP3    H266255   3.175   0.470   3.200 -0.9386  2.1549  0.9247
14922TIP3   OH266256   2.240   2.850   4.902  0.1951  0.4112  0.5374
14922TIP3    H166257   2.211   2.828   4.814 -0.9257 -0.7287  1.1743
14922TIP3    H266258   2.302   2.922   4.890  0.1065  0.2133 -1.1776
14923TIP3   OH266259   6.446   6.733  15.508  0.7102 -0.4198 -0.3661
14923TIP3    H166260   6.433   6.640  15.524 -2.8724  0.2592  1.1455
14923TIP3    H266261   6.417   6.748  15.418  0.1074 -0.5668 -0.1961
14924TIP3   OH266262   5.829   6.299  16.384 -0.1187  0.8046  0.0702
14924TIP3    H166263   5.832   6.337  16.471  0.1609 -1.4973  1.0929
14924TIP3    H266264   5.888   6.353  16.332  0.8143  1.3333  1.6493
14925TIP3   OH266265   6.626   1.261  14.421 -0.1518 -0.2261 -0.4549
14925TIP3    H166266   6.678   1.341  14.430 -0.8683  0.6143 -3.2062
14925TIP3    H266267   6.644   1.211  14.501  1.6226  1.9072  0.5344
14926TIP3   OH266268   1.512   2.133   3.276  0.1715  0.1932 -0.4462
14926TIP3    H166269   1.581   2.103   3.217  1.4911  0.9850  0.6824
14926TIP3    H266270   1.450   2.060   3.279  1.4232 -0.9002 -0.7260
14927TIP3   OH266271   1.845   2.282   4.053 -0.6007 -0.2391 -0.3309
14927TIP3    H166272   1.758   2.314   4.027 -1.1985 -1.8375 -0.3997
14927TIP3    H266273   1.884   2.354   4.102 -1.2288  1.1872 -1.8852
14928TIP3   OH266274   4.694   6.688  14.445 -0.1078  0.2626  0.2466
14928TIP3    H166275   4.759   6.754  14.468  1.4094 -1.0781 -0.1319
14928TIP3    H266276   4.661   6.656  14.530 -0.7099  1.3680  0.4315
14929TIP3   OH266277   2.927   3.422   5.747  1.0291  0.0212  0.2887
14929TIP3    H166278   2.970   3.399   5.665  2.4706  1.7437  0.5464
14929TIP3    H266279   2.977   3.378   5.815  0.3374 -0.7248  0.3242
14930TIP3   OH266280   2.218   3.850  13.639  0.1957 -0.3969 -0.0511
14930TIP3    H166281   2.175   3.851  13.553  0.4755  2.2693 -0.1971
14930TIP3    H266282   2.146   3.860  13.701  0.1355 -0.9248 -0.0308
14931TIP3   OH266283   2.375   0.795   0.422  0.0136  0.1820 -0.6945
14931TIP3    H166284   2.450   0.750   0.384  0.9817  1.8352 -0.7453
14931TIP3    H266285   2.366   0.757   0.510  0.7771 -0.1386 -0.7568
14932TIP3   OH266286   4.554   2.975   3.312  0.5653 -0.6125 -0.4195
14932TIP3    H166287   4.483   3.039   3.308 -0.3987 -1.5969  0.4632
14932TIP3    H266288   4.584   2.968   3.221  0.8262  1.2237 -0.4865
14933TIP3   OH266289   1.774   0.499  13.390 -0.0291  0.3545  0.7110
14933TIP3    H166290   1.727   0.430  13.436  2.6914 -1.0150  1.4951
14933TIP3    H266291   1.759   0.479  13.297  0.1619 -0.8722  0.9339
14934TIP3   OH266292   2.672   0.957   2.201 -0.4454  0.2868  0.1488
14934TIP3    H166293   2.658   0.981   2.293 -0.0168 -0.0526  0.3032
14934TIP3    H266294   2.596   0.994   2.155 -2.6044 -2.6986  1.1678
14935TIP3   OH266295   0.822   2.357  16.001 -0.2824  0.6457 -0.1649
14935TIP3    H166296   0.811   2.429  15.939  1.3154  0.5587 -0.5678
14935TIP3    H266297   0.744   2.360  16.056 -0.1384  2.8038 -0.0530
14936TIP3   OH266298   3.358   5.711  12.008  0.5101 -0.0058 -0.3601
14936TIP3    H166299   3.341   5.618  11.996  1.6171 -0.4247  1.0936
14936TIP3    H266300   3.406   5.737  11.929  1.4813 -1.0284 -0.1295
14937TIP3   OH266301   1.825   1.326  15.584 -0.0565 -0.8084  0.6172
14937TIP3    H166302   1.870   1.367  15.510  0.7779 -3.2345 -0.2548
14937TIP3    H266303   1.732   1.335  15.562  0.0835  0.8497  0.5973
14938TIP3   OH266304   2.036   1.615   0.644 -0.1767  0.0259 -0.3097
14938TIP3    H166305   1.943   1.610   0.622 -0.0960  1.8633 -1.1071
14938TIP3    H266306   2.040   1.588   0.736 -1.4007 -0.8055 -0.4968
14939TIP3   OH266307   6.279   5.603  11.429 -0.2441  0.2778  0.0384
14939TIP3    H166308   6.237   5.683  11.461 -0.5923  0.6895 -1.4051
14939TIP3    H266309   6.300   5.622  11.338 -0.9532 -1.5207 -0.5212
14940TIP3   OH266310   1.811   6.151  14.367  0.5407 -0.3790  0.1530
14940TIP3    H166311   1.899   6.116  14.360  0.7062  0.3569 -1.6947
14940TIP3    H266312   1.764   6.116  14.291 -0.5975 -0.2886  0.7904
14941TIP3   OH266313   6.607   1.031  16.091  0.5669 -0.1492  0.6075
14941TIP3    H166314   6.633   1.061  16.178  0.9697  1.1105  0.0589
14941TIP3    H266315   6.596   0.936  16.101  0.7902 -0.0406  1.9814
14942TIP3   OH266316   5.611   5.152  11.789 -0.3477  0.5101  0.0883
14942TIP3    H166317   5.672   5.225  11.791 -1.0212  1.0432  1.2750
14942TIP3    H266318   5.587   5.137  11.880 -1.0896 -0.4618 -0.2492
14943TIP3   OH266319   1.815   3.920  14.076 -0.1951 -0.1958 -0.1124
14943TIP3    H166320   1.755   3.911  14.151 -0.3046 -1.7097 -0.3519
14943TIP3    H266321   1.842   4.012  14.077 -0.9156  0.0159  1.2355
14944TIP3   OH266322   5.360   0.018  17.155 -0.3707  0.0698 -0.3055
14944TIP3    H166323   5.318  -0.002  17.071 -1.7444  0.8244  0.1861
14944TIP3    H266324   5.451  -0.007  17.142 -0.4134  0.8071 -2.2620
14945TIP3   OH266325   5.128   4.164   0.276 -0.1046 -0.2007 -0.3909
14945TIP3    H166326   5.170   4.177   0.361 -0.3146  1.7540 -0.5591
14945TIP3    H266327   5.047   4.117   0.295 -0.3994  0.6777  0.5679
14946TIP3   OH266328   6.816   4.551   4.941  0.3536 -0.4777  0.4369
14946TIP3    H166329   6.756   4.497   4.888  0.5929 -0.8708  0.5636
14946TIP3    H266330   6.829   4.630   4.889  0.5333 -0.8330 -0.0647
14947TIP3   OH266331   2.436   4.207  15.976  0.4570 -0.0282  0.2057
14947TIP3    H166332   2.504   4.229  16.040  1.8322 -0.6826 -0.9945
14947TIP3    H266333   2.390   4.132  16.015  0.0201  0.7870  1.2960
14948TIP3   OH266334   1.956   5.251  12.134 -0.1929 -0.2239 -0.0225
14948TIP3    H166335   2.003   5.287  12.209 -0.6907  0.6912 -0.1481
14948TIP3    H266336   1.880   5.207  12.172 -1.7294  2.2432 -0.1242
14949TIP3   OH266337   3.619   6.382   3.249  0.1828 -0.3150 -0.2290
14949TIP3    H166338   3.700   6.371   3.199  1.2684  0.4266  1.3018
14949TIP3    H266339   3.593   6.293   3.273 -0.1638 -0.6447 -1.8099
14950TIP3   OH266340   0.539   1.565  16.293  0.3261  0.0063  1.1169
14950TIP3    H166341   0.577   1.483  16.262  1.0461  1.0775 -0.8942
14950TIP3    H266342   0.448   1.563  16.263  0.8287  0.7211 -0.5008
14951TIP3   OH266343   0.473   3.343  12.993  0.0442  0.2950 -0.2914
14951TIP3    H166344   0.547   3.283  13.000 -0.6584 -1.0454 -3.3034
14951TIP3    H266345   0.398   3.285  12.979 -1.0604  1.7785 -0.5566
14952TIP3   OH266346   4.411   3.562  17.009 -0.3974 -0.2035  0.0045
14952TIP3    H166347   4.370   3.642  17.043  0.0619  0.3784 -0.7935
14952TIP3    H266348   4.483   3.593  16.954  0.9333 -1.1980  1.1173
14953TIP3   OH266349   5.779   5.382  15.367 -0.3023  0.5197  0.4256
14953TIP3    H166350   5.841   5.383  15.439  0.1943  0.9945 -0.0011
14953TIP3    H266351   5.782   5.471  15.331 -2.4830  1.0399  1.4550
14954TIP3   OH266352   0.108   4.689  15.801  0.0435 -0.4963 -0.3202
14954TIP3    H166353   0.062   4.634  15.736  0.4317 -0.5082 -0.5838
14954TIP3    H266354   0.164   4.628  15.848  0.3489 -0.3552 -0.4998
14955TIP3   OH266355   5.719   0.383   3.837  0.2014 -0.9741  0.3864
14955TIP3    H166356   5.813   0.399   3.829  0.2939 -1.9151 -0.5295
14955TIP3    H266357   5.709   0.336   3.919  0.5632 -1.0593  0.3835
14956TIP3   OH266358   4.066   6.548  17.272  0.1095  0.6510  0.3582
14956TIP3    H166359   4.127   6.536  17.199  1.0391  2.0709  0.8685
14956TIP3    H266360   4.094   6.630  17.313 -2.6221  1.7510  0.1502
14957TIP3   OH266361   6.361   3.952   0.246  0.4085 -0.1316 -0.2077
14957TIP3    H166362   6.397   3.929   0.160 -0.0184  2.0298 -0.9895
14957TIP3    H266363   6.330   3.869   0.282  2.6798 -1.4407 -1.1379
14958TIP3   OH266364   0.330   2.513  16.482  0.0724 -0.7853 -0.8039
14958TIP3    H166365   0.262   2.463  16.436  0.6160 -1.7389 -0.5618
14958TIP3    H266366   0.359   2.578  16.418 -1.7133  0.2296 -0.6160
14959TIP3   OH266367   3.100   4.802   2.602  0.4908 -0.0427  0.2302
14959TIP3    H166368   3.102   4.778   2.509 -1.1637  0.0796  0.1482
14959TIP3    H266369   3.104   4.719   2.649 -0.2046 -0.1950  0.0225
14960TIP3   OH266370   1.867   4.327  11.339  0.0080 -0.4660  0.5083
14960TIP3    H166371   1.816   4.388  11.286  1.0982 -0.4804 -0.5582
14960TIP3    H266372   1.947   4.312  11.289  0.2815 -1.8358  1.3328
14961TIP3   OH266373   5.375   0.910   0.897  0.1118  0.7081  0.0151
14961TIP3    H166374   5.281   0.894   0.894  0.5263 -1.8248 -1.1245
14961TIP3    H266375   5.388   0.988   0.844 -1.1728  0.0772 -1.2591
14962TIP3   OH266376   1.192   3.477  12.453 -0.0373  0.4823  0.0972
14962TIP3    H166377   1.189   3.534  12.529  1.1079  1.1404 -0.3395
14962TIP3    H266378   1.282   3.486  12.419 -1.0067  1.4972 -2.2999
14963TIP3   OH266379   6.539   2.321  12.373  0.3315  0.1124 -0.2082
14963TIP3    H166380   6.594   2.399  12.369 -0.7531  0.7862 -3.1592
14963TIP3    H266381   6.588   2.253  12.328  0.9993 -0.8046  1.8146
14964TIP3   OH266382   0.387   0.247   5.205  0.1249  0.1526  0.1878
14964TIP3    H166383   0.373   0.292   5.122 -0.9561  0.2513  0.4136
14964TIP3    H266384   0.371   0.313   5.272  0.9291  0.0579  0.4796
14965TIP3   OH266385   5.207   5.330   5.501  0.2192  0.0481  0.4572
14965TIP3    H166386   5.151   5.390   5.550  0.4394  2.2724 -1.8887
14965TIP3    H266387   5.146   5.280   5.446  0.1972 -0.5226  0.9976
14966TIP3   OH266388   1.250   3.408   3.257  0.7385 -0.3914 -0.0420
14966TIP3    H166389   1.317   3.458   3.209  1.3257 -1.3861 -0.2564
14966TIP3    H266390   1.286   3.399   3.345  1.8123 -2.6375 -0.6745
14967TIP3   OH266391   4.567   6.725  15.746 -0.0876 -0.1460  0.2478
14967TIP3    H166392   4.584   6.755  15.656  0.7152  1.4078  0.9067
14967TIP3    H266393   4.508   6.790  15.783 -0.2943 -0.7009  0.9134
14968TIP3   OH266394   1.801   5.173  14.799  0.1958 -0.0132  0.3513
14968TIP3    H166395   1.714   5.153  14.831 -0.4127  1.8957 -0.0157
14968TIP3    H266396   1.794   5.168  14.704  0.4465  0.2420  0.3154
14969TIP3   OH266397   6.643   4.325   2.578  0.1034  0.0138  0.0183
14969TIP3    H166398   6.661   4.237   2.545  1.3966  0.8437 -1.5502
14969TIP3    H266399   6.724   4.373   2.562 -0.6939  1.5748  0.5923
14970TIP3   OH266400   5.668   3.031   5.731  0.8948 -0.2367  0.4588
14970TIP3    H166401   5.647   3.115   5.772  0.6583  0.3701 -0.8693
14970TIP3    H266402   5.651   2.966   5.800 -1.3442  0.5901  0.7497
14971TIP3   OH266403   1.583   5.079  11.784 -0.2946 -0.2275  0.3125
14971TIP3    H166404   1.510   5.091  11.723  0.0654  2.1150  0.3003
14971TIP3    H266405   1.659   5.064  11.727 -0.3469 -0.3047  0.2614
14972TIP3   OH266406   5.962   0.128  16.605 -0.0188 -0.2839 -0.2310
14972TIP3    H166407   5.946   0.052  16.549 -1.7778 -0.0815 -0.0356
14972TIP3    H266408   6.041   0.106  16.654 -0.4027 -1.9133 -0.3299
14973TIP3   OH266409   0.897   0.409  10.634 -0.9390 -0.5719  0.1519
14973TIP3    H166410   0.938   0.487  10.670 -0.6043  1.2181 -3.8882
14973TIP3    H266411   0.836   0.380  10.702  1.5731  0.9941  3.2186
14974TIP3   OH266412   2.976   6.087  12.535 -0.0314  0.6650 -0.5456
14974TIP3    H166413   2.993   6.106  12.443  0.5105  1.3302 -0.3146
14974TIP3    H266414   2.893   6.130  12.553  1.6092  3.6859  0.2053
14975TIP3   OH266415   1.792   5.754   0.079 -0.4078 -0.2102 -0.0655
14975TIP3    H166416   1.747   5.675   0.109 -2.1220  0.2324 -1.4787
14975TIP3    H266417   1.723   5.818   0.066  0.6331  0.5486 -2.0348
14976TIP3   OH266418   1.055   6.655   5.724 -0.0019  0.3830 -0.3666
14976TIP3    H166419   1.074   6.707   5.802 -0.2075  0.0954 -0.1219
14976TIP3    H266420   1.048   6.565   5.756 -0.7049  0.3409 -0.6125
14977TIP3   OH266421   4.824   5.423  13.722  0.0619 -0.4912 -0.1151
14977TIP3    H166422   4.751   5.486  13.723 -0.3529 -0.9464 -1.4139
14977TIP3    H266423   4.902   5.477  13.736 -0.4710  0.0516  0.8441
14978TIP3   OH266424   4.045   3.676  13.213 -0.1440  0.2706  0.3241
14978TIP3    H166425   3.949   3.672  13.210 -0.1481  0.8561 -0.4388
14978TIP3    H266426   4.073   3.657  13.124  0.3493  2.5464 -0.0290
14979TIP3   OH266427   2.503   5.853   0.084  0.5641  0.2258  0.0429
14979TIP3    H166428   2.560   5.797   0.137 -0.1719 -0.7693 -0.1826
14979TIP3    H266429   2.524   5.830  -0.006 -0.6504 -0.6483 -0.0382
14980TIP3   OH266430   4.552   1.136   2.126 -0.5093 -0.2686 -0.3386
14980TIP3    H166431   4.639   1.112   2.095 -0.9004 -1.0579 -0.8383
14980TIP3    H266432   4.568   1.196   2.199  0.4830 -2.5490  1.3667
14981TIP3   OH266433   3.829   2.677   0.186  0.3127 -0.1600 -0.0258
14981TIP3    H166434   3.878   2.597   0.168  0.2723  0.0639 -1.1607
14981TIP3    H266435   3.771   2.687   0.110  0.6175  1.1690 -0.0855
14982TIP3   OH266436   0.197   1.357  17.227 -0.7638 -0.2529  0.6297
14982TIP3    H166437   0.261   1.298  17.187 -1.6456 -0.0223 -1.1585
14982TIP3    H266438   0.113   1.328  17.193 -1.3555  1.1119  0.8825
14983TIP3   OH266439   3.039   5.996   1.163  0.2623  0.2703 -0.2476
14983TIP3    H166440   2.980   6.047   1.108 -0.4324  0.8714  1.0397
14983TIP3    H266441   3.125   6.007   1.123 -0.1271  1.2470 -0.8310
14984TIP3   OH266442   4.600   0.813   2.447 -0.0600 -0.2193 -0.1271
14984TIP3    H166443   4.522   0.859   2.415 -1.7055 -0.1137  3.7260
14984TIP3    H266444   4.633   0.869   2.518  2.0484 -1.5183 -0.0507
14985TIP3   OH266445   6.650   0.472  10.838 -0.4356 -0.1252 -0.3786
14985TIP3    H166446   6.744   0.477  10.853 -0.9055 -0.5012  3.0926
14985TIP3    H266447   6.639   0.488  10.744  3.1291 -0.8681 -0.9725
14986TIP3   OH266448   3.417   2.109   2.024  0.0661 -0.6038  0.3909
14986TIP3    H166449   3.498   2.059   2.025 -0.5908 -1.7497 -0.5137
14986TIP3    H266450   3.353   2.049   1.986 -1.3037  0.1282  1.4777
14987TIP3   OH266451   2.262   3.605  13.747 -0.3370 -0.1779 -0.2002
14987TIP3    H166452   2.242   3.684  13.696  1.7615 -1.0012 -2.4147
14987TIP3    H266453   2.289   3.541  13.681  2.1595 -1.3832  1.9206
14988TIP3   OH266454   6.128   1.919   4.720  0.1159 -0.4385  0.2545
14988TIP3    H166455   6.134   1.939   4.626  0.8808  0.8859  0.5738
14988TIP3    H266456   6.144   2.002   4.763 -0.1428 -1.0653  1.5750
14989TIP3   OH266457   3.963   4.885   5.985  0.9726  0.0297 -0.0461
14989TIP3    H166458   3.949   4.976   5.958 -0.5900  0.5019  2.2425
14989TIP3    H266459   4.014   4.891   6.065  0.4770 -1.0806  0.3608
14990TIP3   OH266460   5.283   1.266  12.434 -0.0707 -0.2399 -0.2265
14990TIP3    H166461   5.276   1.222  12.350 -1.1850  0.3610 -0.4553
14990TIP3    H266462   5.277   1.359  12.413 -1.7875 -0.1417  0.6494
14991TIP3   OH266463   2.559   6.306  12.055  0.2047  0.0035 -0.2987
14991TIP3    H166464   2.489   6.340  12.000 -1.0288 -0.1087  1.1917
14991TIP3    H266465   2.524   6.309  12.144  1.4149 -1.7417  0.2602
14992TIP3   OH266466   2.837   5.882   4.063 -0.0281 -0.7012  0.3372
14992TIP3    H166467   2.745   5.902   4.047 -0.4246 -2.0348  0.8849
14992TIP3    H266468   2.859   5.934   4.141  0.1142  0.7756 -0.6665
14993TIP3   OH266469   6.731   2.115   5.161 -0.3457 -0.3236 -0.0922
14993TIP3    H166470   6.719   2.087   5.070  0.1067  0.8698 -0.5218
14993TIP3    H266471   6.797   2.054   5.196 -2.3580 -2.3912  0.2019
14994TIP3   OH266472   4.050   5.763   5.703 -0.7483  0.6140  0.4878
14994TIP3    H166473   4.055   5.819   5.626  0.1325 -0.7324 -0.4376
14994TIP3    H266474   3.956   5.761   5.725 -0.9600  1.2315 -0.3470
14995TIP3   OH266475   6.327   2.734  13.419 -0.1268  0.0479 -0.2808
14995TIP3    H166476   6.334   2.644  13.388 -0.3953 -0.1584  0.2443
14995TIP3    H266477   6.409   2.776  13.393  0.6018 -0.7368  0.7168
14996TIP3   OH266478   3.818   5.014  16.968 -0.3985 -0.0348 -0.0833
14996TIP3    H166479   3.738   5.038  17.015 -0.0027  0.7102  0.2188
14996TIP3    H266480   3.798   4.928  16.930 -0.8984 -0.4420  1.0499
14997TIP3   OH266481   3.658   2.336  14.372  0.1196  0.2106  0.2881
14997TIP3    H166482   3.734   2.388  14.346  1.4273 -1.0806  1.4181
14997TIP3    H266483   3.610   2.393  14.433 -0.4172  1.4298 -1.2355
14998TIP3   OH266484   6.453   1.624   3.675 -0.2228 -0.7257  0.1143
14998TIP3    H166485   6.457   1.576   3.758  1.5762 -0.1502  0.3875
14998TIP3    H266486   6.455   1.716   3.701 -1.3777 -0.5235 -0.5028
14999TIP3   OH266487   1.056   6.053   2.470  0.7475  0.4291 -0.1420
14999TIP3    H166488   1.037   6.115   2.399 -1.9516 -0.8818 -0.6104
14999TIP3    H266489   0.994   6.076   2.539  1.6577  0.0681  0.8048
15000TIP3   OH266490   0.160   3.020   4.210  0.0509 -0.3611 -0.1116
15000TIP3    H166491   0.126   3.105   4.237 -2.4758 -0.8562 -1.6719
15000TIP3    H266492   0.236   3.040   4.156 -1.8568  1.0211 -2.3624
15001TIP3   OH266493   4.135   1.760   0.666 -0.2510  0.1459  1.0901
15001TIP3    H166494   4.136   1.665   0.657  2.1190  0.1144  1.4214
15001TIP3    H266495   4.186   1.792   0.591 -0.3410  1.1193  1.4359
15002TIP3   OH266496   2.626   2.361  13.378  0.2126 -0.6054 -0.1966
15002TIP3    H166497   2.640   2.274  13.341  0.4745 -1.2943  1.4573
15002TIP3    H266498   2.622   2.346  13.473 -1.4326  0.9590  0.0096
15003TIP3   OH266499   4.497   4.197  15.028 -0.0673 -0.6509  0.0443
15003TIP3    H166500   4.569   4.159  14.978 -0.7877 -0.6056 -1.0696
15003TIP3    H266501   4.419   4.153  14.993 -0.7710  0.8156 -0.2573
15004TIP3   OH266502   4.914   5.852  15.357 -0.1892  0.1878 -0.2022
15004TIP3    H166503   4.827   5.818  15.334  0.3564 -0.0550 -1.9787
15004TIP3    H266504   4.973   5.809  15.296  1.4193 -0.9183  2.0812
15005TIP3   OH266505   6.285   4.121  12.709 -0.7921  0.7487  0.1033
15005TIP3    H166506   6.303   4.195  12.651  0.9611 -0.6507 -1.2150
15005TIP3    H266507   6.228   4.064  12.658 -2.7062  1.5014  1.3748
15006TIP3   OH266508   6.458   2.598  11.458  0.2894  0.2554 -0.1793
15006TIP3    H166509   6.453   2.617  11.364  0.9273  2.6824  0.2413
15006TIP3    H266510   6.400   2.664  11.498  1.9729  0.8675  1.3104
15007TIP3   OH266511   0.055   3.550  12.784 -0.1551 -0.5115 -0.9617
15007TIP3    H166512   0.142   3.531  12.818 -0.3694 -0.8880 -0.6116
15007TIP3    H266513   0.007   3.468  12.794 -0.0689 -0.7823 -2.6900
15008TIP3   OH266514   4.592   4.196   4.709 -0.1262  0.0599 -0.5125
15008TIP3    H166515   4.627   4.113   4.742 -0.1912  0.8900  1.6782
15008TIP3    H266516   4.512   4.210   4.760  0.3258  1.8977 -0.2922
15009TIP3   OH266517   5.116   6.324   4.835 -0.1511  0.2245 -0.1444
15009TIP3    H166518   5.186   6.346   4.896 -0.8364  0.0853  0.6922
15009TIP3    H266519   5.141   6.238   4.800  1.1524  1.0842 -1.4190
15010TIP3   OH266520   1.411   3.334  14.549  0.6736  0.3226  0.0513
15010TIP3    H166521   1.475   3.404  14.543 -1.0285  2.0254  1.1225
15010TIP3    H266522   1.354   3.360  14.622 -0.1540 -2.0360  0.2961
15011TIP3   OH266523   2.871   1.869  16.349 -0.6181 -0.1800 -0.1746
15011TIP3    H166524   2.806   1.907  16.289  1.4626  0.9883 -1.7318
15011TIP3    H266525   2.818   1.832  16.420 -2.9346  2.0107 -0.6667
15012TIP3   OH266526   5.749   2.884   1.644  0.0506  0.1315  0.0889
15012TIP3    H166527   5.697   2.807   1.667  1.6662 -1.0079  0.0090
15012TIP3    H266528   5.791   2.861   1.562 -0.9748  1.8753 -0.9513
15013TIP3   OH266529   5.247   1.107   5.581  0.1075  0.3236  0.1554
15013TIP3    H166530   5.164   1.116   5.535 -0.4833 -0.5543  1.0331
15013TIP3    H266531   5.245   1.018   5.618  1.5731  0.1702 -0.0921
15014TIP3   OH266532   2.005   6.128   1.473 -0.2794 -0.2016  0.5820
15014TIP3    H166533   1.958   6.056   1.432  1.4857 -1.0811  0.0732
15014TIP3    H266534   1.987   6.117   1.567 -1.2393 -0.4045  0.3812
15015TIP3   OH266535   5.599   6.565  13.800 -0.1498 -0.0536 -0.3812
15015TIP3    H166536   5.636   6.624  13.734 -0.3632  1.0624  0.4881
15015TIP3    H266537   5.606   6.478  13.761  2.7414  0.2008 -0.5507
15016TIP3   OH266538   0.304   2.868  14.840  0.0484  0.1206  0.4131
15016TIP3    H166539   0.222   2.893  14.881  0.6739  0.2814  1.5870
15016TIP3    H266540   0.328   2.786  14.884 -0.4145 -0.9119 -1.2155
15017TIP3   OH266541   2.640   4.396   3.477 -0.3836  0.0988 -0.5333
15017TIP3    H166542   2.628   4.464   3.410 -2.7128 -0.0423 -0.2833
15017TIP3    H266543   2.655   4.445   3.558  1.9202  0.2691 -1.0226
15018TIP3   OH266544   0.878   3.402   1.781 -0.6487  0.1794  0.7287
15018TIP3    H166545   0.925   3.370   1.858 -1.3894 -3.1470 -0.1040
15018TIP3    H266546   0.787   3.375   1.795 -1.0779  0.8788 -0.5901
15019TIP3   OH266547   0.106   1.228  15.577  0.7082 -0.2432  0.5831
15019TIP3    H166548   0.093   1.197  15.487 -0.9510  2.3821 -0.1523
15019TIP3    H266549   0.102   1.149  15.631  1.0095 -1.7823 -1.5804
15020TIP3   OH266550   5.442   4.033   5.464  0.0861  0.1410 -0.4793
15020TIP3    H166551   5.396   4.048   5.382 -0.7896 -2.7740 -0.5762
15020TIP3    H266552   5.380   4.059   5.532 -0.9000 -1.5967 -0.6712
15021TIP3   OH266553   1.425   0.268   5.283 -0.9214 -0.0344 -0.2047
15021TIP3    H166554   1.462   0.292   5.369  1.0450  0.1599 -1.0770
15021TIP3    H266555   1.401   0.176   5.293  0.4014 -0.3457  0.2013
15022TIP3   OH266556   3.844   0.988   1.594 -0.4715  0.0838 -0.1542
15022TIP3    H166557   3.825   1.004   1.501  0.2200  0.2107 -0.2804
15022TIP3    H266558   3.761   0.957   1.631 -0.7035 -0.1401 -0.8527
15023TIP3   OH266559   0.030   3.276   5.956  0.2642 -0.2827 -0.1156
15023TIP3    H166560   0.022   3.264   6.051 -0.1892  0.2712 -0.0784
15023TIP3    H266561   0.124   3.290   5.941  0.1469  1.2389  0.4564
15024TIP3   OH266562   5.865   5.169   6.140 -0.0587  0.4470  0.2961
15024TIP3    H166563   5.931   5.174   6.209  1.3361 -1.4024 -0.8257
15024TIP3    H266564   5.888   5.239   6.079  1.6169 -0.9020 -0.6714
15025TIP3   OH266565   6.210   4.402  11.973  0.2870  0.5198  0.1170
15025TIP3    H166566   6.193   4.486  12.015  1.3712  0.5094  0.5868
15025TIP3    H266567   6.277   4.361  12.027 -2.4239 -2.0185  1.7025
15026TIP3   OH266568   3.707   0.383   0.709 -0.1928  0.1544 -0.1971
15026TIP3    H166569   3.673   0.349   0.626  1.5032  0.1355 -0.9031
15026TIP3    H266570   3.684   0.476   0.708 -0.1446  0.1622 -0.6931
15027TIP3   OH266571   5.102   5.315   4.054 -0.0903  0.3648  0.2613
15027TIP3    H166572   5.034   5.295   4.118 -0.7892 -2.4641 -1.2824
15027TIP3    H266573   5.155   5.235   4.049  2.0439  1.7596 -0.1632
15028TIP3   OH266574   2.457   6.485   0.786  0.4906 -1.0535  0.1246
15028TIP3    H166575   2.419   6.403   0.820  0.8053 -0.3637  2.2094
15028TIP3    H266576   2.387   6.522   0.732 -1.1435 -0.7763  2.3205
15029TIP3   OH266577   3.052   1.700  14.618 -0.0806  0.3896 -0.1448
15029TIP3    H166578   3.104   1.759  14.674  2.4506 -1.7996 -0.0708
15029TIP3    H266579   3.007   1.643  14.680 -0.4221  0.5311 -0.2633
15030TIP3   OH266580   0.144   4.817  14.168  0.0019  0.0872 -0.6116
15030TIP3    H166581   0.146   4.774  14.082 -2.9143 -1.8223  0.2300
15030TIP3    H266582   0.088   4.762  14.222 -1.3253  3.2762  1.4259
15031TIP3   OH266583   5.786   0.816  16.552  0.0762 -0.2068 -0.0670
15031TIP3    H166584   5.739   0.899  16.559  0.1545 -0.2262  0.7079
15031TIP3    H266585   5.864   0.837  16.500  0.7072  0.4795  1.1325
15032TIP3   OH266586   2.902   0.780  11.746 -0.2661 -0.6673  0.2002
15032TIP3    H166587   2.877   0.853  11.802 -1.4576 -0.8572 -0.0581
15032TIP3    H266588   2.877   0.808  11.658  1.0664 -0.6010 -0.1604
15033TIP3   OH266589   0.130   0.479  11.286  0.8181  0.4375  0.5544
15033TIP3    H166590   0.189   0.406  11.301 -1.5407 -1.4667  0.8774
15033TIP3    H266591   0.153   0.512  11.200  1.1871 -1.4148 -0.0784
15034TIP3   OH266592   4.323   1.950  12.361  0.1143 -0.4123 -0.2330
15034TIP3    H166593   4.306   2.043  12.379  0.7801 -0.0975 -1.1854
15034TIP3    H266594   4.236   1.911  12.355 -0.1814 -0.5079  3.3588
15035TIP3   OH266595   0.701   6.694  17.267 -0.0164 -0.4145  0.0730
15035TIP3    H166596   0.729   6.734  17.349 -0.7742  0.5191 -0.1152
15035TIP3    H266597   0.695   6.601  17.287 -1.2400 -0.0790  1.3884
15036TIP3   OH266598   4.775   5.053   3.379  0.2258  0.2517 -0.0146
15036TIP3    H166599   4.775   4.963   3.413 -0.0575 -0.1767 -1.1212
15036TIP3    H266600   4.783   5.108   3.457  1.7411 -0.7684  0.5731
15037TIP3   OH266601   4.750   6.295  15.676  0.0400 -0.0809 -0.2851
15037TIP3    H166602   4.813   6.366  15.669 -0.0524  0.0186 -0.1172
15037TIP3    H266603   4.760   6.245  15.595  0.7561 -0.4160  0.0084
15038TIP3   OH266604   2.312   6.274   6.418 -0.0569  0.2676 -0.1658
15038TIP3    H166605   2.339   6.193   6.461 -0.3064  0.8440  1.1007
15038TIP3    H266606   2.306   6.338   6.489 -0.2222  1.3047 -1.0996
15039TIP3   OH266607   4.391   6.585   2.035 -0.2857 -0.0392  0.2145
15039TIP3    H166608   4.346   6.668   2.052  0.1766 -0.4150  3.6194
15039TIP3    H266609   4.482   6.610   2.022 -0.0544 -0.0297  1.7616
15040TIP3   OH266610   5.588   1.416   6.552  0.7140  0.1434 -0.1895
15040TIP3    H166611   5.528   1.365   6.497 -0.4226  0.8237  0.4124
15040TIP3    H266612   5.574   1.383   6.640 -0.3153  1.7309  0.2689
15041TIP3   OH266613   2.096   1.924   2.694  0.2094 -0.2722 -0.2248
15041TIP3    H166614   2.076   1.938   2.787  2.2884 -0.7574  0.3169
15041TIP3    H266615   2.035   1.855   2.667 -0.6120  0.0764  0.6952
15042TIP3   OH266616   2.407   0.268   2.383 -0.2236 -0.1529 -0.0137
15042TIP3    H166617   2.381   0.185   2.424  0.5882 -0.7181 -0.6503
15042TIP3    H266618   2.435   0.322   2.456 -0.7545 -0.4410  0.4085
15043TIP3   OH266619   5.114   5.686  14.777  0.1896 -0.7235 -0.0059
15043TIP3    H166620   5.121   5.736  14.696  0.8129 -1.7788 -0.6133
15043TIP3    H266621   5.201   5.693  14.817  0.0018 -0.5392  0.3736
15044TIP3   OH266622   6.760   4.304  14.564 -0.0543 -0.5568 -0.5892
15044TIP3    H166623   6.789   4.230  14.511 -0.6483 -1.1200 -0.1266
15044TIP3    H266624   6.736   4.372  14.501  1.0953 -0.5212 -1.0052
15045TIP3   OH266625   1.235   4.948  13.835 -0.1469  0.0388 -0.3024
15045TIP3    H166626   1.227   4.940  13.930  0.9645 -1.1235 -0.2786
15045TIP3    H266627   1.297   5.020  13.822  0.7782 -0.7070 -0.0964
15046TIP3   OH266628   6.250   2.027   4.289  0.3419  0.3289 -0.2104
15046TIP3    H166629   6.195   1.949   4.277  1.8420 -0.3818 -2.8065
15046TIP3    H266630   6.191   2.101   4.278 -0.7879 -0.4319  0.6589
15047TIP3   OH266631   5.066   4.183   3.414 -0.3417 -0.8518 -0.3459
15047TIP3    H166632   5.060   4.256   3.352  0.8282  0.2994  0.8388
15047TIP3    H266633   4.975   4.164   3.437 -0.6379  0.8151 -0.0450
15048TIP3   OH266634   5.749   5.142   4.331 -0.5880 -0.1571  0.6981
15048TIP3    H166635   5.727   5.069   4.274 -2.0553  0.1504  0.8414
15048TIP3    H266636   5.721   5.220   4.282 -1.1634  0.1573  1.5173
15049TIP3   OH266637   0.393   5.618  17.196  0.3778  0.2102  0.3484
15049TIP3    H166638   0.464   5.561  17.168  1.4954  1.7330 -0.0254
15049TIP3    H266639   0.315   5.583  17.153  1.2185 -0.4393 -0.6563
15050TIP3   OH266640   3.387   2.389   3.117  0.0892 -0.6596 -0.1552
15050TIP3    H166641   3.309   2.358   3.072 -0.1548 -0.7588  0.3278
15050TIP3    H266642   3.460   2.349   3.069 -0.0602  0.9620 -1.7754
15051TIP3   OH266643   5.045   5.867   2.165  0.4918  0.1512  0.0040
15051TIP3    H166644   5.115   5.857   2.230 -0.2212  0.0192  0.7648
15051TIP3    H266645   5.021   5.778   2.140  0.4620  0.1903 -0.1053
15052TIP3   OH266646   1.997   5.924  13.830 -0.5390 -0.2437  0.1575
15052TIP3    H166647   2.074   5.974  13.858 -0.5702 -0.2720  0.2959
15052TIP3    H266648   1.973   5.872  13.907 -1.4982  0.7550  0.5524
15053TIP3   OH266649   1.317   3.706   4.412 -0.8046  0.4853 -0.1614
15053TIP3    H166650   1.282   3.706   4.323  1.2353  1.3442 -0.9932
15053TIP3    H266651   1.399   3.656   4.405 -1.2673 -0.5188  1.4937
15054TIP3   OH266652   3.431   3.767   2.641  0.3965  0.3306  0.2145
15054TIP3    H166653   3.472   3.815   2.569  0.2441  0.0243 -0.0788
15054TIP3    H266654   3.370   3.831   2.680  0.7985  0.6320  0.3467
15055TIP3   OH266655   2.718   1.921   2.716 -0.2129 -0.3867  0.0453
15055TIP3    H166656   2.695   1.828   2.720  0.0187 -0.4461  0.0526
15055TIP3    H266657   2.814   1.921   2.707 -0.2475 -0.1589 -0.3401
15056TIP3   OH266658   0.225   2.438  17.042  0.3083 -0.3042 -0.0425
15056TIP3    H166659   0.232   2.358  16.990  0.7327  0.4423 -1.1512
15056TIP3    H266660   0.133   2.464  17.034 -0.0632 -1.2503  1.1723
15057TIP3   OH266661   5.808   2.605   2.488  0.1648  0.1811 -0.0543
15057TIP3    H166662   5.860   2.554   2.426 -0.8126  0.2474 -0.9443
15057TIP3    H266663   5.722   2.563   2.487 -0.2848  1.0727  0.1415
15058TIP3   OH266664   1.728   2.853   0.060  0.0937  0.5106 -0.4369
15058TIP3    H166665   1.670   2.778   0.072  0.3891  0.5795  1.6613
15058TIP3    H266666   1.814   2.815   0.042  0.1769  0.3278  0.3079
15059TIP3   OH266667   1.899   0.821  14.448 -0.1465  0.3939  0.2018
15059TIP3    H166668   1.849   0.746  14.415  0.4338  0.7059 -1.4669
15059TIP3    H266669   1.977   0.823  14.392  1.2242  0.5537  2.0532
15060TIP3   OH266670   0.082   1.905   4.532  0.4968 -0.3833  0.4452
15060TIP3    H166671   0.164   1.867   4.562  0.7006  0.0064  0.3862
15060TIP3    H266672   0.023   1.898   4.607  0.5744 -0.6949  0.4762
15061TIP3   OH266673   3.170   1.218   5.833 -0.1286 -0.1141 -0.0424
15061TIP3    H166674   3.111   1.273   5.781 -1.1483  0.9212  2.1297
15061TIP3    H266675   3.117   1.191   5.908  1.0394 -2.2954  0.0436
15062TIP3   OH266676   6.466   0.970  15.153 -0.2781 -0.8509 -0.3938
15062TIP3    H166677   6.379   0.937  15.175 -0.4571  0.0866  0.3532
15062TIP3    H266678   6.455   1.012  15.068 -0.4471 -1.1894 -0.5360
15063TIP3   OH266679   5.787   4.132  11.983  0.7674 -0.2762  0.6924
15063TIP3    H166680   5.841   4.200  11.944  1.1723 -0.2133  1.3656
15063TIP3    H266681   5.735   4.177  12.050  0.4969 -0.4910  0.6316
15064TIP3   OH266682   0.282   1.606   1.547  0.5256 -0.2061 -0.5404
15064TIP3    H166683   0.235   1.646   1.474  1.3942  0.5195 -0.7115
15064TIP3    H266684   0.293   1.678   1.610  0.9160 -0.5106 -0.2613
15065TIP3   OH266685   4.115   3.691   1.027  0.6307 -0.2442 -0.1501
15065TIP3    H166686   4.150   3.778   1.050  2.2851 -1.3230  1.5501
15065TIP3    H266687   4.192   3.634   1.025 -0.5785 -1.9057 -0.2033
15066TIP3   OH266688   2.404   4.124   0.032  0.4190 -0.3739  0.4995
15066TIP3    H166689   2.323   4.103   0.077 -0.7814  1.9666 -0.5057
15066TIP3    H266690   2.465   4.055   0.060 -1.8399 -2.0958  1.3496
15067TIP3   OH266691   4.940   0.407   3.632  0.0589 -0.4445 -0.2963
15067TIP3    H166692   5.016   0.350   3.643 -0.0054 -0.4466  0.1629
15067TIP3    H266693   4.936   0.424   3.538  1.3720  0.5876 -0.1821
15068TIP3   OH266694   3.896   2.386   1.008  0.2546 -0.1621  0.3428
15068TIP3    H166695   3.879   2.471   0.968  0.2629 -0.9948 -1.4652
15068TIP3    H266696   3.983   2.395   1.047  0.2385  0.6700  0.1883
15069TIP3   OH266697   1.462   5.578  15.605 -0.2667 -0.1751  0.0957
15069TIP3    H166698   1.513   5.503  15.573 -1.4173 -1.9070  2.2405
15069TIP3    H266699   1.484   5.649  15.544  1.9062 -1.8608 -1.1604
15070TIP3   OH266700   5.180   3.671   0.773 -0.0195  0.2567 -0.1863
15070TIP3    H166701   5.243   3.610   0.735  0.4073  0.7976 -0.3471
15070TIP3    H266702   5.231   3.749   0.793 -0.6634  0.7529 -0.4599
15071TIP3   OH266703   1.040   5.316  15.225  0.3200  0.6601  0.0309
15071TIP3    H166704   1.120   5.364  15.244  0.2081  0.3862  1.2381
15071TIP3    H266705   1.059   5.267  15.145  0.0333  3.6062 -1.9285
15072TIP3   OH266706   3.719   2.062  14.478  0.4360  0.1366  0.5894
15072TIP3    H166707   3.684   2.137  14.429  0.3184 -0.3251 -0.0406
15072TIP3    H266708   3.748   2.099  14.561  0.3855  0.8866  0.2780
15073TIP3   OH266709   3.846   1.001   2.507  0.1386 -0.3342 -0.3135
15073TIP3    H166710   3.848   1.076   2.448 -3.0862  1.2383  1.4093
15073TIP3    H266711   3.756   0.967   2.498  0.8702 -2.5963  0.6071
15074TIP3   OH266712   0.161   3.328  12.081  0.0153 -0.4398  0.0234
15074TIP3    H166713   0.189   3.241  12.110  1.2957  0.0498  0.2986
15074TIP3    H266714   0.172   3.384  12.158  0.8433  0.3192 -0.6373
15075TIP3   OH266715   6.567   3.780  16.811 -0.3006  0.2593  0.3609
15075TIP3    H166716   6.575   3.872  16.836  1.6575 -0.1494  1.3626
15075TIP3    H266717   6.484   3.752  16.849 -0.4543  1.3859  0.8627
15076TIP3   OH266718   1.093   6.507  11.381 -0.7481  0.0427  0.9459
15076TIP3    H166719   1.077   6.447  11.454  0.1856 -0.2047  0.9548
15076TIP3    H266720   1.109   6.449  11.306  0.2146  0.2675  0.9679
15077TIP3   OH266721   0.056   1.306  11.889 -0.0445  0.1516  0.1217
15077TIP3    H166722   0.136   1.293  11.939  0.2022  0.2447 -0.2477
15077TIP3    H266723   0.030   1.396  11.907  1.1260  0.8351 -1.4652
15078TIP3   OH266724   4.982   1.741  11.015 -0.0138  0.1962 -0.0568
15078TIP3    H166725   4.903   1.701  11.052  0.0460  0.4700  0.3562
15078TIP3    H266726   5.055   1.695  11.058  0.0615 -0.3449 -0.7389
15079TIP3   OH266727   4.812   0.486   2.409 -0.6146 -0.3445 -0.8503
15079TIP3    H166728   4.841   0.546   2.340 -0.7701 -1.0413 -1.5207
15079TIP3    H266729   4.744   0.535   2.455  0.0799  0.4464 -0.6523
15080TIP3   OH266730   0.123   1.388   0.512 -0.1583  0.1131  0.2477
15080TIP3    H166731   0.056   1.349   0.568 -2.4212  3.6884  0.1475
15080TIP3    H266732   0.121   1.335   0.432 -2.6717 -0.0069  0.3574
15081TIP3   OH266733   4.295   0.434  12.670 -0.2647 -0.6363  0.0225
15081TIP3    H166734   4.292   0.371  12.741 -1.2459  0.6721  1.1794
15081TIP3    H266735   4.271   0.517  12.711 -0.5114  0.2005 -1.7659
15082TIP3   OH266736   0.429   6.393   5.831 -0.3378  0.0754  0.0230
15082TIP3    H166737   0.426   6.489   5.824 -2.4875  0.1229  1.3828
15082TIP3    H266738   0.522   6.372   5.834  0.2147  1.9539 -2.5361
15083TIP3   OH266739   2.822   6.215  12.736 -0.1116 -0.0631  0.4121
15083TIP3    H166740   2.764   6.291  12.739 -0.8415 -0.4745 -1.7829
15083TIP3    H266741   2.910   6.252  12.748 -0.4864  1.0891 -0.2451
15084TIP3   OH266742   5.405   6.512  12.055  0.2803 -0.5263  0.7663
15084TIP3    H166743   5.434   6.590  12.007 -0.5635 -0.8530 -0.3092
15084TIP3    H266744   5.314   6.531  12.079  0.7521 -0.3034  2.3864
15085TIP3   OH266745   5.377   2.413   1.602 -0.4032  0.3287 -0.2440
15085TIP3    H166746   5.403   2.398   1.692 -1.8328  0.0256  0.1213
15085TIP3    H266747   5.306   2.477   1.608  0.0081  0.8917 -1.2091
15086TIP3   OH266748   1.389   1.701  15.364  0.2879  0.2869  0.4707
15086TIP3    H166749   1.331   1.772  15.336 -2.0338 -0.2832  3.5287
15086TIP3    H266750   1.346   1.621  15.334  0.9875 -0.0155  0.2644
15087TIP3   OH266751   5.867   6.346   1.300  0.3215 -0.1451  0.2644
15087TIP3    H166752   5.831   6.264   1.334 -1.1115  0.4075  0.1028
15087TIP3    H266753   5.791   6.395   1.270  1.4922 -0.3406 -3.1546
15088TIP3   OH266754   4.770   0.741  11.263  0.2413 -0.3839 -0.0940
15088TIP3    H166755   4.845   0.800  11.275  1.4603 -1.5784 -1.6239
15088TIP3    H266756   4.805   0.654  11.282 -0.0621 -1.2646 -3.3037
15089TIP3   OH266757   4.226   0.623   4.472 -0.1122 -0.0141  0.5331
15089TIP3    H166758   4.309   0.670   4.465  1.7214 -3.1362  0.6661
15089TIP3    H266759   4.193   0.617   4.383 -1.1552  2.7697  0.6676
15090TIP3   OH266760   5.250   6.710   0.440 -0.1742  0.3316  0.6291
15090TIP3    H166761   5.196   6.784   0.411  1.3957  1.0163 -0.6473
15090TIP3    H266762   5.207   6.633   0.403 -0.4831  0.8307 -0.0601
15091TIP3   OH266763   3.733   0.372  11.319 -0.1051  0.0314 -0.0383
15091TIP3    H166764   3.695   0.367  11.232  0.0449  0.2495 -0.1163
15091TIP3    H266765   3.662   0.343  11.378  0.3217 -1.7665 -0.3646
15092TIP3   OH266766   6.445   6.125   2.202  0.0920  0.0764  0.1890
15092TIP3    H166767   6.539   6.133   2.183 -0.0033 -0.9322 -0.7532
15092TIP3    H266768   6.414   6.216   2.202  0.7249  0.3231 -1.3743
15093TIP3   OH266769   3.148   2.503  17.290  0.9413 -0.3210  0.0881
15093TIP3    H166770   3.184   2.432  17.236  2.0875  1.1742 -1.1696
15093TIP3    H266771   3.093   2.458  17.354  0.0728 -2.2287 -1.8934
15094TIP3   OH266772   5.567   0.162  13.446 -0.5421  0.0422 -0.3142
15094TIP3    H166773   5.480   0.195  13.469 -0.9038 -0.3524 -1.0750
15094TIP3    H266774   5.572   0.173  13.351 -0.0751 -0.6865 -0.3819
15095TIP3   OH266775   4.010   1.169   1.748  0.2149 -0.6950 -0.1596
15095TIP3    H166776   4.103   1.160   1.726  0.3114 -1.0377  0.3782
15095TIP3    H266777   3.966   1.102   1.695  0.4293 -1.4242  0.5765
15096TIP3   OH266778   3.531   5.127  16.238  0.2873  0.3446 -0.7206
15096TIP3    H166779   3.527   5.212  16.281 -0.1663  0.3697 -0.8078
15096TIP3    H266780   3.554   5.066  16.308  1.1809  0.6154 -0.7655
15097TIP3   OH266781   4.787   2.395  17.069  0.0859 -0.7051 -0.0749
15097TIP3    H166782   4.756   2.314  17.110 -0.5012 -0.0293  0.8528
15097TIP3    H266783   4.709   2.431  17.027  0.2403 -0.4027 -0.1030
15098TIP3   OH266784   4.348   2.913  12.182  0.7032 -0.2010  0.3057
15098TIP3    H166785   4.318   2.822  12.174 -2.8333  1.0448 -1.5767
15098TIP3    H266786   4.350   2.929  12.276  0.0733 -1.7929  0.6133
15099TIP3   OH266787   2.230   5.608   4.830 -0.2754 -0.0368 -0.4393
15099TIP3    H166788   2.219   5.669   4.902 -0.7155  0.8606 -1.2585
15099TIP3    H266789   2.219   5.521   4.870 -2.1466  0.5079  0.2819
15100TIP3   OH266790   1.670   1.562   1.563  0.4384 -0.3424 -0.2243
15100TIP3    H166791   1.649   1.655   1.558 -0.9834 -0.5499  1.4666
15100TIP3    H266792   1.644   1.527   1.478  1.3306  0.8597 -1.0013
15101TIP3   OH266793   5.655   1.810  13.632 -0.3041 -0.1022 -0.4194
15101TIP3    H166794   5.697   1.740  13.584  0.1913 -2.1352  2.8382
15101TIP3    H266795   5.723   1.877  13.642  0.0636 -0.3704 -1.0986
15102TIP3   OH266796   4.955   5.050   1.127 -0.3832 -0.4796  0.2908
15102TIP3    H166797   4.991   5.006   1.050 -0.6042  2.0308 -1.3116
15102TIP3    H266798   5.029   5.059   1.186  0.5230  0.2377 -0.9154
15103TIP3   OH266799   4.076   0.293   3.984 -0.1892  0.6614 -0.0601
15103TIP3    H166800   4.141   0.255   4.043  0.1419  1.6580  0.2306
15103TIP3    H266801   4.102   0.263   3.897 -0.4452 -0.4844  0.2440
15104TIP3   OH266802   3.686   1.012   0.912  0.0787 -0.5208 -0.1756
15104TIP3    H166803   3.778   0.988   0.899  0.1024  0.3549 -1.7008
15104TIP3    H266804   3.688   1.086   0.972  0.5691  1.1731 -2.2046
15105TIP3   OH266805   4.010   6.578   2.039 -0.1176 -0.7176  0.1705
15105TIP3    H166806   4.006   6.579   2.135 -1.9962  0.7023  0.1068
15105TIP3    H266807   4.034   6.667   2.015  1.0047 -1.2408 -0.6631
15106TIP3   OH266808   0.074   6.211   2.286 -0.5898  0.5529 -0.2253
15106TIP3    H166809   0.158   6.206   2.241 -0.4119 -0.1602  0.1869
15106TIP3    H266810   0.011   6.180   2.221 -0.4086  0.1087 -0.1882
15107TIP3   OH266811   2.992   2.120   4.006 -0.8569 -1.2494 -0.4286
15107TIP3    H166812   2.972   2.140   3.914  1.9722  0.0581 -0.8209
15107TIP3    H266813   3.031   2.033   4.004  0.7464 -0.5458 -0.7247
15108TIP3   OH266814   6.351   0.866   2.916 -0.0954  0.0660 -0.2906
15108TIP3    H166815   6.418   0.931   2.940  2.2194 -1.4326 -2.4707
15108TIP3    H266816   6.381   0.784   2.955 -1.9657 -0.1377  0.7729
15109TIP3   OH266817   1.046   2.297   4.782 -0.0773 -0.2978 -0.0391
15109TIP3    H166818   1.090   2.225   4.737 -0.9105  0.8539 -2.8111
15109TIP3    H266819   0.953   2.281   4.767 -0.4131 -0.0959  1.6721
15110TIP3   OH266820   3.536   4.523   5.092  0.3511  0.0772  0.6985
15110TIP3    H166821   3.448   4.559   5.100  0.2872  0.1850 -0.3643
15110TIP3    H266822   3.584   4.557   5.168  0.2594  2.3196 -0.2212
15111TIP3   OH266823   2.477   5.976  10.453  0.2131  1.0668  0.0006
15111TIP3    H166824   2.466   5.983  10.548  1.3822 -1.3593  0.3550
15111TIP3    H266825   2.440   6.057  10.418 -2.5695  0.8678  2.3394
15112TIP3   OH266826   4.363   0.540   6.214 -0.2317  0.6134  0.2863
15112TIP3    H166827   4.288   0.481   6.210  0.0144  0.3292 -0.2058
15112TIP3    H266828   4.439   0.481   6.211  0.0561  1.0776 -2.4849
15113TIP3   OH266829   3.390   1.472  14.673 -0.1849  0.5484 -0.6702
15113TIP3    H166830   3.458   1.520  14.719 -0.7852  0.4316  0.3480
15113TIP3    H266831   3.395   1.505  14.583  0.3472  1.4861 -0.3094
15114TIP3   OH266832   4.158   2.358  15.329  0.3816  0.3106 -0.4070
15114TIP3    H166833   4.174   2.424  15.397  2.6526 -0.6266  0.0207
15114TIP3    H266834   4.063   2.355  15.320  0.1948  2.8092  0.3774
15115TIP3   OH266835   1.050   4.521  15.377 -0.4453  0.0049  0.2748
15115TIP3    H166836   1.103   4.519  15.297  0.3551  3.2315  0.6476
15115TIP3    H266837   1.113   4.538  15.447 -1.3222 -1.4508  1.4445
15116TIP3   OH266838   3.332   5.999  10.910  0.0548 -0.0605 -0.1773
15116TIP3    H166839   3.417   6.026  10.943  0.5988 -1.6739 -0.2042
15116TIP3    H266840   3.348   5.913  10.869 -1.9170 -1.3213  1.5676
15117TIP3   OH266841   1.601   3.287   1.690  0.3977 -0.1633 -0.1002
15117TIP3    H166842   1.624   3.362   1.635  1.2891 -2.4535 -2.9881
15117TIP3    H266843   1.681   3.265   1.737  0.1284  0.7109  0.7664
15118TIP3   OH266844   3.827   1.524   4.841  0.3404  0.6824  0.0595
15118TIP3    H166845   3.868   1.551   4.759 -2.9185 -0.5036 -2.0459
15118TIP3    H266846   3.862   1.436   4.857 -0.7045 -0.0043 -1.3023
15119TIP3   OH266847   2.070   3.367  16.913  0.2380  0.2207 -0.3204
15119TIP3    H166848   1.992   3.372  16.968  0.5940 -3.8844  0.7428
15119TIP3    H266849   2.037   3.351  16.825 -0.1984  1.0155 -0.2974
15120TIP3   OH266850   1.616   2.074  12.511 -0.1332 -0.2293 -0.0108
15120TIP3    H166851   1.591   2.070  12.419 -0.7172 -0.7806  0.1685
15120TIP3    H266852   1.709   2.097  12.510 -0.3782  0.7680 -0.7116
15121TIP3   OH266853   4.806   2.995  16.448 -0.1171  0.3244  0.3207
15121TIP3    H166854   4.793   3.086  16.422 -0.3069 -0.1248 -1.1829
15121TIP3    H266855   4.759   2.987  16.531 -1.1178  1.2800 -0.1402
15122TIP3   OH266856   3.712   2.592  13.951  0.5912 -0.6301  0.6598
15122TIP3    H166857   3.645   2.530  13.923 -0.5072  0.5742  0.5906
15122TIP3    H266858   3.781   2.584  13.885  0.5863 -1.9623  0.8016
15123TIP3   OH266859   5.842   4.846  14.062  0.1757  0.2217  0.2030
15123TIP3    H166860   5.841   4.800  14.146 -0.4795  1.2803  0.7741
15123TIP3    H266861   5.918   4.904  14.067 -0.5118  1.1002  0.5034
15124TIP3   OH266862   0.116   5.938   1.131 -0.3503 -0.1238  0.0529
15124TIP3    H166863   0.130   5.909   1.222 -0.9914 -0.3430  0.0876
15124TIP3    H266864   0.024   5.918   1.114 -0.9133  2.2150  0.1926
15125TIP3   OH266865   3.920   2.167  15.460 -0.4539 -0.2322 -0.1371
15125TIP3    H166866   3.845   2.120  15.423 -0.0176 -0.4629 -0.7359
15125TIP3    H266867   3.974   2.099  15.500  0.0672 -0.2170 -0.8085
15126TIP3   OH266868   0.495   5.637  15.328  0.0417  0.0387  0.0818
15126TIP3    H166869   0.464   5.548  15.311 -0.5910  0.1491  0.6407
15126TIP3    H266870   0.548   5.659  15.251 -3.2653  0.7684 -2.1085
15127TIP3   OH266871   1.232   4.168  13.469 -0.6224  0.1630  0.0575
15127TIP3    H166872   1.189   4.211  13.395  0.4814 -1.6302 -1.7060
15127TIP3    H266873   1.285   4.237  13.509 -2.8495  1.6725  0.4882
15128TIP3   OH266874   6.686   0.092  13.623  0.5939  0.4938 -0.0723
15128TIP3    H166875   6.727   0.022  13.572  0.0203 -0.6103  0.9636
15128TIP3    H266876   6.613   0.050  13.667  1.0153  1.4513  1.5751
15129TIP3   OH266877   6.818   0.912   5.440  0.6379  0.4519 -0.2621
15129TIP3    H166878   6.822   0.819   5.417  1.2374  0.5417 -0.5463
15129TIP3    H266879   6.738   0.921   5.490 -0.4827  0.1600 -1.9600
15130TIP3   OH266880   1.049   2.001   4.369  0.2830  0.1635  0.0995
15130TIP3    H166881   1.132   2.031   4.407 -0.0233 -0.8669  1.5925
15130TIP3    H266882   1.069   1.916   4.330 -0.3696 -0.7434  1.6876
15131TIP3   OH266883   2.614   6.012   4.408  0.6559 -0.6706 -0.1322
15131TIP3    H166884   2.528   6.030   4.370  1.7764 -0.0164 -2.4414
15131TIP3    H266885   2.609   5.922   4.440 -0.5144 -1.0338 -1.3148
15132TIP3   OH266886   0.562   0.790   3.845  0.1606 -0.1717 -0.1473
15132TIP3    H166887   0.577   0.778   3.751 -0.5782  0.9012 -0.4110
15132TIP3    H266888   0.645   0.766   3.886  0.2677 -1.3314 -1.0149
15133TIP3   OH266889   0.949   0.227   2.517  0.3107 -0.1997  0.8295
15133TIP3    H166890   0.905   0.276   2.448  0.6587 -2.0260 -0.7251
15133TIP3    H266891   0.951   0.287   2.591 -0.8730  1.4746 -0.4546
15134TIP3   OH266892   5.626   6.789  16.288 -0.3118 -0.3556 -0.2147
15134TIP3    H166893   5.546   6.842  16.292 -0.5900 -0.7608 -0.4152
15134TIP3    H266894   5.606   6.721  16.224 -0.6268 -1.8341  1.4268
15135TIP3   OH266895   0.209   2.862  15.416 -0.1241 -0.3508  0.1139
15135TIP3    H166896   0.262   2.808  15.474  0.7461 -0.3440 -0.6630
15135TIP3    H266897   0.245   2.846  15.329  0.2818  1.6337 -0.1146
15136TIP3   OH266898   1.157   5.165  13.449 -0.1988  0.8784 -0.3265
15136TIP3    H166899   1.077   5.157  13.398  1.1713  1.0434 -2.5684
15136TIP3    H266900   1.221   5.112  13.402  0.9310  0.4276  1.6469
15137TIP3   OH266901   6.142   5.248  13.063 -0.2390  0.4377 -0.3485
15137TIP3    H166902   6.140   5.203  13.148  1.0056  1.8094  0.4438
15137TIP3    H266903   6.217   5.210  13.018  0.5161  1.3152  0.1272
15138TIP3   OH266904   4.867   0.690   4.339  0.9856  0.1383  0.1118
15138TIP3    H166905   4.815   0.693   4.419  0.1905 -0.4365 -0.3776
15138TIP3    H266906   4.837   0.766   4.288  0.0411 -0.6498 -0.5222
15139TIP3   OH266907   0.139   1.813   3.164 -0.4936  0.4773 -0.5231
15139TIP3    H166908   0.059   1.821   3.217  1.1776  1.1710  1.9512
15139TIP3    H266909   0.135   1.724   3.129 -0.4532 -0.9006  2.7717
15140TIP3   OH266910   0.038   5.356   5.461  0.3878 -0.1204  0.0015
15140TIP3    H166911   0.047   5.345   5.556  0.4288 -1.6630 -0.1627
15140TIP3    H266912  -0.056   5.374   5.448  0.3598 -0.0401  0.3201
15141TIP3   OH266913   6.210   2.506  12.361  0.1574  0.4840 -0.5674
15141TIP3    H166914   6.279   2.554  12.406 -1.7910  1.1484  1.7902
15141TIP3    H266915   6.219   2.416  12.392 -0.4513  0.7091  0.2768
15142TIP3   OH266916   4.949   4.966  15.365  0.3755 -0.1930  0.1547
15142TIP3    H166917   4.910   5.045  15.401 -0.0750  0.3455 -1.4667
15142TIP3    H266918   4.943   4.977  15.270  2.2944 -1.1769 -0.1100
15143TIP3   OH266919   6.773   1.239  17.183  0.1816 -0.3498  0.7139
15143TIP3    H166920   6.819   1.219  17.101  1.0487  0.6304  0.9581
15143TIP3    H266921   6.681   1.243  17.157  0.4181 -0.3610 -0.1564
15144TIP3   OH266922   1.936   6.800   5.372 -0.2954  0.1710 -0.1865
15144TIP3    H166923   1.975   6.844   5.297 -2.0698 -0.2626 -1.3994
15144TIP3    H266924   1.932   6.867   5.441  1.7185  0.4529 -0.3238
15145TIP3   OH266925   0.581   4.446  13.350 -0.6077  0.5352  0.4842
15145TIP3    H166926   0.668   4.420  13.320 -0.3265 -1.2354  2.7421
15145TIP3    H266927   0.521   4.411  13.284  0.3423  1.6944 -1.0398
15146TIP3   OH266928   5.065   2.421  12.326 -0.3875  0.5160  0.4319
15146TIP3    H166929   5.013   2.362  12.380 -0.5378  1.6948  1.6189
15146TIP3    H266930   5.152   2.421  12.368 -0.8703  2.4635  1.5095
15147TIP3   OH266931   4.571   5.225  10.870 -0.0442 -0.0066  0.6050
15147TIP3    H166932   4.614   5.194  10.791  1.6223  0.9339  1.1252
15147TIP3    H266933   4.533   5.309  10.846  0.4912  0.2954  0.7947
15148TIP3   OH266934   0.452   0.664   1.741 -0.1662  0.4285  0.1414
15148TIP3    H166935   0.409   0.734   1.692 -0.5158  0.3683  0.3638
15148TIP3    H266936   0.413   0.583   1.707  0.9076  0.2787 -0.7856
15149TIP3   OH266937   6.580   3.257   3.880  0.1172 -0.1188  0.0738
15149TIP3    H166938   6.620   3.220   3.959 -0.3740  2.7124  1.7087
15149TIP3    H266939   6.491   3.219   3.878 -0.5610  1.3222  2.0064
15150TIP3   OH266940   5.177   0.271   5.578  0.3051  0.4653 -0.1324
15150TIP3    H166941   5.191   0.286   5.671  0.5820  0.9966 -0.2580
15150TIP3    H266942   5.180   0.358   5.539  1.1119  0.1690 -0.7518
15151TIP3   OH266943   2.854   5.743   5.817  0.2847  0.5718  0.1930
15151TIP3    H166944   2.876   5.661   5.861  0.5108  0.1400 -0.7064
15151TIP3    H266945   2.905   5.741   5.735 -0.4952  1.1399 -0.3179
15152TIP3   OH266946   5.879   3.071   4.295 -0.4130  0.5215  0.0612
15152TIP3    H166947   5.830   3.077   4.212 -1.7971 -0.5622  0.7896
15152TIP3    H266948   5.924   3.156   4.301 -2.4430  1.6883 -0.4779
15153TIP3   OH266949   1.119   1.017  12.974 -0.2966  0.0039 -0.1703
15153TIP3    H166950   1.117   1.112  12.962 -0.5142  0.0738  0.4244
15153TIP3    H266951   1.026   0.992  12.977 -0.2792 -0.4771 -2.2680
15154TIP3   OH266952   2.634   1.141   4.837 -0.1634  0.4044 -0.4921
15154TIP3    H166953   2.721   1.180   4.839 -0.2724  0.6653 -0.7982
15154TIP3    H266954   2.633   1.080   4.911 -0.6388  2.3575  1.1426
15155TIP3   OH266955   1.547   3.646   5.900 -0.4596 -0.1617 -0.1577
15155TIP3    H166956   1.630   3.678   5.934  0.2380 -1.5474 -0.5522
15155TIP3    H266957   1.481   3.698   5.946  0.5852  0.3089  0.8237
15156TIP3   OH266958   6.060   5.559  12.843  0.1141  0.4523 -0.3401
15156TIP3    H166959   6.140   5.612  12.836  0.6817 -0.6167 -2.2074
15156TIP3    H266960   6.073   5.487  12.781 -1.3572 -0.9664  0.9658
15157TIP3   OH266961   1.330   6.586  15.274 -0.2979 -0.2161 -0.2842
15157TIP3    H166962   1.403   6.587  15.336  1.6699 -1.6205 -2.4598
15157TIP3    H266963   1.351   6.656  15.212 -0.1866 -1.3378 -1.5441
15158TIP3   OH266964   5.378   6.091   5.955 -0.2201  0.3392  0.0600
15158TIP3    H166965   5.342   6.116   6.040  0.0373  1.9693 -0.2992
15158TIP3    H266966   5.309   6.111   5.893  0.6499  1.8623 -0.4342
15159TIP3   OH266967   3.548   6.722  15.580  0.2742 -0.1826 -0.4968
15159TIP3    H166968   3.635   6.752  15.605  0.1366 -0.8584  0.8511
15159TIP3    H266969   3.499   6.721  15.662 -0.6476 -0.9748 -1.0478
15160TIP3   OH266970   1.883   0.129   2.625 -0.3826 -0.0396  0.5239
15160TIP3    H166971   1.967   0.149   2.667 -0.3339  1.6913 -0.3591
15160TIP3    H266972   1.818   0.170   2.682 -0.5865 -0.7882  0.8345
15161TIP3   OH266973   2.033   0.177   0.480  0.3709 -0.3374 -0.0206
15161TIP3    H166974   1.946   0.175   0.442  0.7297  1.9776 -1.0325
15161TIP3    H266975   2.032   0.107   0.546 -1.9433 -0.8899 -0.5986
15162TIP3   OH266976   6.404   1.622   4.288 -0.0667 -0.0900  0.4458
15162TIP3    H166977   6.355   1.673   4.352  0.7245  1.7693 -0.3899
15162TIP3    H266978   6.450   1.688   4.235  0.1518 -1.6350 -1.3323
15163TIP3   OH266979   4.688   2.156  15.102  0.8810 -0.4156 -0.2724
15163TIP3    H166980   4.736   2.193  15.028  0.5309  0.5444 -0.0281
15163TIP3    H266981   4.596   2.166  15.078  0.7549  0.4516  0.5481
15164TIP3   OH266982   0.419   5.761   4.985 -0.2053  0.4403 -0.5653
15164TIP3    H166983   0.418   5.673   5.023 -0.2618 -0.0152 -1.6081
15164TIP3    H266984   0.458   5.816   5.053  0.3516 -0.4871 -0.1225
15165TIP3   OH266985   6.165   0.730   3.088 -0.3059 -0.2912  0.5334
15165TIP3    H166986   6.209   0.651   3.119  1.5767  0.2252 -0.7041
15165TIP3    H266987   6.207   0.801   3.135 -1.3363  0.0649  0.9340
15166TIP3   OH266988   2.840   2.608  10.960  0.7773 -0.1322 -0.0889
15166TIP3    H166989   2.895   2.653  10.896 -0.5725  2.0764  0.2099
15166TIP3    H266990   2.772   2.565  10.908 -0.0307  1.2511 -0.2188
15167TIP3   OH266991   5.583   4.860   4.582 -0.6988 -0.2227 -0.4759
15167TIP3    H166992   5.612   4.827   4.667 -0.8611  0.6442 -0.0647
15167TIP3    H266993   5.659   4.852   4.525 -1.0371 -2.2224 -0.6715
15168TIP3   OH266994   2.657   3.283   1.250  0.0528 -0.2481  0.4241
15168TIP3    H166995   2.565   3.307   1.239  0.0255 -0.9370 -1.1375
15168TIP3    H266996   2.662   3.244   1.337 -1.2921 -0.8762  0.2341
15169TIP3   OH266997   0.446   2.102  16.047 -0.1856  0.6725 -0.3686
15169TIP3    H166998   0.395   2.028  16.080 -0.0840  0.9410  0.4004
15169TIP3    H266999   0.421   2.108  15.954 -1.4383  0.6940 -0.0479
15170TIP3   OH267000   4.132   3.140  11.527 -0.0459 -0.4500 -0.3725
15170TIP3    H167001   4.102   3.071  11.585  1.8455 -1.4434 -0.5427
15170TIP3    H267002   4.207   3.102  11.481 -0.0003  1.1492 -1.6664
15171TIP3   OH267003   1.199   6.314   1.769  0.5792  0.2129 -0.1049
15171TIP3    H167004   1.114   6.278   1.746  1.1986 -0.8992 -0.6673
15171TIP3    H267005   1.181   6.374   1.841 -0.7459  0.3544 -0.5451
15172TIP3   OH267006   4.251   2.711  15.030  0.0152  0.5904 -0.4309
15172TIP3    H167007   4.286   2.640  14.976  0.2494  0.5747 -0.2583
15172TIP3    H267008   4.214   2.773  14.967 -0.1626  0.3312 -0.5842
15173TIP3   OH267009   0.024   6.539   4.463 -0.1070 -0.0627 -0.0034
15173TIP3    H167010   0.080   6.473   4.505 -2.1748 -1.6893  0.3048
15173TIP3    H267011   0.084   6.593   4.412  1.6285 -2.2865 -0.3888
15174TIP3   OH267012   1.648   4.423   1.389 -0.0279  0.0228 -0.1660
15174TIP3    H167013   1.674   4.438   1.298  2.4040  0.0446  0.4951
15174TIP3    H267014   1.722   4.456   1.441 -2.1851  1.8255  1.9139
15175TIP3   OH267015   0.053   2.380  14.324 -0.0702  0.4288  0.2008
15175TIP3    H167016   0.074   2.287  14.317  1.9710  0.9892 -1.7717
15175TIP3    H267017   0.138   2.424  14.315 -0.7939  2.4452  2.6395
15176TIP3   OH267018   6.372   6.386   2.130  0.3802  0.3602  0.1619
15176TIP3    H167019   6.395   6.358   2.042  0.6480  0.3823  0.2258
15176TIP3    H267020   6.344   6.477   2.120 -1.3059 -0.1775 -0.1813
15177TIP3   OH267021   4.428   3.770   2.912  0.5733  0.4005 -0.0402
15177TIP3    H167022   4.475   3.688   2.896  2.1752  0.8117  2.3450
15177TIP3    H267023   4.346   3.760   2.864  0.2253 -3.1001  1.1168
15178TIP3   OH267024   0.022   0.831  15.240  0.2742 -0.3235 -0.2881
15178TIP3    H167025   0.007   0.885  15.318  1.8789  0.4275 -0.4894
15178TIP3    H267026   0.054   0.748  15.275  1.4194  0.1655 -0.1575
15179TIP3   OH267027   4.537   4.681  17.081 -0.2607  0.7778  0.2592
15179TIP3    H167028   4.554   4.635  17.163 -0.6081  0.5511  0.2029
15179TIP3    H267029   4.445   4.664  17.062 -0.5130  1.8584  0.4708
15180TIP3   OH267030   6.094   5.178  13.328  0.3906 -0.1018  0.2107
15180TIP3    H167031   6.054   5.114  13.387  2.4498  1.1989  3.1321
15180TIP3    H267032   6.062   5.262  13.359  0.8917  0.5558 -1.0241
15181TIP3   OH267033   2.232   1.075  12.982  0.0018 -0.4395  0.4295
15181TIP3    H167034   2.313   1.025  12.993  0.2428 -0.6641 -2.0845
15181TIP3    H267035   2.166   1.010  12.962 -0.1092  0.0424 -0.8085
15182TIP3   OH267036   5.281   5.942   2.254  0.5228 -0.5965  0.4110
15182TIP3    H167037   5.351   5.956   2.190 -0.4375  1.5051 -0.2082
15182TIP3    H267038   5.327   5.930   2.338  1.6362  0.7286  0.0073
15183TIP3   OH267039   1.210   4.979  17.160  0.3115 -0.8346  0.1980
15183TIP3    H167040   1.279   4.974  17.094  0.3570 -0.8804  0.2496
15183TIP3    H267041   1.249   5.026  17.233  0.3409 -1.0088  0.2949
15184TIP3   OH267042   4.445   3.755   0.650  0.1794 -0.3463  0.6306
15184TIP3    H167043   4.498   3.676   0.657 -0.2758 -0.9636 -2.3325
15184TIP3    H267044   4.507   3.822   0.620  0.0217 -0.2184  0.5960
15185TIP3   OH267045   0.801   5.748   2.837 -0.1153  0.5926 -0.3707
15185TIP3    H167046   0.834   5.694   2.766  0.7108 -0.8849  1.0943
15185TIP3    H267047   0.876   5.801   2.863 -0.3405  0.9382 -0.4311
15186TIP3   OH267048   0.632   4.013  13.274 -0.2237  0.2310  0.7060
15186TIP3    H167049   0.667   3.969  13.352  1.3975 -0.6669 -0.5030
15186TIP3    H267050   0.537   4.005  13.283  0.0111 -2.7315  0.9768
15187TIP3   OH267051   2.202   1.225   0.011  0.0810  0.3514  0.1900
15187TIP3    H167052   2.155   1.241  -0.071  0.5401  1.7639  0.1870
15187TIP3    H267053   2.294   1.228  -0.013  0.2593  2.5284  1.0408
15188TIP3   OH267054   1.745   4.629  12.967  0.1455  0.7233 -0.7298
15188TIP3    H167055   1.804   4.698  12.937 -0.4765  2.1119  1.1663
15188TIP3    H267056   1.666   4.675  12.996 -0.2278 -0.7624  0.6977
15189TIP3   OH267057   0.297   1.501   2.822  0.1188 -0.3434 -0.3523
15189TIP3    H167058   0.262   1.580   2.862 -2.0509 -1.0420 -0.7877
15189TIP3    H267059   0.332   1.530   2.737  1.0423  0.4426  0.2899
15190TIP3   OH267060   5.281   1.783   4.583  0.1507 -0.4662 -0.1768
15190TIP3    H167061   5.237   1.866   4.601 -0.2381 -1.0064  1.5008
15190TIP3    H267062   5.277   1.773   4.488 -1.8305  0.3337 -0.1929
15191TIP3   OH267063   3.552   5.704  14.914 -0.0357 -0.0666 -0.3336
15191TIP3    H167064   3.550   5.790  14.956  0.5966  1.1705 -2.7751
15191TIP3    H267065   3.626   5.708  14.854 -0.7053 -1.9253 -1.3100
15192TIP3   OH267066   3.531   2.821   0.180  0.1771 -0.0480 -0.1446
15192TIP3    H167067   3.576   2.869   0.110  2.0425 -0.6049  0.6526
15192TIP3    H267068   3.566   2.857   0.261 -0.0306 -1.2298  0.4900
15193TIP3   OH267069   3.067   0.313  11.887  0.0335  0.3708  0.2191
15193TIP3    H167070   3.049   0.242  11.949  0.2530 -0.0874 -0.2423
15193TIP3    H267071   2.981   0.350  11.868 -0.3349 -1.1615 -1.1990
15194TIP3   OH267072   5.873   0.436   0.539 -0.1912  0.0033  0.0248
15194TIP3    H167073   5.948   0.377   0.543  0.5226  0.9408  0.5822
15194TIP3    H267074   5.841   0.427   0.449  1.4019  0.5812 -0.6238
15195TIP3   OH267075   1.411   4.974   3.354 -0.2241 -0.2896  0.5067
15195TIP3    H167076   1.493   4.972   3.404  0.0889  1.1759  0.0745
15195TIP3    H267077   1.415   4.896   3.298 -0.2844 -1.6049  2.2827
15196TIP3   OH267078   0.632   5.293   2.680 -0.6519  0.6965 -0.0654
15196TIP3    H167079   0.725   5.286   2.660 -0.2301  2.9499  0.9522
15196TIP3    H267080   0.588   5.256   2.604  1.0773 -0.5086 -0.5029
15197TIP3   OH267081   1.663   3.597  15.210  0.1966  0.5137 -0.0401
15197TIP3    H167082   1.707   3.586  15.295  0.4393 -0.4548 -0.2823
15197TIP3    H267083   1.583   3.545  15.218 -0.3142  1.3043 -0.0260
15198TIP3   OH267084   0.836   4.171   2.372 -0.7252  0.0646 -0.0457
15198TIP3    H167085   0.846   4.217   2.455  0.2835 -1.5314  0.7489
15198TIP3    H267086   0.798   4.086   2.396 -0.3612 -0.4397 -1.1913
15199TIP3   OH267087   0.297   2.815   5.509  0.3233 -0.5945  0.0044
15199TIP3    H167088   0.211   2.856   5.502  0.6406  0.1475  0.4018
15199TIP3    H267089   0.340   2.835   5.426  0.9963  1.0931  0.7328
15200TIP3   OH267090   6.156   4.628  11.727 -0.1493  0.1405 -0.0029
15200TIP3    H167091   6.085   4.639  11.790  0.2435  1.2934  0.2490
15200TIP3    H267092   6.171   4.715  11.691  0.5266 -0.2586 -0.7244
15201TIP3   OH267093   4.284   6.517  16.741  0.4365 -0.1176 -0.2207
15201TIP3    H167094   4.359   6.457  16.734  2.3845  2.1837  0.2640
15201TIP3    H267095   4.243   6.514  16.655  0.2375 -2.4579 -0.0745
15202TIP3   OH267096   0.808   1.845  10.857  0.2269  0.6971  0.1941
15202TIP3    H167097   0.891   1.818  10.818  0.1245 -2.1636  1.8496
15202TIP3    H267098   0.826   1.931  10.895  3.0190 -0.6625  2.1342
15203TIP3   OH267099   6.507   0.691  17.177  0.6127 -0.1264  0.0407
15203TIP3    H167100   6.547   0.773  17.147 -1.0344  0.9097  0.6201
15203TIP3    H267101   6.438   0.673  17.112  2.4448 -2.2846 -1.3708
15204TIP3   OH267102   4.816   0.676  12.776 -0.2679 -0.0251  0.2086
15204TIP3    H167103   4.906   0.649  12.792  0.1302  1.3627  0.3787
15204TIP3    H267104   4.820   0.726  12.694 -0.9519 -0.3239 -0.0107
15205TIP3   OH267105   5.139   5.888  15.539  0.2221  0.1330 -0.0793
15205TIP3    H167106   5.102   5.904  15.452 -0.1079 -0.3564 -0.0287
15205TIP3    H267107   5.163   5.796  15.539 -1.5048 -0.3565  0.9807
15206TIP3   OH267108   0.209   2.431   4.332  0.4523 -0.2710 -0.4115
15206TIP3    H167109   0.184   2.443   4.423  0.2239  2.2912 -0.7722
15206TIP3    H267110   0.186   2.341   4.312 -2.1986  0.0054  1.2235
15207TIP3   OH267111   4.370   5.118  11.280 -0.2530 -0.3668  0.1764
15207TIP3    H167112   4.446   5.132  11.225  0.7213  0.7478  1.7474
15207TIP3    H267113   4.313   5.193  11.262 -1.6923 -1.9708 -2.1043
15208TIP3   OH267114   6.254   6.221   4.834  0.6222  0.2887  0.2553
15208TIP3    H167115   6.220   6.132   4.834  1.9397 -0.2338  0.1973
15208TIP3    H267116   6.216   6.262   4.756  1.9704 -1.0150 -1.1204
15209TIP3   OH267117   0.605   5.210  13.027 -0.0167 -0.2372 -0.2472
15209TIP3    H167118   0.564   5.168  13.103 -1.3272  0.6872 -0.4356
15209TIP3    H267119   0.640   5.292  13.061 -0.7163  0.2353 -0.6671
15210TIP3   OH267120   1.754   5.910   4.825  0.0178 -0.1557 -0.6362
15210TIP3    H167121   1.791   5.892   4.739  1.5316 -1.5446  0.2748
15210TIP3    H267122   1.805   5.984   4.858  0.7105 -0.8277 -0.1772
15211TIP3   OH267123   2.353   2.327   4.734 -0.4741  0.0053 -0.1358
15211TIP3    H167124   2.429   2.381   4.752  2.3300 -3.2772 -1.6611
15211TIP3    H267125   2.383   2.262   4.671 -5.1270 -0.0711 -2.5670
15212TIP3   OH267126   5.853   3.153   4.623 -0.3969 -0.1867 -0.4231
15212TIP3    H167127   5.795   3.203   4.566  0.3842 -1.2917 -2.2110
15212TIP3    H267128   5.914   3.110   4.564  0.5554 -1.2014  1.2604
15213TIP3   OH267129   0.246   5.226   1.587 -0.3782 -0.2244 -0.1502
15213TIP3    H167130   0.268   5.135   1.609 -1.8949 -0.2907  1.1384
15213TIP3    H267131   0.236   5.269   1.672 -0.6851  0.9006 -0.7580
15214TIP3   OH267132   0.964   5.600  15.139 -0.2523 -0.2769 -0.0400
15214TIP3    H167133   0.923   5.563  15.061 -0.0792  1.6348 -1.0654
15214TIP3    H267134   0.917   5.559  15.212 -0.0868 -2.4501 -1.1197
15215TIP3   OH267135   1.591   4.751   0.474  0.0134  0.2680  0.0122
15215TIP3    H167136   1.581   4.814   0.546 -0.4142 -0.0068  0.1963
15215TIP3    H267137   1.546   4.792   0.400 -2.7436 -1.0419  0.8853
15216TIP3   OH267138   1.696   1.675  15.786 -0.4300  0.1902 -0.2021
15216TIP3    H167139   1.696   1.706  15.876  0.7621  0.5659 -0.3226
15216TIP3    H267140   1.655   1.746  15.736  1.2951  1.1326 -0.3199
15217TIP3   OH267141   2.865   6.605   0.970  0.7497 -0.4917 -0.5838
15217TIP3    H167142   2.858   6.522   1.018  0.3811  0.2380  0.6506
15217TIP3    H267143   2.944   6.647   1.005 -0.2409  0.6395  0.3713
15218TIP3   OH267144   3.150   0.161  14.134 -0.0161 -0.5111 -0.4138
15218TIP3    H167145   3.105   0.245  14.145  3.1659  1.0272  1.6348
15218TIP3    H267146   3.210   0.175  14.060  2.9171  0.2275  1.9818
15219TIP3   OH267147   3.035   3.288  13.648 -0.0091 -0.1498 -0.1706
15219TIP3    H167148   3.093   3.306  13.722  1.4790  0.2773 -1.4220
15219TIP3    H267149   3.022   3.373  13.606  1.3674 -0.8357 -2.0007
15220TIP3   OH267150   6.006   5.337  15.034  0.5300 -0.5403  0.1644
15220TIP3    H167151   5.972   5.308  15.119 -0.4390  1.1798  0.4056
15220TIP3    H267152   6.080   5.280  15.016  0.6266 -1.0403  2.0887
15221TIP3   OH267153   3.753   4.584  15.999  0.0518 -0.2720 -0.3888
15221TIP3    H167154   3.784   4.607  16.086  1.3412  0.9413 -1.1520
15221TIP3    H267155   3.695   4.655  15.974 -0.3765 -0.6546 -0.4930
15222TIP3   OH267156   3.923   5.357  13.216  0.0087  0.2394 -0.2311
15222TIP3    H167157   3.989   5.413  13.257  0.3322  0.1681 -0.6579
15222TIP3    H267158   3.887   5.410  13.144  1.1202 -0.5217 -1.3588
15223TIP3   OH267159   1.552   3.330   5.539 -0.2941  0.0755 -0.5085
15223TIP3    H167160   1.489   3.389   5.580 -1.9949 -1.8601 -0.2995
15223TIP3    H267161   1.578   3.270   5.608  0.1415 -0.4919 -1.1543
15224TIP3   OH267162   6.315   1.680  16.274  0.4798 -0.1528 -0.1009
15224TIP3    H167163   6.396   1.675  16.223  0.4228  0.1423 -0.2190
15224TIP3    H267164   6.256   1.619  16.229  0.7166 -0.5614  0.1316
15225TIP3   OH267165   0.550   5.802   2.903  0.1848  0.3650 -0.1685
15225TIP3    H167166   0.539   5.751   2.984 -0.4622 -0.5215 -0.7930
15225TIP3    H267167   0.638   5.781   2.873 -0.1504 -0.5784 -0.5304
15226TIP3   OH267168   3.965   3.498   6.418  0.4091 -0.5315 -0.8425
15226TIP3    H167169   3.955   3.582   6.374  1.0794 -0.6001 -1.1395
15226TIP3    H267170   3.886   3.450   6.396 -1.3578  1.0852  1.7537
15227TIP3   OH267171   0.541   3.163  16.298 -0.5650  0.0847  0.4768
15227TIP3    H167172   0.598   3.106  16.350 -1.1209  0.4569  1.5090
15227TIP3    H267173   0.479   3.103  16.256  0.0193 -0.2371  0.0625
15228TIP3   OH267174   3.776   0.295   1.121 -0.8191  0.1053 -0.3559
15228TIP3    H167175   3.785   0.388   1.098  0.6725  0.2110  0.5813
15228TIP3    H267176   3.838   0.282   1.193 -2.0199 -1.3091  0.4396
15229TIP3   OH267177   0.621   5.507   1.815 -0.0957  0.0360  0.3259
15229TIP3    H167178   0.673   5.586   1.800 -0.2146 -0.1879 -1.2598
15229TIP3    H267179   0.573   5.493   1.734 -2.3900  0.0276  1.6554
15230TIP3   OH267180   2.676   6.138  11.871  0.0662  0.6712  0.2718
15230TIP3    H167181   2.643   6.198  11.938  0.3350  1.3697 -0.2122
15230TIP3    H267182   2.740   6.190  11.822  1.0565 -0.3301  0.4843
15231TIP3   OH267183   5.756   1.747  12.009  0.2120 -0.3861 -0.1688
15231TIP3    H167184   5.742   1.830  12.053  3.1841  0.5209 -0.8501
15231TIP3    H267185   5.736   1.680  12.075 -0.1210  0.8808  1.0152
15232TIP3   OH267186   0.884   0.621  16.164  0.2468  0.7054  0.4112
15232TIP3    H167187   0.891   0.531  16.196 -0.8107 -0.0926 -1.5088
15232TIP3    H267188   0.876   0.675  16.243  0.2692 -0.9368  1.5555
15233TIP3   OH267189   4.436   4.896   1.394  0.1009 -0.0889 -0.5166
15233TIP3    H167190   4.482   4.978   1.413 -0.6849 -0.1952  1.9538
15233TIP3    H267191   4.494   4.827   1.426 -0.6056 -0.3403  0.2437
15234TIP3   OH267192   2.380   1.107   0.635 -0.2651  0.0782 -0.6495
15234TIP3    H167193   2.411   1.037   0.693 -0.0771  0.7075  0.0143
15234TIP3    H267194   2.443   1.107   0.563  0.6519  0.6034  0.1357
15235TIP3   OH267195   4.130   1.719  14.372  0.0791  0.4449  0.4585
15235TIP3    H167196   4.059   1.693  14.430  0.4658  0.3298  0.8793
15235TIP3    H267197   4.092   1.787  14.316 -1.2058 -1.6178 -1.2514
15236TIP3   OH267198   3.456   1.245   3.177  0.1005  0.0414 -0.2949
15236TIP3    H167199   3.435   1.230   3.085 -2.3181  1.1202  0.0342
15236TIP3    H267200   3.502   1.329   3.178 -0.3316  0.2827 -0.4811
15237TIP3   OH267201   0.863   1.462  15.262  0.0616  0.3200 -0.3329
15237TIP3    H167202   0.925   1.504  15.322  0.3724  0.7238 -0.9405
15237TIP3    H267203   0.902   1.473  15.176 -1.1823  1.1681 -0.8006
15238TIP3   OH267204   6.042   6.684   5.927 -0.0730  0.1363 -0.2110
15238TIP3    H167205   6.130   6.648   5.940 -0.5547 -0.1808  2.6450
15238TIP3    H267206   6.056   6.778   5.913  0.7685 -0.0154 -0.3873
15239TIP3   OH267207   4.078   2.242   3.941 -0.8765  0.0635 -0.7183
15239TIP3    H167208   4.122   2.165   3.904 -1.6049  0.0188 -1.4939
15239TIP3    H267209   4.017   2.205   4.004  0.5966  0.1571  0.8027
15240TIP3   OH267210   1.876   4.396  11.606  0.2153  0.2188 -0.1575
15240TIP3    H167211   1.932   4.474  11.607  1.3068 -0.5717  0.7142
15240TIP3    H267212   1.883   4.362  11.517  2.8588 -1.1177  0.5340
15241TIP3   OH267213   2.348   5.681   3.458 -0.1371 -0.5074  0.4218
15241TIP3    H167214   2.285   5.615   3.488 -1.0168 -0.1142 -0.5507
15241TIP3    H267215   2.324   5.761   3.505 -0.1100 -0.4529  0.3420
15242TIP3   OH267216   3.205   6.585   5.440  1.0233  0.2691 -0.0175
15242TIP3    H167217   3.204   6.533   5.520 -1.2051  1.4811  0.7949
15242TIP3    H267218   3.187   6.522   5.370 -1.4523 -0.1612  0.9389
15243TIP3   OH267219   1.681   6.134  13.927 -0.2844 -0.0681  0.3070
15243TIP3    H167220   1.649   6.180  14.004 -1.1271 -0.1127 -0.0172
15243TIP3    H267221   1.672   6.197  13.856  2.5316  0.7481  0.6131
15244TIP3   OH267222   6.698   2.354  13.366 -0.2071 -0.0870 -0.4867
15244TIP3    H167223   6.658   2.417  13.426 -1.1191 -0.7107 -0.4184
15244TIP3    H267224   6.681   2.390  13.279 -3.5988 -1.8037 -0.6174
15245TIP3   OH267225   1.836   0.155  15.278 -0.0174  0.0370  0.2626
15245TIP3    H167226   1.919   0.130  15.317  0.0840  1.0065  0.6771
15245TIP3    H267227   1.785   0.191  15.350 -0.7459 -0.4161 -0.0159
15246TIP3   OH267228   5.763   4.084  13.353  0.4162  0.1591 -0.1703
15246TIP3    H167229   5.800   3.996  13.365 -0.5559 -0.6843 -2.8733
15246TIP3    H267230   5.837   4.138  13.326  0.8110 -0.0507  0.4653
15247TIP3   OH267231   1.521   3.580   6.670 -0.2639  0.1044 -0.3658
15247TIP3    H167232   1.462   3.549   6.601  1.2132 -0.8753 -1.2407
15247TIP3    H267233   1.484   3.546   6.751 -0.9730 -0.3880 -0.8886
15248TIP3   OH267234   0.297   0.686  14.021 -0.6039 -0.2068 -0.2405
15248TIP3    H167235   0.318   0.605  14.067 -2.4278  0.4587  1.8777
15248TIP3    H267236   0.205   0.676  13.996 -0.1696  0.2496 -2.0594
15249TIP3   OH267237   0.912   6.796   5.551  0.1242 -0.6283  0.5974
15249TIP3    H167238   0.823   6.806   5.584 -0.4269  2.6380 -1.5956
15249TIP3    H267239   0.959   6.751   5.620 -3.1465 -2.1191  1.9346
15250TIP3   OH267240   1.629   2.042  11.854  0.1376  0.1066 -0.2893
15250TIP3    H167241   1.631   2.125  11.902  1.8671 -0.1248  0.0832
15250TIP3    H267242   1.608   2.067  11.764 -3.8264  0.4821  0.6479
15251TIP3   OH267243   6.420   2.866  14.487  0.0697  0.3615  0.0746
15251TIP3    H167244   6.387   2.796  14.430  0.4788  1.6662 -1.8044
15251TIP3    H267245   6.499   2.829  14.526  0.5323 -0.0778 -1.2610
15252TIP3   OH267246   0.125   4.388   4.699 -0.0208  0.1180  0.2372
15252TIP3    H167247   0.197   4.409   4.758 -0.6363  2.7568  0.1456
15252TIP3    H267248   0.167   4.362   4.617  0.8618  1.2661  0.3030
15253TIP3   OH267249   4.404   6.446  14.767  0.2960  0.2005  0.1716
15253TIP3    H167250   4.485   6.433  14.816 -0.7909 -1.7107  1.5371
15253TIP3    H267251   4.338   6.462  14.835 -0.7870  0.0218 -0.8248
15254TIP3   OH267252   2.466   2.686   5.928 -0.5393  0.4635 -0.4735
15254TIP3    H167253   2.514   2.765   5.952  0.9914 -0.5845 -0.0320
15254TIP3    H267254   2.413   2.712   5.852  0.7422  1.6351 -0.9862
15255TIP3   OH267255   1.398   4.326  14.300  0.0498  0.5406 -0.7952
15255TIP3    H167256   1.488   4.298  14.284  0.2356  0.1289  0.8861
15255TIP3    H267257   1.345   4.249  14.279  0.3892 -0.4074  1.6063
15256TIP3   OH267258   4.078   2.874   0.275 -0.5828  0.3076  0.0909
15256TIP3    H167259   4.032   2.860   0.192 -1.2902  1.2994  0.3070
15256TIP3    H267260   4.066   2.967   0.293  1.0266  0.4642  0.4426
15257TIP3   OH267261   4.368   4.968  13.156  0.1347 -0.2367  0.6509
15257TIP3    H167262   4.458   4.992  13.131 -0.4492  1.1115 -0.2036
15257TIP3    H267263   4.343   5.035  13.221 -0.1680 -0.7476  1.0628
15258TIP3   OH267264   5.224   6.073   2.537 -0.5954 -0.1074  0.4417
15258TIP3    H167265   5.174   6.020   2.599 -1.7118  2.7140  2.0457
15258TIP3    H267266   5.313   6.037   2.541 -1.0705 -1.1356  2.2851
15259TIP3   OH267267   6.542   5.782   1.422 -0.1144  0.3333  0.1313
15259TIP3    H167268   6.636   5.778   1.436  0.2290 -0.6800 -2.3311
15259TIP3    H267269   6.530   5.852   1.357 -0.8337 -1.1869 -1.3888
15260TIP3   OH267270   2.921   6.341   4.150  0.0957  0.2249 -0.0491
15260TIP3    H167271   2.893   6.312   4.063 -0.0120 -0.1570  0.1090
15260TIP3    H267272   2.883   6.276   4.209  1.9155 -0.7252  0.1184
15261TIP3   OH267273   1.789   5.910  16.311  0.2361 -0.1931 -0.1376
15261TIP3    H167274   1.749   5.994  16.289  0.5756 -0.1374 -0.5659
15261TIP3    H267275   1.856   5.898  16.244 -0.6135 -1.3761 -0.7905
15262TIP3   OH267276   2.062   1.154   0.247 -0.3495 -0.2611 -0.0962
15262TIP3    H167277   2.131   1.177   0.184 -1.5457 -0.0147 -1.3432
15262TIP3    H267278   2.109   1.129   0.326  1.1526  0.7273 -0.6561
15263TIP3   OH267279   2.281   5.971  14.515 -0.2472  0.6183  0.3021
15263TIP3    H167280   2.228   6.050  14.520 -0.8346  0.3131 -0.8069
15263TIP3    H267281   2.343   5.989  14.445 -2.9198 -1.3342 -2.7244
15264TIP3   OH267282   2.419   6.539  14.253  0.4772 -0.4208 -0.8452
15264TIP3    H167283   2.503   6.580  14.275  0.5062 -0.8342 -0.1877
15264TIP3    H267284   2.396   6.576  14.168  1.0402  0.1418 -0.7546
15265TIP3   OH267285   6.703   1.252   3.127  1.0529  0.2051  0.0457
15265TIP3    H167286   6.674   1.250   3.219 -0.1698 -1.9367 -0.3510
15265TIP3    H267287   6.768   1.182   3.122  1.9719  1.0976 -0.4550
15266TIP3   OH267288   1.214   3.456   1.198  0.0514  0.2277 -0.1219
15266TIP3    H167289   1.189   3.371   1.234  0.3371  0.4781  0.6836
15266TIP3    H267290   1.199   3.448   1.104 -2.1940  0.0728  0.2122
15267TIP3   OH267291   5.522   4.451  12.799 -0.5541  0.1124  0.2001
15267TIP3    H167292   5.582   4.396  12.850  1.3957 -0.2741 -2.3827
15267TIP3    H267293   5.536   4.539  12.832  0.3445 -0.1914  0.6485
15268TIP3   OH267294   3.514   4.797  13.603 -0.5479  0.6270 -0.5492
15268TIP3    H167295   3.458   4.741  13.657 -0.2327  2.1485  1.3865
15268TIP3    H267296   3.585   4.739  13.576  0.3654  0.2868  2.3493
15269TIP3   OH267297   0.587   0.041  16.790  0.3941  0.3065  0.0360
15269TIP3    H167298   0.680   0.025  16.801  0.4205  0.9927  0.8637
15269TIP3    H267299   0.573   0.129  16.826 -0.5333  0.2839 -0.2423
15270TIP3   OH267300   4.010   0.889  11.734  0.7165 -0.2562  0.0040
15270TIP3    H167301   3.948   0.942  11.683  1.6816  0.7546 -0.1215
15270TIP3    H267302   3.999   0.920  11.824  2.7315  1.5672 -0.3732
15271TIP3   OH267303   1.289   3.636   1.782  0.1881 -0.5022 -0.4402
15271TIP3    H167304   1.269   3.689   1.704  2.2811 -1.7086 -1.8720
15271TIP3    H267305   1.278   3.546   1.752 -0.2240 -0.9443  1.0458
15272TIP3   OH267306   6.803   5.955  10.451  0.2688 -0.0385  0.9015
15272TIP3    H167307   6.781   5.979  10.541 -0.9533 -1.3299  0.9748
15272TIP3    H267308   6.803   5.859  10.451  1.0950 -0.0457 -0.2789
15273TIP3   OH267309   0.312   2.781   1.160  0.4000  0.2942  0.8348
15273TIP3    H167310   0.261   2.781   1.079  0.3941  0.1431  0.8372
15273TIP3    H267311   0.249   2.755   1.227  0.1514  1.4556  1.0560
15274TIP3   OH267312   3.527   6.041  16.735 -0.5052  0.5545  0.1787
15274TIP3    H167313   3.463   5.984  16.693  0.3019 -0.7314  0.6552
15274TIP3    H267314   3.499   6.130  16.713 -0.9198 -0.0569 -1.8525
15275TIP3   OH267315   2.026   2.985  15.100  0.2958  0.2231  0.3764
15275TIP3    H167316   2.052   2.955  15.013 -1.0579 -0.2955  0.1367
15275TIP3    H267317   2.105   2.976  15.154  1.2715  0.9907 -0.8998
15276TIP3   OH267318   2.240   3.449  11.582 -0.0557 -0.2347 -0.0768
15276TIP3    H167319   2.155   3.406  11.574  0.1619 -0.8007  0.5648
15276TIP3    H267320   2.223   3.542  11.564 -0.0755 -0.9225 -4.3033
15277TIP3   OH267321   3.683   2.364   4.119 -0.5287  0.0914 -0.0784
15277TIP3    H167322   3.704   2.436   4.061  0.4341 -1.9964 -2.4128
15277TIP3    H267323   3.600   2.330   4.086 -1.3173  0.4938  1.4112
15278TIP3   OH267324   5.218   0.849  12.668 -0.2677 -0.4588 -0.1169
15278TIP3    H167325   5.162   0.787  12.622  0.3885 -1.1980  0.0662
15278TIP3    H267326   5.273   0.794  12.725 -0.0912  0.3343  0.4846
15279TIP3   OH267327   3.749   4.651   4.920 -1.0194  0.4860 -0.8319
15279TIP3    H167328   3.703   4.577   4.961 -1.3115  1.2949  0.3423
15279TIP3    H267329   3.742   4.722   4.985  1.3210  0.8234 -0.9105
15280TIP3   OH267330   5.356   0.313  10.716 -0.1691  0.2151 -0.1231
15280TIP3    H167331   5.314   0.258  10.650  0.7501 -0.1803 -0.3786
15280TIP3    H267332   5.449   0.302  10.701  0.0349  1.0475  0.4885
15281TIP3   OH267333   0.235   6.612   1.107  0.3698  0.1287  0.2952
15281TIP3    H167334   0.229   6.640   1.199  0.4434  0.0418  0.3266
15281TIP3    H267335   0.208   6.520   1.108  0.8451 -0.0122  0.3049
15282TIP3   OH267336   3.142   2.849  15.187 -0.3411  0.3276  0.1657
15282TIP3    H167337   3.134   2.945  15.182 -0.6742  0.4710  2.6467
15282TIP3    H267338   3.098   2.826  15.269  1.6951 -1.7385  0.7249
15283TIP3   OH267339   0.368   5.370  15.298 -0.0763 -0.0279 -0.5658
15283TIP3    H167340   0.272   5.371  15.295 -0.1008 -0.1914  0.3057
15283TIP3    H267341   0.392   5.294  15.245 -0.4922 -1.2954  1.0414
15284TIP3   OH267342   5.388   3.272   2.338  0.0690 -0.1347  0.1202
15284TIP3    H167343   5.400   3.277   2.433  1.2690  1.1415 -0.0809
15284TIP3    H267344   5.375   3.179   2.319 -3.2773 -0.0965  1.8976
15285TIP3   OH267345   1.796   0.304   2.177 -0.6511 -0.0057 -0.4640
15285TIP3    H167346   1.848   0.251   2.117 -0.1536  0.3581 -0.3548
15285TIP3    H267347   1.708   0.267   2.172 -0.4401 -0.4521 -0.8490
15286TIP3   OH267348   0.154   2.634   5.853 -0.5568  0.1126  0.4944
15286TIP3    H167349   0.109   2.654   5.771 -0.5669 -2.1759 -0.0793
15286TIP3    H267350   0.243   2.667   5.840 -0.5040 -0.4107 -0.5118
15287TIP3   OH267351   6.406   6.753  14.484 -0.0551 -0.3475 -0.2578
15287TIP3    H167352   6.420   6.676  14.539  1.0757  0.4970  0.6373
15287TIP3    H267353   6.464   6.739  14.409 -1.6798 -1.5534 -1.3380
15288TIP3   OH267354   0.946   4.951   5.159  0.2863  0.4403 -0.2109
15288TIP3    H167355   0.910   4.869   5.125  0.7579  0.6075 -1.1290
15288TIP3    H267356   1.029   4.925   5.200 -0.2381  0.2523  0.7481
15289TIP3   OH267357   2.473   4.987  16.873  0.2350  0.2918  0.5461
15289TIP3    H167358   2.416   4.975  16.797 -0.4593 -1.1610  1.2990
15289TIP3    H267359   2.462   4.908  16.925 -0.2529  1.8044  2.8189
15290TIP3   OH267360   1.612   2.131   0.053 -0.0849 -0.1461 -0.0849
15290TIP3    H167361   1.681   2.078   0.094  1.7422 -0.0116 -2.7886
15290TIP3    H267362   1.655   2.214   0.031 -1.8217  0.9157  0.4455
15291TIP3   OH267363   2.029   3.395   4.364  0.0299  0.4128 -0.4363
15291TIP3    H167364   2.068   3.483   4.368  0.9115 -0.0575  2.3364
15291TIP3    H267365   1.935   3.410   4.372  0.3162  1.0007  2.2137
15292TIP3   OH267366   6.364   0.002   6.046  0.5668 -0.1872  0.2375
15292TIP3    H167367   6.433   0.065   6.068 -0.7077  0.4526  2.5945
15292TIP3    H267368   6.285   0.056   6.036 -0.1764 -1.2248  0.4965
15293TIP3   OH267369   5.128   0.315  15.236  0.2982  0.1136  0.2164
15293TIP3    H167370   5.043   0.356  15.222 -0.4141 -1.1261  0.7841
15293TIP3    H267371   5.132   0.301  15.330  1.4208  0.7681  0.2664
15294TIP3   OH267372   0.414   2.119   0.372  0.1583 -0.7202  0.0532
15294TIP3    H167373   0.398   2.185   0.305  0.1000  1.1423  1.8541
15294TIP3    H267374   0.327   2.086   0.394 -0.0082 -0.0041  0.4995
15295TIP3   OH267375   2.084   3.990   2.755  0.1008 -0.2534  0.3395
15295TIP3    H167376   2.037   4.027   2.680  0.9346 -0.1407 -0.1254
15295TIP3    H267377   2.121   4.066   2.800  2.2487 -0.5159 -0.9035
15296TIP3   OH267378   3.463   4.888   5.248 -0.1402 -0.4269  0.2979
15296TIP3    H167379   3.430   4.976   5.237 -1.7242 -0.8802  1.3054
15296TIP3    H267380   3.386   4.832   5.248  0.7906 -1.7539  0.3038
15297TIP3   OH267381   4.798   3.627   3.903 -0.3581  0.1174  0.2369
15297TIP3    H167382   4.891   3.620   3.924 -1.0426 -2.2421  2.5588
15297TIP3    H267383   4.756   3.653   3.985 -2.0028 -0.7888 -0.2975
15298TIP3   OH267384   4.578   1.891  13.551 -0.4023  0.2924  0.4345
15298TIP3    H167385   4.534   1.912  13.469 -1.6382 -1.3924  0.6385
15298TIP3    H267386   4.666   1.928  13.542 -0.2593 -0.5874 -1.9780
15299TIP3   OH267387   3.735   4.175  17.149 -0.1732 -0.6809  0.7401
15299TIP3    H167388   3.783   4.138  17.223  1.4668  1.6720  0.9007
15299TIP3    H267389   3.789   4.248  17.119 -1.7089 -0.4628 -1.6442
15300TIP3   OH267390   4.869   5.137   4.109 -0.2210 -1.1280 -0.0039
15300TIP3    H167391   4.874   5.110   4.201 -0.7148 -0.9025  0.0902
15300TIP3    H267392   4.775   5.142   4.091 -0.1292 -1.9445 -0.7530
15301TIP3   OH267393   6.692   2.413  16.823 -0.2816  0.0482 -0.3188
15301TIP3    H167394   6.604   2.399  16.787 -0.4103  0.8620 -0.3230
15301TIP3    H267395   6.721   2.495  16.784 -0.1945  0.6521  0.9913
15302TIP3   OH267396   4.117   4.606   4.225 -0.0274 -0.2223  0.2984
15302TIP3    H167397   4.167   4.526   4.242  0.6514  0.6633  2.5657
15302TIP3    H267398   4.090   4.637   4.312 -1.1740  1.4599 -0.6267
15303TIP3   OH267399   6.051   3.511   0.919 -0.6590 -0.2005  0.3997
15303TIP3    H167400   6.053   3.490   1.013 -2.2033 -0.9345  0.2771
15303TIP3    H267401   6.042   3.427   0.876 -0.9486  0.2202 -0.3705
15304TIP3   OH267402   0.528   5.765   4.468 -0.3746  0.4954 -0.0294
15304TIP3    H167403   0.472   5.730   4.400  0.2706  0.0920 -0.3612
15304TIP3    H267404   0.493   5.729   4.550 -0.5201  0.1415 -0.2485
15305TIP3   OH267405   0.613   6.709   0.647  0.0454 -0.4847  0.0937
15305TIP3    H167406   0.631   6.804   0.648 -1.2933 -0.2197 -0.5786
15305TIP3    H267407   0.667   6.674   0.718 -0.7957  1.0266  1.4908
15306TIP3   OH267408   5.882   0.586  12.649  0.4821 -0.0280  0.2343
15306TIP3    H167409   5.908   0.610  12.738  2.0811 -0.1047 -0.1993
15306TIP3    H267410   5.950   0.623  12.593 -0.8835  0.6373 -1.0331
15307TIP3   OH267411   6.578   5.153  11.782  0.3980 -0.1306 -0.0721
15307TIP3    H167412   6.656   5.183  11.734  0.3921 -0.5372 -0.3416
15307TIP3    H267413   6.585   5.058  11.781 -0.7346 -0.2207 -1.1824
15308TIP3   OH267414   2.807   1.713   0.802  0.0835  0.1850 -0.0931
15308TIP3    H167415   2.838   1.803   0.789  0.3785  0.1702  0.5034
15308TIP3    H267416   2.740   1.701   0.735 -1.0584  1.3641  0.8142
15309TIP3   OH267417   4.042   4.202  11.940 -0.0622 -0.2194 -0.1004
15309TIP3    H167418   3.967   4.258  11.958 -1.0554 -1.2301 -0.9723
15309TIP3    H267419   4.049   4.145  12.017 -0.2807 -0.2233 -0.0836
15310TIP3   OH267420   4.955   4.130  16.054  0.0414 -0.1125 -0.0383
15310TIP3    H167421   5.045   4.162  16.058 -0.1202  0.3533 -0.0554
15310TIP3    H267422   4.904   4.198  16.099 -0.1668 -0.8499  0.8346
15311TIP3   OH267423   5.413   5.990   5.243  0.1665 -0.6522  0.1470
15311TIP3    H167424   5.379   6.077   5.264  0.5434 -0.4523 -0.0602
15311TIP3    H267425   5.344   5.930   5.271  1.6340 -0.5821  4.2592
15312TIP3   OH267426   4.301   3.510   1.299 -0.7856 -0.3059 -0.2444
15312TIP3    H167427   4.218   3.552   1.321 -1.9259 -2.1559 -0.8577
15312TIP3    H267428   4.296   3.495   1.205  0.7313  0.5741 -0.4739
15313TIP3   OH267429   6.040   0.740   4.130  0.4896  0.1115 -0.7067
15313TIP3    H167430   6.102   0.744   4.056  0.3618  1.2848 -0.7497
15313TIP3    H267431   5.961   0.783   4.097  0.4022  0.5549  0.0888
15314TIP3   OH267432   1.341   5.982   5.213 -0.1283 -0.0594 -0.0763
15314TIP3    H167433   1.314   5.961   5.124  2.2419 -0.0088 -0.8281
15314TIP3    H267434   1.264   5.962   5.266 -1.2693 -0.9684 -2.0086
15315TIP3   OH267435   4.837   5.573   4.002  0.0642 -0.3426  0.0653
15315TIP3    H167436   4.914   5.565   4.059  0.7407  1.0012 -0.6478
15315TIP3    H267437   4.792   5.651   4.034 -0.7988 -0.8936  0.2146
15316TIP3   OH267438   2.289   5.871  13.439 -0.0167  0.0920  0.1872
15316TIP3    H167439   2.259   5.834  13.356  0.2959  0.6590 -0.1778
15316TIP3    H267440   2.246   5.956  13.444 -0.1401  0.0004  0.6733
15317TIP3   OH267441   1.541   5.657   0.273 -0.5047  0.1350  0.4056
15317TIP3    H167442   1.557   5.563   0.265 -1.0290 -0.0354  1.3396
15317TIP3    H267443   1.520   5.671   0.365 -1.5950  0.9851  0.0497
15318TIP3   OH267444   5.406   4.183  13.620  0.5775  0.1326 -0.0805
15318TIP3    H167445   5.405   4.155  13.528  1.5417 -0.0286 -0.0495
15318TIP3    H267446   5.383   4.104  13.669  1.5709 -0.1737 -0.0971
15319TIP3   OH267447   4.046   2.089   4.368 -0.2515 -0.1926  0.1808
15319TIP3    H167448   4.004   2.122   4.289 -0.0241  0.0244  0.1512
15319TIP3    H267449   4.031   1.994   4.365  0.5344 -0.2985 -0.5813
15320TIP3   OH267450   0.232   5.201   2.216  0.3004 -0.2550 -0.3796
15320TIP3    H167451   0.320   5.183   2.184 -0.1154  1.1563 -2.3520
15320TIP3    H267452   0.205   5.119   2.258  1.9464 -1.2014 -1.1235
15321TIP3   OH267453   5.844   3.519  11.763  0.3058 -0.0710  0.6975
15321TIP3    H167454   5.761   3.471  11.765 -0.2526  0.7501 -1.0345
15321TIP3    H267455   5.822   3.606  11.799  0.5715 -0.0760  0.8706
15322TIP3   OH267456   5.109   5.822   6.333 -0.2994 -0.1499 -0.5322
15322TIP3    H167457   5.103   5.917   6.342  1.1592 -0.0656 -0.4710
15322TIP3    H267458   5.152   5.793   6.414  0.8330 -0.6882 -1.3298
15323TIP3   OH267459   6.449   4.456  15.507 -0.4441 -0.2204  0.2601
15323TIP3    H167460   6.492   4.379  15.471 -1.1046 -0.9561  1.0409
15323TIP3    H267461   6.356   4.445  15.485 -0.4441  0.7036 -0.2491
15324TIP3   OH267462   2.383   0.042   0.784 -0.1226  0.0894  0.6265
15324TIP3    H167463   2.371  -0.045   0.824  0.9232  0.4053  1.6477
15324TIP3    H267464   2.410   0.023   0.694  0.8363 -0.6535  1.0642
15325TIP3   OH267465   4.880   1.026  14.866  0.2787  0.0824 -0.4114
15325TIP3    H167466   4.820   0.959  14.900  0.7864 -0.1221  0.0794
15325TIP3    H267467   4.941   0.978  14.811  0.9602  0.0613  0.3537
15326TIP3   OH267468   2.156   0.960  12.445  0.0285 -0.2551  0.1536
15326TIP3    H167469   2.247   0.957  12.415  0.5516  3.3224  1.2125
15326TIP3    H267470   2.107   0.997  12.371 -0.2416 -0.1970  0.3592
15327TIP3   OH267471   2.780   3.893   5.213 -0.1407 -0.0289  0.2862
15327TIP3    H167472   2.706   3.952   5.229 -0.9210 -1.1016  0.7045
15327TIP3    H267473   2.761   3.816   5.267  0.9494 -0.5955 -0.1252
15328TIP3   OH267474   4.536   0.481   2.550 -0.4071  0.1199 -0.4185
15328TIP3    H167475   4.496   0.568   2.544 -0.4978  0.1121  0.0717
15328TIP3    H267476   4.502   0.445   2.632  0.2983 -0.0446 -0.1996
15329TIP3   OH267477   3.681   0.647  17.097 -0.1779 -0.5956 -0.6178
15329TIP3    H167478   3.772   0.676  17.088  0.5905 -2.5794  0.5144
15329TIP3    H267479   3.667   0.587  17.024 -1.0106  0.6787 -1.5386
15330TIP3   OH267480   4.484   3.546  11.866 -0.3708  0.2835  0.0243
15330TIP3    H167481   4.469   3.640  11.857 -1.3678  0.2754  1.2898
15330TIP3    H267482   4.454   3.508  11.784 -0.3514  1.0347 -0.3258
15331TIP3   OH267483   0.284   4.154   0.183  0.5519 -0.2709  0.5613
15331TIP3    H167484   0.278   4.063   0.154 -0.1304 -0.5248  1.4613
15331TIP3    H267485   0.349   4.194   0.126 -0.2838 -0.9292 -0.8744
15332TIP3   OH267486   4.542   2.786   4.770  0.5021 -0.1589 -0.1873
15332TIP3    H167487   4.636   2.789   4.752  0.4453 -3.7291 -1.5178
15332TIP3    H267488   4.534   2.727   4.846 -0.6939 -0.1520 -0.2986
15333TIP3   OH267489   6.213   4.184   0.340 -0.5394  0.4676 -0.3724
15333TIP3    H167490   6.179   4.168   0.252  0.0054 -0.8242 -0.3610
15333TIP3    H267491   6.276   4.113   0.355  1.1701  2.0378  0.1153
15334TIP3   OH267492   2.530   4.094   1.062 -0.3053 -0.5789 -0.0477
15334TIP3    H167493   2.612   4.046   1.076  0.1154  0.1512  0.0625
15334TIP3    H267494   2.502   4.119   1.150  0.0875  0.3490 -0.1772
15335TIP3   OH267495   1.373   3.120   6.336 -0.2917 -0.3318  0.5735
15335TIP3    H167496   1.345   3.070   6.413 -2.4758  0.9474  0.6266
15335TIP3    H267497   1.296   3.169   6.309  1.0780  0.9801 -1.0868
15336TIP3   OH267498   3.863   0.929  15.579  0.1965  0.3392 -0.1882
15336TIP3    H167499   3.872   0.885  15.663 -0.6016 -1.7863 -1.1576
15336TIP3    H267500   3.952   0.956  15.556  0.8077 -1.3342  0.1684
15337TIP3   OH267501   4.378   4.785   1.938 -0.6419  0.5955  0.0282
15337TIP3    H167502   4.313   4.722   1.907 -0.3547  0.9254 -1.2560
15337TIP3    H267503   4.457   4.734   1.954  1.0379  1.1724 -5.2993
15338TIP3   OH267504   1.670   1.805  16.009  0.1712 -0.4408  0.2302
15338TIP3    H167505   1.742   1.859  15.976 -0.9949  0.2466 -1.2614
15338TIP3    H267506   1.642   1.849  16.089  1.3679 -0.6985  0.8083
15339TIP3   OH267507   2.185   4.049   1.720  0.7160 -0.2164 -0.2785
15339TIP3    H167508   2.205   4.122   1.780 -0.8375 -0.7117  0.8885
15339TIP3    H267509   2.209   3.971   1.769  0.5310 -0.5769 -0.7645
15340TIP3   OH267510   0.009   1.001   3.087 -0.3387  0.0129  0.4065
15340TIP3    H167511  -0.004   0.925   3.144 -0.4144  1.0157  1.7772
15340TIP3    H267512   0.040   0.965   3.005 -2.6411 -1.6953  0.2348
15341TIP3   OH267513   2.486   6.027  16.778 -0.3638 -0.2236 -0.4577
15341TIP3    H167514   2.561   5.982  16.739 -1.6222 -2.3493 -0.5285
15341TIP3    H267515   2.492   6.008  16.871 -2.2782 -2.7151 -0.8011
15342TIP3   OH267516   0.096   4.588  16.186  0.2986 -0.2427 -0.7291
15342TIP3    H167517   0.150   4.533  16.129  0.2223 -1.3670  0.2592
15342TIP3    H267518   0.031   4.626  16.127 -0.8908 -2.8026 -1.1730
15343TIP3   OH267519   1.920   0.707  14.020  0.2812  0.5246 -0.7357
15343TIP3    H167520   1.993   0.654  14.052 -0.1640  0.3260 -0.0317
15343TIP3    H267521   1.954   0.796  14.016  0.0916  0.6995  1.1340
15344TIP3   OH267522   0.754   6.180   1.892 -0.1674  0.0322  0.0748
15344TIP3    H167523   0.705   6.249   1.937 -0.6025 -0.1233 -0.1550
15344TIP3    H267524   0.688   6.114   1.871  0.5911 -1.4787  2.2441
15345TIP3   OH267525   0.237   5.063  16.640  0.1048 -0.1775  0.0947
15345TIP3    H167526   0.304   5.014  16.591 -0.1198 -0.5528  0.1638
15345TIP3    H267527   0.175   5.091  16.573  0.4043  0.2909  0.0109
15346TIP3   OH267528   0.538   5.462   3.904 -0.0643 -0.7751  0.2137
15346TIP3    H167529   0.525   5.388   3.964  0.8795  0.4716  2.0043
15346TIP3    H267530   0.459   5.515   3.915  0.3957 -0.2145  0.8514
15347TIP3   OH267531   3.756   6.083  11.614 -0.1542  0.2809  0.3112
15347TIP3    H167532   3.787   6.171  11.631 -1.5824  0.5071  1.7830
15347TIP3    H267533   3.695   6.092  11.541 -0.7517  0.6063  0.8471
15348TIP3   OH267534   3.007   3.042  14.887  0.5814  0.8398 -0.0196
15348TIP3    H167535   3.060   3.039  14.966 -0.9444 -0.1853  1.0145
15348TIP3    H267536   3.040   2.970  14.833 -0.9039 -1.0056  1.4299
15349TIP3   OH267537   5.417   2.499   1.016 -0.1899 -0.0270  0.2654
15349TIP3    H167538   5.413   2.517   0.922 -1.0807  2.9435  0.8159
15349TIP3    H267539   5.421   2.585   1.057 -1.0743 -1.2312  3.0202
15350TIP3   OH267540   5.985   2.247  16.370  0.0449 -0.3036 -0.1294
15350TIP3    H167541   5.937   2.329  16.375  0.0349 -0.2155 -1.3233
15350TIP3    H267542   6.073   2.273  16.343  0.0547 -0.6696 -0.4587
15351TIP3   OH267543   3.549   3.629   3.949  0.0656 -0.0418  0.0043
15351TIP3    H167544   3.518   3.573   4.021  1.3024 -0.6876  0.0626
15351TIP3    H267545   3.628   3.670   3.985  0.1291  0.4061 -0.6524
15352TIP3   OH267546   5.420   0.212   5.801 -0.2584 -0.1549  0.2613
15352TIP3    H167547   5.452   0.178   5.885  0.2496 -0.5774 -0.1006
15352TIP3    H267548   5.338   0.255   5.822  0.7089  1.2439  1.2777
15353TIP3   OH267549   1.828   6.455  16.781  0.1874 -0.3352 -0.1674
15353TIP3    H167550   1.907   6.507  16.795  0.2384 -0.4240 -0.1319
15353TIP3    H267551   1.804   6.423  16.868  1.3891 -2.1883 -0.4841
15354TIP3   OH267552   3.648   3.563   0.997  0.4107  0.0724  0.2652
15354TIP3    H167553   3.694   3.581   1.079  2.1539  0.8223 -0.8681
15354TIP3    H267554   3.716   3.534   0.937 -1.0788 -2.0228 -0.4840
15355TIP3   OH267555   2.907   6.163   5.311 -0.6196 -0.0308  0.2377
15355TIP3    H167556   2.931   6.229   5.247  0.0246 -0.5132 -0.0273
15355TIP3    H267557   2.812   6.170   5.320 -0.6337  0.4457 -0.3128
15356TIP3   OH267558   6.286   5.155   4.809 -0.3841  0.2440 -0.2469
15356TIP3    H167559   6.321   5.226   4.756 -0.7522 -1.4135 -2.7750
15356TIP3    H267560   6.354   5.087   4.807 -0.4800  0.0870  1.2534
15357TIP3   OH267561   1.201   3.825  11.829 -0.3846  0.0736  0.2020
15357TIP3    H167562   1.218   3.917  11.851  1.7021 -0.5125  1.2085
15357TIP3    H267563   1.112   3.809  11.859 -0.5684  1.6272  0.5359
15358TIP3   OH267564   0.376   2.461   4.103 -0.0578  0.2286  0.1105
15358TIP3    H167565   0.419   2.545   4.088 -0.3229  0.5343  1.0894
15358TIP3    H267566   0.334   2.469   4.188 -2.5533  0.1456 -1.0614
15359TIP3   OH267567   4.673   4.030   2.375  0.7069  0.3626  0.0497
15359TIP3    H167568   4.656   3.995   2.463 -0.7484  0.0367 -0.3453
15359TIP3    H267569   4.750   4.086   2.386  0.0500  0.9893  1.6970
15360TIP3   OH267570   2.284   1.734   1.033  0.1805 -0.1516 -0.5562
15360TIP3    H167571   2.374   1.702   1.032 -0.3457 -1.7067 -0.8628
15360TIP3    H267572   2.240   1.683   0.964 -1.0492  0.1935 -0.0462
15361TIP3   OH267573   2.743   1.979  16.729 -0.3753  0.5252 -0.1877
15361TIP3    H167574   2.728   1.892  16.765  0.0936  0.7356  0.5296
15361TIP3    H267575   2.704   2.039  16.793 -0.2744  0.8615 -0.4358
15362TIP3   OH267576   2.622   3.274  13.293  0.4545  0.1643  0.5233
15362TIP3    H167577   2.582   3.360  13.300  0.9572  0.3233  1.5139
15362TIP3    H267578   2.690   3.284  13.227 -1.1740 -0.1321 -1.2581
15363TIP3   OH267579   3.550   2.884  13.156  0.2434 -0.2118 -0.2914
15363TIP3    H167580   3.493   2.862  13.230  0.7507 -0.7357 -0.0581
15363TIP3    H267581   3.536   2.813  13.093 -1.4063  1.0338 -1.4104
15364TIP3   OH267582   1.766   2.122  13.880 -0.3365  0.3669  0.9471
15364TIP3    H167583   1.810   2.207  13.873 -0.0374  0.2133  0.9485
15364TIP3    H267584   1.818   2.064  13.824  0.0883 -0.0710  1.7970
15365TIP3   OH267585   2.933   4.958   4.133 -0.7290  0.1847  0.8071
15365TIP3    H167586   2.845   4.944   4.098 -0.6093 -1.0408  0.9434
15365TIP3    H267587   2.962   5.041   4.096 -1.9123  0.5539  0.6963
15366TIP3   OH267588   3.464   0.525  13.281 -0.2288 -0.2880  0.1274
15366TIP3    H167589   3.405   0.491  13.348 -1.4465 -0.0880 -0.8430
15366TIP3    H267590   3.409   0.580  13.226  0.9759  0.3302 -0.4738
15367TIP3   OH267591   1.213   6.594   5.488  0.2081  0.1928 -0.4793
15367TIP3    H167592   1.173   6.615   5.572  1.4580 -0.2192  0.2402
15367TIP3    H267593   1.278   6.527   5.509  1.5067  1.0993 -1.5469
15368TIP3   OH267594   3.593   2.123  12.250 -1.1484 -0.1886 -0.3783
15368TIP3    H167595   3.633   2.064  12.186 -0.7407 -1.6691  1.1756
15368TIP3    H267596   3.659   2.189  12.267  0.2340 -1.9147  1.2480
15369TIP3   OH267597   6.530   0.972  12.226  0.0438 -0.2075  0.6471
15369TIP3    H167598   6.571   0.887  12.212  0.6156  0.4752 -1.9988
15369TIP3    H267599   6.544   1.020  12.144 -0.3484  2.4011  2.0460
15370TIP3   OH267600   3.078   0.540   0.605 -0.0489  0.3175  0.3093
15370TIP3    H167601   3.086   0.450   0.637  0.3897  0.1724 -0.2013
15370TIP3    H267602   3.083   0.594   0.684 -1.1506 -0.1452  0.7000
15371TIP3   OH267603   2.926   5.299   1.051 -0.4573  0.0271 -0.2469
15371TIP3    H167604   2.960   5.302   0.962 -0.4780 -1.3301 -0.2994
15371TIP3    H267605   2.880   5.216   1.057 -0.4400  0.1007  1.0427
15372TIP3   OH267606   0.136   4.394   5.679 -0.4251 -0.5429  0.5340
15372TIP3    H167607   0.210   4.408   5.738 -1.6322  1.0537  1.7141
15372TIP3    H267608   0.102   4.482   5.663 -0.6582 -1.0357 -1.8682
15373TIP3   OH267609   2.836   2.969   2.523  0.1050  0.1305 -0.0318
15373TIP3    H167610   2.747   2.936   2.521  0.6121 -1.2536 -0.0465
15373TIP3    H267611   2.837   3.041   2.460 -0.9497  0.0396 -0.1492
15374TIP3   OH267612   6.378   1.326  12.324  0.4823 -0.2098  0.2742
15374TIP3    H167613   6.454   1.304  12.271  0.4215 -2.6487  1.1302
15374TIP3    H267614   6.303   1.302  12.270  0.4145 -2.2594  1.2477
15375TIP3   OH267615   4.051   3.722   4.273  0.0248  0.2901  0.5270
15375TIP3    H167616   4.095   3.639   4.293  0.9212  0.7574  0.5494
15375TIP3    H267617   4.021   3.754   4.358  0.5936  0.4834  0.6614
15376TIP3   OH267618   4.705   5.553   4.732 -0.4378  0.0373  0.6366
15376TIP3    H167619   4.697   5.470   4.779 -0.1500 -0.2984  0.0920
15376TIP3    H267620   4.763   5.606   4.787 -0.2977 -0.2662  0.7807
15377TIP3   OH267621   1.388   5.290  16.931 -0.6955  0.1165  0.1069
15377TIP3    H167622   1.451   5.267  17.000 -1.9243  0.8961  1.4961
15377TIP3    H267623   1.441   5.333  16.864  0.3885  0.0521  0.9097
15378TIP3   OH267624   5.193   2.593   1.673 -0.6384  0.1037 -0.4780
15378TIP3    H167625   5.221   2.654   1.741 -2.2261  1.4556 -0.9936
15378TIP3    H267626   5.117   2.548   1.711 -1.3257  0.6235 -1.2219
15379TIP3   OH267627   2.845   2.673   3.819  0.5266  0.0384  0.6794
15379TIP3    H167628   2.768   2.720   3.786  0.6862  1.0818  1.7407
15379TIP3    H267629   2.842   2.588   3.776 -0.5286  0.5335 -0.2434
15380TIP3   OH267630   5.880   4.118  16.324 -0.2816 -0.3764 -0.2267
15380TIP3    H167631   5.906   4.092  16.413 -0.2939  1.6800  0.3939
15380TIP3    H267632   5.789   4.147  16.334 -0.7170 -1.3619 -1.1803
15381TIP3   OH267633   3.232   5.699   2.527 -0.4932  0.2937 -0.4474
15381TIP3    H167634   3.192   5.656   2.452 -0.1209  0.9190 -1.0199
15381TIP3    H267635   3.163   5.757   2.561  0.1596  2.0071 -1.9510
15382TIP3   OH267636   6.649   1.621  15.227 -0.0443  0.4405 -0.3770
15382TIP3    H167637   6.699   1.665  15.158 -1.8937  3.0973 -0.1081
15382TIP3    H267638   6.704   1.628  15.304  1.1849 -0.8071 -1.1259
15383TIP3   OH267639   1.519   1.704  13.851  0.2124 -0.7101 -0.6466
15383TIP3    H167640   1.592   1.733  13.906 -0.8697 -0.5242  0.7237
15383TIP3    H267641   1.560   1.654  13.781  1.6151 -1.0733  0.4069
15384TIP3   OH267642   3.521   0.231  13.265  0.0872 -0.1992 -0.3474
15384TIP3    H167643   3.593   0.201  13.320 -0.7451  0.5924  1.1885
15384TIP3    H267644   3.459   0.158  13.264  0.5706 -0.6084 -1.0971
15385TIP3   OH267645   0.155   5.865  15.136  0.0526 -0.5845  0.8921
15385TIP3    H167646   0.092   5.793  15.134  0.5721 -1.0189 -1.0431
15385TIP3    H267647   0.106   5.940  15.103  0.7508 -1.1272 -1.4788
15386TIP3   OH267648   4.407   1.254  16.393  1.0672  0.1814  0.0749
15386TIP3    H167649   4.389   1.207  16.312 -1.8628 -0.2183  0.9114
15386TIP3    H267650   4.450   1.334  16.365 -0.0808  0.1399 -1.8978
15387TIP3   OH267651   1.082   1.002  15.608  0.2060 -0.8215 -0.0367
15387TIP3    H167652   1.082   0.927  15.668  1.1044 -0.7994  0.0029
15387TIP3    H267653   1.080   0.963  15.521  2.1374 -0.9515 -0.0530
15388TIP3   OH267654   0.401   0.453  16.738  0.8982 -0.3240 -0.2423
15388TIP3    H167655   0.402   0.490  16.650 -1.4042  2.1073  0.7063
15388TIP3    H267656   0.429   0.524  16.795 -1.6041 -0.5918  1.4002
15389TIP3   OH267657   5.057   5.045  12.837  0.5323  0.1314  0.5874
15389TIP3    H167658   5.152   5.052  12.829  0.5652 -1.4858 -0.7337
15389TIP3    H267659   5.043   4.961  12.882 -0.3075 -0.5758 -0.9655
15390TIP3   OH267660   1.539   2.949   5.170 -0.1336  0.3556 -0.1202
15390TIP3    H167661   1.527   2.967   5.263 -0.5941 -2.3076  0.3607
15390TIP3    H267662   1.470   2.886   5.148 -0.0631  0.9957 -2.2819
15391TIP3   OH267663   5.537   3.814  14.553  0.0195 -0.5425  0.0272
15391TIP3    H167664   5.472   3.865  14.601  0.5281 -0.5196  0.7102
15391TIP3    H267665   5.518   3.830  14.461 -1.7687 -1.5776  0.2040
15392TIP3   OH267666   5.197   3.148  14.607  0.3104  0.0378 -0.3428
15392TIP3    H167667   5.218   3.170  14.516 -0.0478 -0.0780 -0.4551
15392TIP3    H267668   5.260   3.080  14.631  1.2528  1.0016 -0.0755
15393TIP3   OH267669   4.900   6.248  13.640  0.1293  0.0488 -0.6203
15393TIP3    H167670   4.871   6.158  13.649  0.4733 -0.1431 -1.3913
15393TIP3    H267671   4.967   6.259  13.707 -0.7905  0.1126  0.3116
15394TIP3   OH267672   2.373   3.112  12.361 -0.3170 -0.0172 -0.1114
15394TIP3    H167673   2.386   3.066  12.278  1.6454 -0.4634  0.4032
15394TIP3    H267674   2.411   3.198  12.347  0.2733 -0.1883  0.3908
15395TIP3   OH267675   5.286   0.939  17.060  0.4678 -0.1285  0.7222
15395TIP3    H167676   5.316   0.880  17.129  0.3022 -0.3848  0.5713
15395TIP3    H267677   5.215   0.892  17.017 -0.0759  0.4331  1.0006
15396TIP3   OH267678   2.155   1.439   2.051  0.4047 -0.1214  0.1950
15396TIP3    H167679   2.120   1.374   1.990  1.7366  1.0812 -1.8861
15396TIP3    H267680   2.243   1.407   2.072  1.2458  1.2334 -1.2104
15397TIP3   OH267681   0.270   0.911   5.730  0.5475  0.6211 -0.1705
15397TIP3    H167682   0.243   0.891   5.820  0.5412 -0.2282 -0.3506
15397TIP3    H267683   0.366   0.909   5.733  0.5529  1.1069 -0.0701
15398TIP3   OH267684   1.480   4.196  12.303 -0.0473 -0.1168 -0.3146
15398TIP3    H167685   1.513   4.182  12.391  0.8050 -1.0188 -0.7594
15398TIP3    H267686   1.407   4.257  12.313  1.6052  1.7459  0.7140
15399TIP3   OH267687   4.939   1.696   1.547  0.0937 -0.3937  0.1904
15399TIP3    H167688   4.917   1.604   1.564  0.5692 -0.0860  2.6452
15399TIP3    H267689   5.025   1.693   1.505 -0.6277 -1.1416 -1.2539
15400TIP3   OH267690   4.171   5.882   1.742  0.2773  0.0114  0.4515
15400TIP3    H167691   4.217   5.824   1.802  0.0048  0.0864  0.7314
15400TIP3    H267692   4.092   5.908   1.789 -0.7400 -1.2033 -0.5411
15401TIP3   OH267693   4.585   0.554   0.294 -0.2163  0.5414 -0.5746
15401TIP3    H167694   4.646   0.626   0.274  1.3596 -1.2302 -2.3742
15401TIP3    H267695   4.640   0.476   0.295 -2.1790 -0.8677 -0.3851
15402TIP3   OH267696   5.607   2.205  14.736  0.0172 -0.0491  0.0213
15402TIP3    H167697   5.578   2.146  14.666  3.7762 -0.8008 -1.0158
15402TIP3    H267698   5.635   2.284  14.691  1.7182 -0.2348  0.7172
15403TIP3   OH267699   5.220   3.649  13.641 -0.0393 -0.1452 -0.1329
15403TIP3    H167700   5.214   3.741  13.614 -0.6075  0.0603  0.6914
15403TIP3    H267701   5.309   3.640  13.676 -0.5317  0.5171  1.3234
15404TIP3   OH267702   6.815   2.498  15.621 -0.2791  0.3211 -0.0621
15404TIP3    H167703   6.904   2.470  15.599 -0.0631  0.4453  0.6437
15404TIP3    H267704   6.762   2.470  15.547  0.4446  0.7666 -0.7599
15405TIP3   OH267705   3.859   2.714  15.022  0.2019  0.1932 -0.0750
15405TIP3    H167706   3.786   2.657  15.044  0.5882 -0.0015  0.7193
15405TIP3    H267707   3.825   2.803  15.035  0.0924  0.1054  0.2268
15406TIP3   OH267708   2.874   1.868   4.165 -0.1782  0.1893  0.5577
15406TIP3    H167709   2.903   1.959   4.166 -1.3730  0.6530 -2.4742
15406TIP3    H267710   2.854   1.848   4.257  4.3788  1.5101  1.9553
15407TIP3   OH267711   6.662   5.046   1.761  0.3858 -0.2781 -0.0670
15407TIP3    H167712   6.666   5.013   1.671 -0.8000 -1.1210  0.1893
15407TIP3    H267713   6.754   5.057   1.786  0.7183  0.2938 -1.4980
15408TIP3   OH267714   0.561   3.273   4.222  0.3637  0.4302 -0.1532
15408TIP3    H167715   0.630   3.208   4.213  0.2184  0.4488 -1.5068
15408TIP3    H267716   0.566   3.325   4.142 -0.0751  1.5514  0.5271
15409TIP3   OH267717   3.503   2.261  11.289  0.1488  0.0420  0.2481
15409TIP3    H167718   3.469   2.188  11.341 -0.1039 -0.6480 -0.8745
15409TIP3    H267719   3.436   2.328  11.295 -0.4645 -0.5239 -0.2390
15410TIP3   OH267720   0.703   5.501   0.192  0.0293 -0.0296  0.5324
15410TIP3    H167721   0.619   5.531   0.158  0.2849 -0.1945 -0.2522
15410TIP3    H267722   0.681   5.450   0.270 -0.5169  0.9119  1.0063
15411TIP3   OH267723   2.722   1.416   1.416  0.2963  0.2976 -0.6166
15411TIP3    H167724   2.783   1.467   1.470 -1.2973  0.1315  1.3982
15411TIP3    H267725   2.735   1.326   1.444 -1.2527  0.3262  0.2724
15412TIP3   OH267726   6.507   3.421  13.946  0.2093  0.1876 -0.3568
15412TIP3    H167727   6.580   3.384  13.897 -0.4914 -1.8503  0.0775
15412TIP3    H267728   6.455   3.345  13.973 -0.9346  1.4543  1.1292
15413TIP3   OH267729   1.000   4.907   3.192  0.1780 -0.9536 -0.5392
15413TIP3    H167730   0.985   4.893   3.286 -1.6865 -1.3258 -0.8684
15413TIP3    H267731   1.017   5.001   3.184  3.0270 -1.3377  0.4757
15414TIP3   OH267732   6.140   2.138  13.657  0.1424  0.2292 -0.3032
15414TIP3    H167733   6.208   2.162  13.593 -0.3479  1.6647 -0.3086
15414TIP3    H267734   6.187   2.089  13.724  1.4439  2.2777  0.3202
15415TIP3   OH267735   1.989   5.908   0.548 -0.2035 -0.0773 -0.0108
15415TIP3    H167736   1.991   5.815   0.572  0.8885  0.3319  1.5438
15415TIP3    H267737   1.976   5.908   0.453  4.0894 -1.9230 -0.6992
15416TIP3   OH267738   3.499   6.520   6.560  0.0773  0.1545  0.0873
15416TIP3    H167739   3.526   6.499   6.650 -0.3935 -0.5329  0.0782
15416TIP3    H267740   3.425   6.580   6.570 -0.9284 -1.0795  0.2014
15417TIP3   OH267741   1.014   0.348  14.969 -0.8750  0.1776  0.0474
15417TIP3    H167742   0.971   0.262  14.974  0.6607 -0.6735 -1.0879
15417TIP3    H267743   0.959   0.405  15.023 -2.4031 -1.3106  0.1075
15418TIP3   OH267744   6.608   2.988   2.569  0.0757  0.1122 -0.0749
15418TIP3    H167745   6.703   2.975   2.566  0.0675  0.3660 -3.0873
15418TIP3    H267746   6.592   3.062   2.510 -2.1116 -0.7419 -0.5923
15419TIP3   OH267747   5.712   5.665   1.810  0.7723  0.5667 -0.5609
15419TIP3    H167748   5.772   5.725   1.766  0.4116  0.4312 -1.2444
15419TIP3    H267749   5.636   5.720   1.832 -0.6904 -0.1521 -3.4909
15420TIP3   OH267750   6.682   5.151  12.516  1.0492  0.3196 -0.3083
15420TIP3    H167751   6.755   5.191  12.469  0.4477  1.5459 -0.2284
15420TIP3    H267752   6.639   5.224  12.561 -0.0645 -0.4184 -0.1408
15421TIP3   OH267753   4.771   1.725   1.804 -1.1516 -0.0133 -0.3577
15421TIP3    H167754   4.762   1.791   1.735 -2.1456  0.5739  0.3323
15421TIP3    H267755   4.696   1.667   1.792 -1.0253 -0.2303 -0.1109
15422TIP3   OH267756   4.166   6.732  13.237 -0.1014  0.2267 -0.1104
15422TIP3    H167757   4.113   6.779  13.173 -1.0329 -1.2539 -0.4409
15422TIP3    H267758   4.175   6.643  13.201 -1.1750 -0.8013  2.0997
15423TIP3   OH267759   3.053   2.264  11.536  0.3119 -0.0386 -0.4050
15423TIP3    H167760   3.013   2.177  11.536  1.5980 -0.6530 -1.5407
15423TIP3    H267761   2.988   2.320  11.492 -0.9707 -0.1653  1.2434
15424TIP3   OH267762   4.001   1.787  14.910 -0.2576  0.1635  0.0663
15424TIP3    H167763   3.990   1.843  14.833  1.5788  1.2012  0.5104
15424TIP3    H267764   4.038   1.706  14.876 -1.3297 -0.1492 -0.3748
15425TIP3   OH267765   2.572   0.153  15.912  0.1814 -0.8844 -0.0579
15425TIP3    H167766   2.530   0.217  15.856  1.3442  0.6922  0.8240
15425TIP3    H267767   2.507   0.084  15.925 -1.6607  0.9088  0.3055
15426TIP3   OH267768   4.798   3.720   6.155 -0.1921  0.1656  0.0157
15426TIP3    H167769   4.808   3.687   6.245  2.1429  0.6934 -0.0165
15426TIP3    H267770   4.813   3.814   6.162 -1.6677  0.4762 -0.7011
15427TIP3   OH267771   0.361   6.799   2.529  0.0896 -0.0201  0.6311
15427TIP3    H167772   0.432   6.775   2.468  0.0082 -0.7849  0.8241
15427TIP3    H267773   0.339   6.889   2.506  0.7648  0.0466  0.2145
15428TIP3   OH267774   4.233   0.714   0.084 -0.3479  0.3815  0.5279
15428TIP3    H167775   4.240   0.800   0.127 -3.7278  1.1684 -0.3329
15428TIP3    H267776   4.307   0.712   0.023  0.5901  2.0700  1.5417
15429TIP3   OH267777   1.373   4.128   1.275  0.6360 -0.2873  0.1580
15429TIP3    H167778   1.406   4.203   1.226  2.9516 -0.8544  0.7814
15429TIP3    H267779   1.343   4.165   1.358  1.3202  0.0278  0.2692
15430TIP3   OH267780   2.939   2.169   1.744 -0.2377  0.4425  0.8987
15430TIP3    H167781   2.902   2.254   1.770  0.6583  0.4505  2.2005
15430TIP3    H267782   3.033   2.179   1.758 -0.1617 -0.8950  1.3838
15431TIP3   OH267783   5.263   0.520   5.042  0.5031 -0.3827 -0.6356
15431TIP3    H167784   5.312   0.602   5.047  0.9683 -0.6414 -0.8565
15431TIP3    H267785   5.308   0.470   4.973  0.4037 -0.9364 -0.3024
15432TIP3   OH267786   5.042   3.458   0.033  0.8845 -0.5025 -0.0914
15432TIP3    H167787   5.011   3.507   0.109  0.5941 -1.0972  0.1819
15432TIP3    H267788   5.136   3.448   0.047  1.4433  2.3427 -1.5110
15433TIP3   OH267789   3.060   3.741  13.668  0.0059  0.0573 -0.6545
15433TIP3    H167790   2.995   3.811  13.673 -0.9342 -0.8575  0.1885
15433TIP3    H267791   3.118   3.766  13.596 -1.9219  0.3329 -2.1462
15434TIP3   OH267792   1.784   5.500   5.128  0.4097 -0.1496 -0.4821
15434TIP3    H167793   1.767   5.541   5.043 -1.6332 -0.8857 -0.4689
15434TIP3    H267794   1.748   5.562   5.192  0.9988 -0.0840 -0.2128
15435TIP3   OH267795   6.109   2.765   1.553  0.5936 -0.8166  0.8436
15435TIP3    H167796   6.065   2.760   1.468  1.4665 -0.5999  0.3773
15435TIP3    H267797   6.042   2.737   1.616 -0.7512  1.1666  0.3206
15436TIP3   OH267798   0.925   5.673   3.824 -0.5622  0.0122  0.1881
15436TIP3    H167799   0.895   5.758   3.854 -1.2408 -0.3347  0.5097
15436TIP3    H267800   0.881   5.610   3.882 -2.3324 -0.6987 -1.8560
15437TIP3   OH267801   4.089   0.990   5.545 -0.3063  0.0017 -0.7630
15437TIP3    H167802   3.995   0.999   5.559 -0.5478 -2.3448 -0.5923
15437TIP3    H267803   4.129   1.052   5.605 -1.7487  1.5711 -1.3796
15438TIP3   OH267804   0.971   0.006  12.450  0.5120 -0.1980 -0.2791
15438TIP3    H167805   0.984   0.046  12.364 -1.5542  0.6353 -0.2525
15438TIP3    H267806   0.963  -0.088  12.432 -0.8069  0.0570 -1.1466
15439TIP3   OH267807   4.941   4.643   1.125 -0.1766  0.0710  0.0289
15439TIP3    H167808   5.023   4.684   1.095 -0.2850  0.6612  0.5109
15439TIP3    H267809   4.963   4.606   1.210 -1.0914  2.6034  1.4166
15440TIP3   OH267810   1.704   3.773  15.832 -0.2935 -0.3280 -0.1660
15440TIP3    H167811   1.724   3.853  15.782 -1.0053  0.2518  0.4593
15440TIP3    H267812   1.629   3.735  15.787 -1.7647  0.8773  1.1515
15441TIP3   OH267813   3.079   5.988   0.738 -0.3251  0.3937  0.3044
15441TIP3    H167814   3.071   6.063   0.679  0.0548  1.5669  1.7178
15441TIP3    H267815   3.173   5.972   0.745 -0.4503 -0.8691 -0.7884
15442TIP3   OH267816   0.989   2.133  12.424  0.0834  0.3770 -0.3876
15442TIP3    H167817   0.931   2.072  12.377  0.4750  0.9534 -1.6243
15442TIP3    H267818   1.017   2.084  12.501  0.4257 -1.0260 -1.3923
15443TIP3   OH267819   3.161   1.582   0.890  0.1139 -0.4425 -0.6909
15443TIP3    H167820   3.211   1.583   0.809 -1.3420 -0.1151 -1.6027
15443TIP3    H267821   3.081   1.533   0.869 -0.0768 -0.7564  0.6721
15444TIP3   OH267822   6.638   0.223  12.321 -0.3758 -0.1705 -0.2458
15444TIP3    H167823   6.724   0.184  12.335  0.2273  1.1510 -0.2212
15444TIP3    H267824   6.645   0.270  12.238 -0.8527  0.5377  0.1043
15445TIP3   OH267825   3.199   3.403  15.149 -0.1204  0.0170 -0.3595
15445TIP3    H167826   3.246   3.478  15.185 -1.5866  0.6226  0.3335
15445TIP3    H267827   3.109   3.415  15.179 -0.3330 -2.1187 -0.0768
15446TIP3   OH267828   2.049   1.026   5.822 -0.1501  0.0945  0.2513
15446TIP3    H167829   2.116   0.965   5.790  0.1717 -0.4648  1.9390
15446TIP3    H267830   2.033   1.085   5.748  0.1780 -1.4888 -1.1164
15447TIP3   OH267831   2.482   5.163  11.782  0.6789 -0.1163 -0.3870
15447TIP3    H167832   2.453   5.169  11.873  1.1688  0.0703 -0.2444
15447TIP3    H267833   2.482   5.254  11.751 -0.2550 -0.2532 -0.8122
15448TIP3   OH267834   0.747   1.767   4.140 -0.6415  0.5737 -0.3353
15448TIP3    H167835   0.838   1.775   4.112  0.0396 -0.8261  1.3656
15448TIP3    H267836   0.745   1.687   4.193 -2.8689  0.5624 -0.3854
15449TIP3   OH267837   3.316   6.754  16.950 -0.4770 -0.1453 -0.5132
15449TIP3    H167838   3.236   6.733  16.997 -2.1242  2.1881 -2.1377
15449TIP3    H267839   3.384   6.757  17.017 -1.5679 -2.8098  0.8000
15450TIP3   OH267840   3.326   4.118   1.175 -0.0863 -0.6251  0.2993
15450TIP3    H167841   3.310   4.182   1.106  0.8482 -0.7596 -0.0505
15450TIP3    H267842   3.239   4.083   1.196 -0.5629  0.4870  0.2396
15451TIP3   OH267843   5.269   6.088   4.863  0.0885 -0.4915 -0.3546
15451TIP3    H167844   5.346   6.145   4.863 -1.3388  1.5151 -1.0950
15451TIP3    H267845   5.248   6.078   4.770 -1.4654  0.3145 -0.1001
15452TIP3   OH267846   4.874   2.612   5.491  0.5044  0.5300  0.2963
15452TIP3    H167847   4.947   2.673   5.493  0.4778  0.5281  2.6347
15452TIP3    H267848   4.902   2.539   5.545 -0.0452 -0.8684 -1.2775
15453TIP3   OH267849   3.655   1.782  13.132 -0.2183 -0.4141 -0.2009
15453TIP3    H167850   3.660   1.769  13.227  0.1280  1.1168  0.0172
15453TIP3    H267851   3.641   1.695  13.096 -2.4884 -0.7480  1.4027
15454TIP3   OH267852   5.668   2.248   4.837 -0.0247  0.6108 -0.2424
15454TIP3    H167853   5.674   2.332   4.881 -1.4259 -0.1067  1.3559
15454TIP3    H267854   5.671   2.183   4.907  0.8044 -0.6737 -1.4313
15455TIP3   OH267855   4.581   2.654  15.114  0.8464  0.0008  0.2509
15455TIP3    H167856   4.570   2.702  15.031 -3.0243 -0.3403  0.4892
15455TIP3    H267857   4.606   2.566  15.087  2.6546  0.6643 -0.3799
15456TIP3   OH267858   3.423   3.127  10.786 -0.1603  0.0678  0.4291
15456TIP3    H167859   3.345   3.107  10.736  0.5821  0.9951 -1.1330
15456TIP3    H267860   3.444   3.217  10.763  0.3149  0.4564  2.2635
15457TIP3   OH267861   1.368   2.870   0.531  0.0202  0.3203 -0.4866
15457TIP3    H167862   1.330   2.808   0.469 -0.2223 -1.4764  1.4444
15457TIP3    H267863   1.300   2.884   0.596  1.4303 -0.3299  1.1577
15458TIP3   OH267864   1.660   3.935   4.383 -0.2024 -0.0395 -0.0813
15458TIP3    H167865   1.650   4.031   4.387  0.6147  0.0782 -0.7705
15458TIP3    H267866   1.684   3.910   4.472 -1.0543  0.3193  0.2582
15459TIP3   OH267867   0.427   2.305  15.258 -0.6848 -0.3698  0.2858
15459TIP3    H167868   0.493   2.344  15.200  1.3923 -0.2391  2.6762
15459TIP3    H267869   0.387   2.236  15.205  2.3078 -1.3502 -0.7942
15460TIP3   OH267870   2.064   6.392  16.252  0.1073 -0.0191  0.0528
15460TIP3    H167871   2.070   6.297  16.244  1.3527  0.0211  0.3803
15460TIP3    H267872   2.083   6.410  16.344  0.0084  0.5610 -0.0378
15461TIP3   OH267873   0.981   6.500  14.881 -0.5771 -0.0525 -0.0115
15461TIP3    H167874   1.005   6.508  14.974  0.5764 -0.0256 -0.3074
15461TIP3    H267875   0.995   6.407  14.861 -3.5766 -0.6619  0.5813
15462TIP3   OH267876   2.671   1.334   0.187  0.1554 -0.5808  0.0064
15462TIP3    H167877   2.587   1.373   0.210 -0.3257 -0.4990 -1.8005
15462TIP3    H267878   2.729   1.409   0.173  0.3987 -0.6244  0.7945
15463TIP3   OH267879   3.886   0.242   2.951 -0.7367  0.1384  0.3366
15463TIP3    H167880   3.800   0.278   2.971 -1.2930 -0.3450 -1.0979
15463TIP3    H267881   3.932   0.314   2.907 -0.6986  0.1462  0.3902
15464TIP3   OH267882   1.838   5.398   6.123 -0.9318 -0.6130  0.2773
15464TIP3    H167883   1.866   5.326   6.179 -0.8585 -2.1094 -1.6411
15464TIP3    H267884   1.835   5.361   6.035 -2.1477  1.3853 -0.5684
15465TIP3   OH267885   4.080   3.824  12.318  0.0382  0.0329  0.4528
15465TIP3    H167886   4.173   3.802  12.319  0.5765  2.1754  1.8920
15465TIP3    H267887   4.045   3.786  12.398 -0.1400 -0.0824  0.3198
15466TIP3   OH267888   2.541   0.592   3.772  0.0643  0.1996 -0.4542
15466TIP3    H167889   2.445   0.600   3.773  0.1090  0.7454  0.4468
15466TIP3    H267890   2.558   0.498   3.768 -0.5075  0.1532 -2.2411
15467TIP3   OH267891   1.884   3.733   4.862  0.4454 -0.1874  0.2106
15467TIP3    H167892   1.886   3.637   4.862 -0.6599 -0.2158 -0.2317
15467TIP3    H267893   1.965   3.758   4.817  1.1819 -0.8852  1.1052
15468TIP3   OH267894   1.643   0.811   1.375 -0.1317  0.8038  0.4391
15468TIP3    H167895   1.639   0.906   1.379 -1.1272  0.7057  2.2412
15468TIP3    H267896   1.556   0.782   1.404  0.3359 -0.6583  0.4196
15469TIP3   OH267897   0.789   2.812   1.428 -0.6806  0.8295  0.0723
15469TIP3    H167898   0.877   2.773   1.434 -1.5257 -1.1487 -0.0164
15469TIP3    H267899   0.780   2.837   1.336 -1.4390 -1.9931 -0.6581
15470TIP3   OH267900   0.494   6.708  13.852  0.1414  0.0831  0.1306
15470TIP3    H167901   0.488   6.614  13.869  0.0665  0.3393  1.6269
15470TIP3    H267902   0.511   6.715  13.758 -4.3991 -1.3076 -0.9480
15471TIP3   OH267903   0.736   2.088  14.691  0.6056 -0.6387 -0.5938
15471TIP3    H167904   0.716   2.181  14.698  0.5973 -0.6426 -0.5681
15471TIP3    H267905   0.797   2.082  14.617  0.1573 -0.6739 -0.9676
15472TIP3   OH267906   4.881   4.077  12.484 -0.5011  0.1696 -0.1699
15472TIP3    H167907   4.893   4.125  12.402 -0.6507 -0.8988 -0.8320
15472TIP3    H267908   4.961   4.094  12.533  0.6330 -1.0938 -1.5389
15473TIP3   OH267909   0.264   0.627  12.465 -1.1955  0.1758 -0.1454
15473TIP3    H167910   0.323   0.562  12.427 -0.0057  0.3245  1.3712
15473TIP3    H267911   0.232   0.677  12.390  1.9447  1.1800 -0.9165
15474TIP3   OH267912   5.283   2.319  17.237  0.5220 -0.3493  0.3366
15474TIP3    H167913   5.323   2.233  17.226  0.1991 -0.5261  0.5228
15474TIP3    H267914   5.333   2.377  17.179  0.2524 -0.8165 -0.3772
15475TIP3   OH267915   5.946   3.063   4.861  0.0377 -0.3231 -0.0393
15475TIP3    H167916   5.910   3.100   4.780 -1.1558  0.5853  0.8937
15475TIP3    H267917   5.974   2.975   4.835 -1.4729 -0.5080 -1.1667
15476TIP3   OH267918   5.008   2.089  13.089 -0.0465  0.1229 -0.3166
15476TIP3    H167919   4.945   2.160  13.089  1.1165  1.2142 -2.1423
15476TIP3    H267920   4.959   2.013  13.118 -1.0944  1.8224  2.4848
15477TIP3   OH267921   6.309   3.288  14.103  0.4418 -0.0209  0.0331
15477TIP3    H167922   6.271   3.356  14.158 -0.1000  0.8334 -1.3901
15477TIP3    H267923   6.234   3.241  14.066  0.8062 -0.6885  0.1211
15478TIP3   OH267924   6.614   1.915   1.763 -0.3486  0.3328 -0.4765
15478TIP3    H167925   6.680   1.852   1.790 -1.7298 -0.9613 -0.0699
15478TIP3    H267926   6.653   2.001   1.782  0.7263 -0.4389  0.8707
15479TIP3   OH267927   5.762   2.888  11.475 -0.0333  0.3664 -0.2951
15479TIP3    H167928   5.803   2.802  11.472 -1.0310 -0.0939 -0.7467
15479TIP3    H267929   5.812   2.941  11.412 -0.9371 -0.5462 -1.7981
15480TIP3   OH267930   3.544   5.864  13.522 -0.1513  0.0433  0.0463
15480TIP3    H167931   3.548   5.959  13.530  0.5477 -0.0476  0.8467
15480TIP3    H267932   3.472   5.848  13.461 -1.0872  1.0387  0.8687
15481TIP3   OH267933   0.926   0.038  11.734 -0.1049  0.1092 -0.4712
15481TIP3    H167934   0.962   0.037  11.645 -1.2138 -0.4934 -0.9225
15481TIP3    H267935   0.886   0.125  11.743  1.4359  0.7935  0.0441
15482TIP3   OH267936   5.092   2.827   3.718  0.0125 -0.3731  0.2497
15482TIP3    H167937   5.087   2.780   3.801 -0.4790  1.0757  1.0719
15482TIP3    H267938   5.062   2.764   3.653  2.2060 -2.1469  0.8944
15483TIP3   OH267939   2.451   0.175  16.388  0.2374 -0.0103  0.4601
15483TIP3    H167940   2.472   0.237  16.458  1.0619  0.7353 -0.4447
15483TIP3    H267941   2.528   0.175  16.332 -0.4821 -0.5040 -0.5318
15484TIP3   OH267942   6.685   0.636   1.665 -0.3436 -0.2078  0.1160
15484TIP3    H167943   6.650   0.663   1.749  0.8675 -0.9242  0.8610
15484TIP3    H267944   6.643   0.694   1.601 -1.1553  0.4210  1.2220
15485TIP3   OH267945   4.601   1.441  16.727 -0.4843 -0.2950  0.1826
15485TIP3    H167946   4.555   1.470  16.649 -0.0167  0.4050  0.1687
15485TIP3    H267947   4.693   1.458  16.709 -0.4653  0.8903  1.3050
15486TIP3   OH267948   2.314   5.058  12.287  0.4781 -0.0021 -0.0178
15486TIP3    H167949   2.278   4.971  12.269  0.7805 -0.3264  0.9165
15486TIP3    H267950   2.400   5.040  12.326  0.2459  0.7044  0.8278
15487TIP3   OH267951   2.333   3.452  13.970 -0.3703  0.0480  0.0457
15487TIP3    H167952   2.319   3.524  13.909 -0.1243  0.2894  0.2675
15487TIP3    H267953   2.253   3.450  14.023 -0.1629  0.5020  0.3823
15488TIP3   OH267954   2.683   6.321  14.404  0.1115 -0.4629  0.1107
15488TIP3    H167955   2.643   6.253  14.349 -0.4521  0.5273 -0.7214
15488TIP3    H267956   2.722   6.382  14.341 -0.1199  0.4196  0.8225
15489TIP3   OH267957   2.796   3.434  14.474 -0.0303  0.1822  0.0650
15489TIP3    H167958   2.800   3.518  14.429 -0.3169 -0.0045 -0.3120
15489TIP3    H267959   2.799   3.456  14.567  0.6267  0.5596 -0.0461
15490TIP3   OH267960   0.787   4.053   0.276  0.1988  0.2484  0.5153
15490TIP3    H167961   0.808   4.031   0.185 -0.2221  2.5144 -0.1562
15490TIP3    H267962   0.871   4.078   0.315  0.3047 -0.2824  0.6338
15491TIP3   OH267963   2.522   4.778  14.858  0.5769 -0.2884 -0.1198
15491TIP3    H167964   2.529   4.760  14.764 -1.3778  1.8014 -0.7077
15491TIP3    H267965   2.575   4.857  14.871  2.2898 -1.5652  0.9014
15492TIP3   OH267966   1.425   6.546  14.471 -0.2811 -0.1257 -0.1065
15492TIP3    H167967   1.490   6.603  14.430  0.5062  0.2454  1.6135
15492TIP3    H267968   1.470   6.510  14.548 -1.6959 -0.8726  0.3846
15493TIP3   OH267969   3.283   5.016   4.630 -0.1414  0.1854  0.3021
15493TIP3    H167970   3.369   5.058   4.641  0.5036 -1.3646  1.4968
15493TIP3    H267971   3.249   5.051   4.548  2.3620 -0.3778 -1.0192
15494TIP3   OH267972   2.926   4.036   0.191 -0.3587 -0.6172  0.5479
15494TIP3    H167973   2.864   3.963   0.185 -2.6356  1.2797 -0.0116
15494TIP3    H267974   2.979   4.029   0.112 -0.7937 -1.4566  0.3213
15495TIP3   OH267975   0.624   1.374   3.546  0.0615  0.0864 -0.1234
15495TIP3    H167976   0.583   1.438   3.604  0.3393 -0.6403  0.8970
15495TIP3    H267977   0.714   1.404   3.537 -0.6263  1.6125 -2.2631
15496TIP3   OH267978   1.846   2.261  17.273  0.5151 -0.0226  0.5199
15496TIP3    H167979   1.894   2.337  17.238  0.6250 -1.1412 -1.8371
15496TIP3    H267980   1.893   2.185  17.239 -2.1180 -1.1421 -0.7120
15497TIP3   OH267981   4.399   1.212   1.385 -0.2749 -0.3469  0.3330
15497TIP3    H167982   4.321   1.163   1.356  0.9251 -2.1381  0.0303
15497TIP3    H267983   4.411   1.185   1.476  0.4312 -0.6636  0.1460
15498TIP3   OH267984   3.111   5.762   6.340 -0.1493 -0.3016  0.0009
15498TIP3    H167985   3.195   5.791   6.304 -0.3327  0.6815  0.3532
15498TIP3    H267986   3.064   5.843   6.358 -1.2621 -0.8523 -0.3853
15499TIP3   OH267987   4.100   1.750  12.343 -0.0706 -0.3486 -0.1223
15499TIP3    H167988   4.103   1.658  12.314  1.6366 -0.1581 -0.6023
15499TIP3    H267989   4.079   1.744  12.436 -0.1773 -1.2123 -0.1910
15500TIP3   OH267990   5.942   4.165  15.595 -0.6302 -0.8865  0.2151
15500TIP3    H167991   6.024   4.183  15.549  0.2524 -1.4841  1.5164
15500TIP3    H267992   5.904   4.090  15.549 -0.2773 -0.8245 -0.1766
15501TIP3   OH267993   2.576   4.369   1.024 -0.2302 -0.2157 -0.2962
15501TIP3    H167994   2.491   4.346   1.062  0.3133  1.0974  1.7669
15501TIP3    H267995   2.617   4.284   1.005 -0.6963 -0.9143  1.6940
15502TIP3   OH267996   0.501   4.656   4.994 -0.2106 -0.3392  0.4704
15502TIP3    H167997   0.534   4.735   5.037 -1.5200  0.0574  0.7784
15502TIP3    H267998   0.448   4.612   5.061 -1.7807 -0.0228 -0.5242
15503TIP3   OH267999   3.336   5.407   6.122  0.1802  0.2935 -0.0934
15503TIP3    H168000   3.374   5.495   6.124 -0.4976  0.5954 -0.1913
15503TIP3    H268001   3.285   5.401   6.203 -1.1629  0.6366 -0.8855
15504TIP3   OH268002   5.094   4.393   2.487  0.0235  0.1103 -0.1812
15504TIP3    H168003   5.115   4.341   2.565  1.2975  2.0692  0.8214
15504TIP3    H268004   5.176   4.397   2.438 -1.0832 -2.2096 -2.3580
15505TIP3   OH268005   5.485   3.594  14.286 -0.4504 -0.4944 -0.2786
15505TIP3    H168006   5.491   3.687  14.310 -1.8018 -0.5814  0.4285
15505TIP3    H268007   5.575   3.570  14.263 -0.0905  1.0055 -0.5445
15506TIP3   OH268008   6.382   2.442   4.717 -0.7036 -0.3475 -0.3035
15506TIP3    H168009   6.447   2.419   4.783 -0.4861 -1.4033 -0.8786
15506TIP3    H268010   6.299   2.443   4.764 -0.0323  3.3905  0.9771
15507TIP3   OH268011   3.151   3.893   0.915 -0.3943 -0.1147  0.1469
15507TIP3    H168012   3.098   3.968   0.887 -1.6290 -1.0839 -0.1488
15507TIP3    H268013   3.241   3.920   0.898 -0.8524  1.1500 -0.3309
15508TIP3   OH268014   3.872   6.594  13.628  0.1745 -0.1345  0.2324
15508TIP3    H168015   3.938   6.634  13.570  0.4985 -0.4358  0.3969
15508TIP3    H268016   3.863   6.657  13.700  0.6885 -0.3551  0.4946
15509TIP3   OH268017   6.354   4.488   3.651  0.3365 -0.3507  0.2264
15509TIP3    H168018   6.279   4.447   3.695 -1.1494  2.9908  1.0379
15509TIP3    H268019   6.331   4.487   3.558 -0.4462  0.0554  0.4055
15510TIP3   OH268020   3.866   1.377   3.506  0.2513  0.5097 -0.7956
15510TIP3    H168021   3.824   1.460   3.482 -0.5014 -0.1427 -1.8134
15510TIP3    H268022   3.801   1.332   3.560  0.5675  0.4930 -0.4320
15511TIP3   OH268023   1.594   2.612   4.294 -0.1082  0.3027  0.5971
15511TIP3    H168024   1.684   2.637   4.275  0.0131  0.7834  1.7978
15511TIP3    H268025   1.548   2.624   4.211  1.0938 -0.7274 -0.2415
15512TIP3   OH268026   1.725   4.510   0.487  0.2586 -0.1286 -0.3661
15512TIP3    H168027   1.680   4.593   0.475  1.6889  0.6671 -0.3859
15512TIP3    H268028   1.659   4.444   0.466 -1.3462  0.9549  1.1572
15513TIP3   OH268029   0.880   2.219   3.987  0.0823 -0.3702  0.3560
15513TIP3    H168030   0.890   2.312   3.967  1.0548 -0.4389  0.5375
15513TIP3    H268031   0.964   2.180   3.964  0.3392 -0.8886  2.1584
15514TIP3   OH268032   5.107   3.915  11.515  1.2344  0.7319 -0.3667
15514TIP3    H168033   5.153   3.988  11.474  0.3037  0.5638 -1.7691
15514TIP3    H268034   5.017   3.947  11.527  0.6949 -0.3201 -1.4554
15515TIP3   OH268035   1.147   1.278  14.141 -0.8238  0.1488 -0.2812
15515TIP3    H168036   1.101   1.354  14.179 -0.1083 -0.9062  2.8511
15515TIP3    H268037   1.217   1.260  14.204  0.8088 -1.3311 -2.4899
15516TIP3   OH268038   5.974   1.204   5.303  0.7211 -0.0236  0.3351
15516TIP3    H168039   5.990   1.151   5.225  3.0541 -0.4891  1.0895
15516TIP3    H268040   5.954   1.291   5.270  1.4052 -0.2945 -0.7934
15517TIP3   OH268041   2.282   4.325   2.590 -0.6833 -0.3070  0.6064
15517TIP3    H168042   2.287   4.270   2.669 -0.0868  0.2414  0.9513
15517TIP3    H268043   2.370   4.323   2.554 -0.6561  0.4482  0.6322
15518TIP3   OH268044   0.803   4.594   3.070 -0.2114  0.5681  0.3889
15518TIP3    H168045   0.822   4.679   3.030 -0.8512  0.2255 -0.6712
15518TIP3    H268046   0.835   4.530   3.007  1.3793 -0.0044  1.7327
15519TIP3   OH268047   0.711   2.219   0.739  0.1543 -0.3508  0.6478
15519TIP3    H168048   0.768   2.272   0.683 -0.0070  0.7786  1.5408
15519TIP3    H268049   0.696   2.273   0.817 -0.3641 -1.5299  1.3879
15520TIP3   OH268050   0.471   5.395   2.070 -0.4467  0.0076 -0.4359
15520TIP3    H168051   0.498   5.442   1.991  0.3252  0.2516 -0.0359
15520TIP3    H268052   0.518   5.312   2.066  0.2936  0.3919  0.2157
15521TIP3   OH268053   3.843   4.367   3.487  0.7537  0.1508  0.0607
15521TIP3    H168054   3.772   4.351   3.550  0.0407 -0.2346 -0.8399
15521TIP3    H268055   3.921   4.330   3.529  0.5019  0.9114  1.2246
15522TIP3   OH268056   3.053   6.734  14.144 -0.5457  0.3920  0.0765
15522TIP3    H168057   2.965   6.738  14.181 -1.6438  1.8929 -2.5868
15522TIP3    H268058   3.080   6.825  14.136  0.4743  0.0094 -0.9235
15523TIP3   OH268059   6.159   2.819  15.030  0.3576  0.0062  0.1077
15523TIP3    H168060   6.064   2.815  15.020  0.6760 -0.7244 -3.2394
15523TIP3    H268061   6.182   2.910  15.011  0.4076 -0.0459 -0.0868
15524TIP3   OH268062   1.794   5.842   3.067 -0.2206 -0.0006 -0.0508
15524TIP3    H168063   1.785   5.851   2.972 -0.2135  2.7053  0.1863
15524TIP3    H268064   1.880   5.880   3.086  0.6595 -2.3246  0.8331
15525TIP3   OH268065   0.158   2.276  10.821 -0.1878 -0.7006  0.2111
15525TIP3    H168066   0.069   2.297  10.850  0.2388  1.0750  0.3020
15525TIP3    H268067   0.147   2.202  10.762 -1.9255  0.4744 -1.0143
15526TIP3   OH268068   2.089   6.471   0.170  0.4297  0.3882  0.3168
15526TIP3    H168069   2.165   6.444   0.120  0.8946  0.6127  0.9004
15526TIP3    H268070   2.090   6.566   0.167 -1.6213  0.3969 -2.3591
15527TIP3   OH268071   2.037   3.318   6.167  0.0452 -0.2472  0.1629
15527TIP3    H168072   2.077   3.370   6.236 -0.7218  0.7253 -0.1217
15527TIP3    H268073   2.000   3.382   6.106 -1.9115 -1.1321  0.3934
15528TIP3   OH268074   1.175   1.265  17.184  0.0729 -0.1318 -0.3496
15528TIP3    H168075   1.145   1.266  17.093  0.1580 -0.9646 -0.3884
15528TIP3    H268076   1.247   1.327  17.186  1.3499 -1.5465 -1.2950
15529TIP3   OH268077   2.814   5.027   1.123 -0.5793  0.3538 -0.1177
15529TIP3    H168078   2.769   4.999   1.044 -0.5132  2.2102 -0.8364
15529TIP3    H268079   2.745   5.040   1.188 -0.7412 -0.1196 -0.2001
15530TIP3   OH268080   2.442   3.820  13.059 -0.7755  0.0763  0.2417
15530TIP3    H168081   2.528   3.780  13.042 -0.9614  0.0731 -0.7367
15530TIP3    H268082   2.396   3.814  12.975 -0.8915  2.1092  0.1353
15531TIP3   OH268083   1.566   0.150  14.931  0.0117 -0.1073  0.1370
15531TIP3    H168084   1.649   0.196  14.919  0.0213 -0.5780 -1.8196
15531TIP3    H268085   1.532   0.182  15.015  1.4635  1.1790  0.2503
15532TIP3   OH268086   2.359   0.813   2.398  0.1828  0.0548  1.0699
15532TIP3    H168087   2.291   0.772   2.345  1.2906 -0.5090  0.0390
15532TIP3    H268088   2.317   0.889   2.438 -1.4840 -1.2454  1.8074
15533TIP3   OH268089   3.819   0.200  12.046 -0.0445  0.5258  0.5457
15533TIP3    H168090   3.905   0.242  12.034 -0.3634  0.7857 -0.9915
15533TIP3    H268091   3.839   0.107  12.054  0.3157  0.4185 -1.1995
15534TIP3   OH268092   5.652   1.150   1.493 -0.1589  0.5379 -0.2256
15534TIP3    H168093   5.697   1.175   1.412 -1.2056  2.3110 -0.2912
15534TIP3    H268094   5.688   1.209   1.559  0.1259 -0.3792  0.4429
15535TIP3   OH268095   2.175   2.595  14.759 -0.4214 -0.1570  0.3797
15535TIP3    H168096   2.211   2.578  14.672 -0.4548  0.2480  0.2856
15535TIP3    H268097   2.201   2.519  14.811  0.4928  0.0905  0.2891
15536TIP3   OH268098   2.176   4.801   0.857 -0.3827  0.1166 -0.8146
15536TIP3    H168099   2.170   4.714   0.898  2.9921  0.2778  0.1853
15536TIP3    H268100   2.251   4.794   0.798  1.4088  3.0062  1.0142
15537TIP3   OH268101   6.008   2.727  13.768 -0.3582  0.1071 -0.1980
15537TIP3    H168102   6.017   2.664  13.697 -0.9957  0.4326 -0.5730
15537TIP3    H268103   5.921   2.766  13.755 -0.2007  0.6548  0.3563
15538TIP3   OH268104   0.321   5.264   3.502 -0.7098  0.4087  0.4722
15538TIP3    H168105   0.351   5.229   3.585  0.9875  0.2997 -0.1692
15538TIP3    H268106   0.374   5.220   3.436 -0.3818  2.2159 -0.5191
15539TIP3   OH268107   2.743   2.642  16.437 -0.1931 -0.2829 -0.0088
15539TIP3    H168108   2.786   2.725  16.461  2.7370 -2.0093  0.9786
15539TIP3    H268109   2.790   2.614  16.358  2.3806 -3.4947  2.5286
15540TIP3   OH268110   1.464   0.128  15.799  0.2614 -0.2285 -0.0856
15540TIP3    H168111   1.509   0.099  15.719 -0.0033  1.1836 -0.7588
15540TIP3    H268112   1.441   0.047  15.844  1.0776 -1.0263 -1.0760
15541TIP3   OH268113   2.542   6.257   3.467  0.0958 -0.6369  0.5526
15541TIP3    H168114   2.488   6.300   3.534 -0.0002  1.7769 -0.9982
15541TIP3    H268115   2.481   6.237   3.396  0.6572 -0.8879  0.1377
15542TIP3   OH268116   5.760   1.136  11.602 -0.0358  0.4224 -0.4389
15542TIP3    H168117   5.847   1.116  11.636 -0.6408  0.5043  1.2084
15542TIP3    H268118   5.763   1.107  11.510  1.6240  0.1830 -0.3365
15543TIP3   OH268119   1.898   3.751  13.886  0.5081 -0.2285 -0.0805
15543TIP3    H168120   1.876   3.805  13.962 -2.5038  0.7176 -1.5461
15543TIP3    H268121   1.909   3.815  13.815  2.8585 -1.1337 -0.5727
15544TIP3   OH268122   1.782   1.893  16.387 -0.0368 -0.3705 -0.4987
15544TIP3    H168123   1.796   1.889  16.482 -0.7284  1.8445 -0.2509
15544TIP3    H268124   1.856   1.848  16.349 -0.0087 -1.7336  1.1191
15545TIP3   OH268125   2.397   2.420   2.579 -0.1170  0.4241 -0.2459
15545TIP3    H168126   2.462   2.489   2.561 -0.3741  0.6606 -0.2728
15545TIP3    H268127   2.447   2.352   2.623  0.5200 -0.1469 -1.8034
15546TIP3   OH268128   3.700   3.896  14.789  0.0701  0.5343 -0.2451
15546TIP3    H168129   3.633   3.963  14.806  0.4516  0.5371  1.3597
15546TIP3    H268130   3.781   3.934  14.825  0.4934 -0.3571 -0.2553
15547TIP3   OH268131   5.075   3.965  10.873 -0.4742 -0.3196  0.0548
15547TIP3    H168132   5.083   4.060  10.864 -0.5507 -0.1882  1.2776
15547TIP3    H268133   5.163   3.935  10.893 -0.5412 -0.4379  0.1794
15548TIP3   OH268134   1.572   6.411   0.897  0.0405 -0.3907 -0.3338
15548TIP3    H168135   1.563   6.316   0.901  0.2276 -0.3728  0.4576
15548TIP3    H268136   1.485   6.443   0.873 -0.0517 -0.7448 -0.4776
15549TIP3   OH268137   3.703   5.447  14.244 -0.0001 -0.2909 -0.8507
15549TIP3    H168138   3.782   5.403  14.275 -0.3439 -0.3576 -0.0271
15549TIP3    H268139   3.639   5.431  14.314 -0.6221  0.0892 -1.3297
15550TIP3   OH268140   5.409   0.135  16.257 -0.4133 -0.6608  0.1310
15550TIP3    H168141   5.385   0.201  16.323 -1.1048 -0.3319 -0.4411
15550TIP3    H268142   5.444   0.186  16.184 -1.9533 -0.8283 -0.7509
15551TIP3   OH268143   1.010   0.985  11.979 -0.0089  0.2658  0.1167
15551TIP3    H168144   0.973   0.932  12.051 -0.6822 -0.6121 -0.8531
15551TIP3    H268145   1.096   0.946  11.963 -0.1419  0.0243 -0.0122
15552TIP3   OH268146   1.704   4.994  11.374  0.3005  0.2511  0.2998
15552TIP3    H168147   1.631   5.049  11.401  0.3249  0.2720  0.3212
15552TIP3    H268148   1.666   4.936  11.307 -0.1721 -0.9123  1.5455
15553TIP3   OH268149   6.223   5.157  13.951  0.1706  0.5977  0.0888
15553TIP3    H168150   6.261   5.109  13.878  0.8175  1.0039  0.1576
15553TIP3    H268151   6.220   5.248  13.922 -0.2926  0.6402  0.2690
15554TIP3   OH268152   2.758   6.345   1.320  0.5415 -0.1136 -0.2838
15554TIP3    H168153   2.740   6.342   1.226 -0.1429  2.2621 -0.2678
15554TIP3    H268154   2.817   6.420   1.330  1.8288 -1.2934  0.9964
15555TIP3   OH268155   1.045   3.354  11.574 -0.3522  0.4751 -0.1672
15555TIP3    H168156   0.989   3.411  11.522  0.7822  1.0672 -0.7605
15555TIP3    H268157   0.987   3.319  11.642 -1.5935  0.5063 -1.2044
15556TIP3   OH268158   5.787   0.924  12.167  0.4767  0.0916  1.0081
15556TIP3    H168159   5.771   0.922  12.261 -1.0092 -0.9650  0.7372
15556TIP3    H268160   5.701   0.934  12.128  1.2648  2.5243 -0.1994
15557TIP3   OH268161   3.084   1.796  13.047 -0.1938  0.2222 -0.1821
15557TIP3    H168162   3.168   1.785  13.093  1.0052  0.9249 -2.1557
15557TIP3    H268163   3.085   1.887  13.017 -0.5348 -0.4813 -2.3974
15558TIP3   OH268164   1.908   6.436   2.043 -0.1124  0.1299 -0.0539
15558TIP3    H168165   1.980   6.487   2.078  1.0617 -1.3367 -0.2821
15558TIP3    H268166   1.911   6.450   1.949 -0.5070  0.5487 -0.0055
15559TIP3   OH268167   1.294   5.046  16.179 -0.1186 -0.3148 -0.0476
15559TIP3    H168168   1.311   4.966  16.130 -0.0129 -1.2512  1.5064
15559TIP3    H268169   1.366   5.052  16.242 -0.5566  0.5814  0.3838
15560TIP3   OH268170   4.200   1.378  10.966 -0.6872  0.3763 -0.0688
15560TIP3    H168171   4.187   1.286  10.989  1.9077 -0.0123 -0.0052
15560TIP3    H268172   4.270   1.408  11.024 -1.6391  2.4790  0.0514
15561TIP3   OH268173   6.060   2.380   5.427 -0.0653  0.8727  0.1152
15561TIP3    H168174   6.008   2.358   5.504 -1.8410  0.7353 -1.0806
15561TIP3    H268175   6.004   2.440   5.377  0.8752  0.6173 -1.2709
15562TIP3   OH268176   3.009   5.485  14.133 -0.7321 -0.3282  0.8055
15562TIP3    H168177   3.025   5.396  14.103 -1.1596  0.4188 -1.7576
15562TIP3    H268178   2.925   5.509  14.093 -0.2123  1.5146  0.7877
15563TIP3   OH268179   3.006   6.294   0.043 -0.0778  0.4861 -0.0548
15563TIP3    H168180   3.089   6.293  -0.006  1.6772 -1.3579  2.7954
15563TIP3    H268181   3.019   6.360   0.111 -0.4530 -0.6646  1.1557
15564TIP3   OH268182   1.150   3.476  15.922 -0.4967  0.1537  0.1797
15564TIP3    H168183   1.171   3.567  15.903  0.7553  0.0852  1.1924
15564TIP3    H268184   1.080   3.454  15.861 -0.2236  1.5404 -0.6365
15565TIP3   OH268185   3.300   6.244   0.567 -0.0837 -0.1512 -0.3179
15565TIP3    H168186   3.208   6.227   0.544 -0.4291 -0.8717  1.4904
15565TIP3    H268187   3.334   6.294   0.494 -2.1638  0.8328 -0.6556
15566TIP3   OH268188   2.975   0.307   1.744  0.4891  0.0071 -0.0119
15566TIP3    H168189   2.977   0.235   1.807 -1.5404 -1.1764 -1.2246
15566TIP3    H268190   2.908   0.366   1.778  0.1765 -0.0846 -0.4616
15567TIP3   OH268191   2.453   5.460   2.132  0.0772  0.2566 -0.4202
15567TIP3    H168192   2.473   5.393   2.197 -1.2418  0.5953  0.3432
15567TIP3    H268193   2.512   5.440   2.059  2.0486  0.2812  1.1220
15568TIP3   OH268194   0.650   3.551   3.155 -0.5777 -0.3797  0.0165
15568TIP3    H168195   0.615   3.640   3.146  0.0363 -0.0792  0.6424
15568TIP3    H268196   0.655   3.536   3.249 -2.5005 -1.8009 -0.0757
15569TIP3   OH268197   1.008   2.879   4.352 -0.5071 -0.0742 -0.4200
15569TIP3    H168198   1.038   2.934   4.424 -0.5381  1.7309 -1.7361
15569TIP3    H268199   1.039   2.791   4.374  0.3048  0.6169  1.3080
15570TIP3   OH268200   6.531   3.051  16.822  0.0375  0.4006 -0.2481
15570TIP3    H168201   6.531   2.959  16.798 -2.4610  0.4191 -0.4452
15570TIP3    H268202   6.456   3.088  16.777  0.1784  2.2336  0.9553
15571TIP3   OH268203   3.147   5.213  11.988  0.0578 -0.1747  0.5577
15571TIP3    H168204   3.102   5.146  12.039 -0.1047 -0.5193 -0.0302
15571TIP3    H268205   3.094   5.292  12.001 -1.6220 -0.9252 -1.3472
15572TIP3   OH268206   5.678   1.784   3.507 -0.0782  0.4133  0.4351
15572TIP3    H168207   5.599   1.737   3.537 -0.3398  1.2174  1.0222
15572TIP3    H268208   5.654   1.818   3.421 -0.0389 -0.1484  0.1975
15573TIP3   OH268209   4.785   3.903  15.658  0.2929  0.4387  0.1608
15573TIP3    H168210   4.793   3.881  15.750 -2.5903  0.7042  0.5299
15573TIP3    H268211   4.736   3.830  15.620 -0.2869  1.2701 -0.7200
15574TIP3   OH268212   4.730   2.988  15.696 -0.7366 -0.2207 -0.0242
15574TIP3    H168213   4.759   3.063  15.644 -2.2912  2.0796  2.3506
15574TIP3    H268214   4.791   2.985  15.770  0.4290 -2.4665 -1.0135
15575TIP3   OH268215   3.997   5.187   6.008  0.3742  0.4552 -0.6256
15575TIP3    H168216   4.068   5.227   6.057 -0.2945  2.0512 -0.9071
15575TIP3    H268217   3.918   5.212   6.056 -0.0789 -0.2218 -1.0135
15576TIP3   OH268218   5.087   6.332   5.461 -0.3421 -0.1217  0.2525
15576TIP3    H168219   5.106   6.422   5.488 -1.3973 -0.0176  0.6947
15576TIP3    H268220   5.024   6.301   5.526 -0.1850 -1.0910 -0.0556
15577TIP3   OH268221   1.922   4.663  11.447  0.0873  0.2621  0.7102
15577TIP3    H168222   1.915   4.698  11.536 -1.1006  3.0325 -0.4148
15577TIP3    H268223   1.834   4.632  11.426  0.2558  0.0459  0.3194
15578TIP3   OH268224   3.757   0.158  14.256 -0.1145  0.1853 -0.1144
15578TIP3    H168225   3.801   0.076  14.235 -0.1558  0.3480 -0.8484
15578TIP3    H268226   3.760   0.163  14.352 -2.5306 -2.0038  0.1538
15579TIP3   OH268227   0.572   1.747   5.417  0.2325 -0.6352  0.5124
15579TIP3    H168228   0.538   1.719   5.502  0.5827 -0.4789  0.7029
15579TIP3    H268229   0.515   1.704   5.353 -1.0813  0.5602  0.8528
15580TIP3   OH268230   3.967   5.532   5.164  0.0624  0.2157  0.5164
15580TIP3    H168231   3.875   5.538   5.190 -0.2810  1.0752 -0.8621
15580TIP3    H268232   3.966   5.545   5.069  1.8263  2.6997  0.7784
15581TIP3   OH268233   4.406   2.841  10.486  0.0220  0.7943  0.1134
15581TIP3    H168234   4.501   2.856  10.483 -0.0704  1.1848 -1.0941
15581TIP3    H268235   4.370   2.910  10.430 -0.8417 -0.4407 -0.8781
15582TIP3   OH268236   2.486   3.705  13.526  0.7287  0.1120 -0.0941
15582TIP3    H168237   2.460   3.759  13.451  2.8425  0.5541 -0.5475
15582TIP3    H268238   2.490   3.766  13.600  0.0935 -0.0351  0.0630
15583TIP3   OH268239   3.841   5.071  13.562  0.2018  0.5217 -0.2146
15583TIP3    H168240   3.839   5.142  13.625 -0.3798  2.0314 -1.8987
15583TIP3    H268241   3.932   5.041  13.563  0.2256  0.6140  1.2161
15584TIP3   OH268242   5.750   6.003   1.682 -0.3953 -0.3751 -0.5727
15584TIP3    H168243   5.667   5.960   1.702 -1.2882  1.9824  1.1288
15584TIP3    H268244   5.816   5.953   1.729 -1.0442 -1.4720 -0.8299
15585TIP3   OH268245   5.940   0.659   0.738 -0.5247  0.2568 -0.1586
15585TIP3    H168246   5.898   0.666   0.824  0.6537 -0.1116  0.4652
15585TIP3    H268247   5.919   0.570   0.709  1.7710 -0.7976  1.2340
15586TIP3   OH268248   6.462   2.637  13.772 -0.9570 -0.5080  0.7840
15586TIP3    H168249   6.525   2.692  13.818 -0.0900  0.0530 -1.0392
15586TIP3    H268250   6.377   2.666  13.805 -0.5209  2.0795 -0.2730
15587TIP3   OH268251   5.092   5.318   1.759 -0.5461  0.2794 -0.0451
15587TIP3    H168252   5.108   5.400   1.807 -2.4615 -1.1480  3.1861
15587TIP3    H268253   5.160   5.259   1.790  0.5214  0.4310 -2.0064
15588TIP3   OH268254   4.997   5.480   0.042  0.0048  0.2282  0.2738
15588TIP3    H168255   4.946   5.562   0.050  0.7607  0.6214  1.1511
15588TIP3    H268256   4.930   5.412   0.035 -0.6423  0.9374 -0.7855
15589TIP3   OH268257   4.556   4.199  10.791  0.1656 -0.1855  0.3677
15589TIP3    H168258   4.588   4.202  10.701 -2.0096 -0.0839 -0.4308
15589TIP3    H268259   4.525   4.288  10.808 -1.3976 -0.7449  0.4690
15590TIP3   OH268260   3.242   0.654   5.291 -0.3828 -0.2962 -0.2480
15590TIP3    H168261   3.268   0.638   5.382  1.5602 -0.0681 -0.7389
15590TIP3    H268262   3.232   0.749   5.285  3.0742  0.1170 -1.1158
15591TIP3   OH268263   2.792   1.091  10.662  0.5487  0.3139 -0.4856
15591TIP3    H168264   2.842   1.158  10.617  0.6315 -0.1952 -1.1562
15591TIP3    H268265   2.701   1.106  10.634  0.8891 -1.3324 -2.4993
15592TIP3   OH268266   1.947   2.605  12.061  0.5546 -0.0093  0.3432
15592TIP3    H168267   2.018   2.599  11.998 -0.2048  1.0714 -0.6318
15592TIP3    H268268   1.874   2.645  12.013 -1.2462 -2.5620  0.8725
15593TIP3   OH268269   6.813   6.415   6.336  0.0014  0.2323  0.4424
15593TIP3    H168270   6.757   6.367   6.276 -1.0123  0.5855  1.0963
15593TIP3    H268271   6.846   6.488   6.284  0.9415 -0.7277 -0.3297
15594TIP3   OH268272   1.214   4.187   1.899 -0.0123  0.0081 -0.8439
15594TIP3    H168273   1.263   4.264   1.928 -0.9283 -0.1804  1.3024
15594TIP3    H268274   1.122   4.216   1.899 -0.1916 -0.5540 -1.7897
15595TIP3   OH268275   2.926   5.427   3.185 -0.3058  0.1985 -0.0043
15595TIP3    H168276   2.932   5.369   3.260 -1.5302 -0.5336 -0.4545
15595TIP3    H268277   3.005   5.409   3.133 -0.3978 -0.6326  0.1524
15596TIP3   OH268278   2.079   1.619   5.888  0.0307  0.1183 -0.1344
15596TIP3    H168279   2.010   1.587   5.830 -0.7191  2.9878 -0.9006
15596TIP3    H268280   2.133   1.675   5.833  1.0606  0.5083  1.2299
15597TIP3   OH268281   1.383   4.191   3.116 -0.0338  1.1037  0.1998
15597TIP3    H168282   1.418   4.240   3.042 -0.7051  1.3857  0.0666
15597TIP3    H268283   1.318   4.133   3.078 -0.7361  1.5979  0.6341
15598TIP3   OH268284   2.808   5.213   4.197  0.1547  0.1883  0.5814
15598TIP3    H168285   2.782   5.230   4.106  1.2209  0.4309  0.3060
15598TIP3    H268286   2.762   5.132   4.221  0.9185 -0.6324 -0.6461
15599TIP3   OH268287   1.607   0.838   6.117  0.1318  0.0387  0.5769
15599TIP3    H168288   1.662   0.892   6.174 -0.6415 -0.0775  1.4295
15599TIP3    H268289   1.668   0.807   6.050  1.0612  0.1557  1.3403
15600TIP3   OH268290   6.765   5.789  13.680 -0.0379  0.0137  0.4051
15600TIP3    H168291   6.756   5.820  13.591  0.2646 -1.6038 -0.2139
15600TIP3    H268292   6.704   5.716  13.687  2.1518 -1.8850  0.5172
15601TIP3   OH268293   5.614   2.250  13.962 -0.3849 -0.2521  0.1360
15601TIP3    H168294   5.572   2.214  13.884 -2.2260  1.5527  0.2544
15601TIP3    H268295   5.543   2.260  14.025  0.6733  0.4496  1.2427
15602TIP3   OH268296   2.744   5.324  16.597 -0.0381  0.1772 -0.0871
15602TIP3    H168297   2.780   5.265  16.532 -0.0346 -0.9245  0.9061
15602TIP3    H268298   2.717   5.268  16.669 -3.1614  1.0305 -0.5170
15603TIP3   OH268299   2.455   3.671   3.680 -0.1238  0.1810  0.0777
15603TIP3    H168300   2.482   3.644   3.592 -0.3466  0.4890 -0.0866
15603TIP3    H268301   2.527   3.727   3.710  1.2225 -2.0518  1.1488
15604TIP3   OH268302   5.309   3.033   4.361  0.4078  0.3656 -0.7774
15604TIP3    H168303   5.325   2.991   4.446 -0.4963  0.0176 -0.7692
15604TIP3    H268304   5.242   3.098   4.380 -1.5504 -1.3405 -1.6640
15605TIP3   OH268305   5.313   1.716  16.189  0.0836 -0.0265 -0.0637
15605TIP3    H168306   5.338   1.688  16.101  0.4460  0.7288 -0.2037
15605TIP3    H268307   5.313   1.635  16.241  2.4555 -0.1165 -0.1471
15606TIP3   OH268308   0.346   4.029  13.302 -0.4183 -0.0716  0.2505
15606TIP3    H168309   0.262   4.036  13.255  0.1729  0.2516 -0.7634
15606TIP3    H268310   0.347   4.104  13.361 -1.1389 -0.4486  0.7611
15607TIP3   OH268311   5.200   4.720   5.087  0.0643 -0.0666 -0.1844
15607TIP3    H168312   5.216   4.785   5.156 -1.6862 -0.1131  0.2930
15607TIP3    H268313   5.180   4.640   5.135 -0.6848 -0.2198 -0.7486
15608TIP3   OH268314   0.786   2.645   5.529 -0.0160  0.1170 -0.2043
15608TIP3    H168315   0.693   2.624   5.535  0.3308 -1.5786 -0.3939
15608TIP3    H268316   0.803   2.703   5.603 -0.5563 -2.2241  1.8425
15609TIP3   OH268317   0.859   1.215   4.938  0.3974 -0.0366  0.3994
15609TIP3    H168318   0.814   1.163   5.004  0.8633 -2.8592 -1.4054
15609TIP3    H268319   0.948   1.226   4.972  0.5424 -1.2115  0.4223
15610TIP3   OH268320   5.223   1.015  14.890 -0.2424  0.1440 -0.2791
15610TIP3    H168321   5.269   1.032  14.809  0.5148  2.0116  0.5265
15610TIP3    H268322   5.264   0.936  14.925  2.1971  1.6142  0.2881
15611TIP3   OH268323   4.968   3.113   5.678  0.4379  0.5933  0.4837
15611TIP3    H168324   4.918   3.037   5.648 -1.2319  2.0234 -0.4941
15611TIP3    H268325   4.932   3.187   5.627  2.9297  1.8324  0.4286
15612TIP3   OH268326   5.786   1.221   5.816  0.3130 -0.7468 -0.2389
15612TIP3    H168327   5.816   1.270   5.740 -0.9342 -2.2460 -1.7370
15612TIP3    H268328   5.709   1.269   5.847 -0.8004 -1.6270 -1.5971
15613TIP3   OH268329   4.174   2.146  13.476 -0.0159 -0.1967 -0.0213
15613TIP3    H168330   4.249   2.142  13.536  1.2688  2.0008 -1.4017
15613TIP3    H268331   4.115   2.210  13.516  0.0144 -0.0763 -0.1650
15614TIP3   OH268332   0.053   2.140   3.453 -0.2782 -0.0687 -0.3012
15614TIP3    H168333   0.129   2.089   3.425  0.0772  0.1985  0.1742
15614TIP3    H268334   0.083   2.231   3.451 -1.4072  0.2925 -2.7859
15615TIP3   OH268335   2.274   4.390  13.751 -0.0098 -0.5803 -0.2611
15615TIP3    H168336   2.260   4.459  13.686  1.2542  1.2812  1.3468
15615TIP3    H268337   2.350   4.341  13.719  0.6357  0.3569 -0.1928
15616TIP3   OH268338   1.588   3.575   1.950  1.0712 -0.2312 -0.5883
15616TIP3    H168339   1.496   3.581   1.924  0.4554 -0.8484  1.4415
15616TIP3    H268340   1.631   3.646   1.901 -0.5623  0.4108 -1.1087
15617TIP3   OH268341   4.964   5.825  16.972  0.4372  0.0927 -0.0701
15617TIP3    H168342   5.036   5.820  17.034  2.0284 -1.2160 -1.9420
15617TIP3    H268343   4.947   5.733  16.948 -0.0485  0.5856 -1.6633
15618TIP3   OH268344   2.663   5.783  13.085 -0.2825 -0.0090 -0.1781
15618TIP3    H168345   2.743   5.754  13.042  0.3985  0.2547  0.8702
15618TIP3    H268346   2.670   5.748  13.174 -0.1585  2.0519  0.6663
15619TIP3   OH268347   3.333   0.711  15.404 -0.5010 -0.1984 -0.2351
15619TIP3    H168348   3.411   0.721  15.460  0.0761 -3.6287 -0.3189
15619TIP3    H268349   3.369   0.686  15.318 -1.6400 -0.2038 -0.7110
15620TIP3   OH268350   5.831   5.520   4.937  0.3078  0.4169  0.0411
15620TIP3    H168351   5.740   5.504   4.914  0.7852 -0.0497 -1.5430
15620TIP3    H268352   5.849   5.456   5.006  0.0285 -0.9049 -1.0812
15621TIP3   OH268353   6.383   5.207  13.331  0.0998 -0.6826 -0.1467
15621TIP3    H168354   6.307   5.150  13.344  0.1033 -0.6719 -0.0787
15621TIP3    H268355   6.457   5.147  13.322 -0.3249 -0.8124 -3.1480
15622TIP3   OH268356   6.598   0.007  13.217  0.2363 -0.1063  0.6673
15622TIP3    H168357   6.664   0.067  13.252 -1.7462  0.9002  2.8106
15622TIP3    H268358   6.612   0.010  13.122  1.6604  2.0132  0.8970
15623TIP3   OH268359   5.131   2.585  11.943 -0.3759  0.9965  0.5119
15623TIP3    H168360   5.100   2.541  11.864  2.1278  0.5830 -0.2843
15623TIP3    H268361   5.147   2.514  12.005  0.7548  1.0260  0.2659
15624TIP3   OH268362   6.204   0.050  16.727  0.3023  0.4802 -0.1463
15624TIP3    H168363   6.213   0.008  16.813  1.9064  1.0639 -0.0006
15624TIP3    H268364   6.228  -0.018  16.665  0.0048  0.3186 -0.0860
15625TIP3   OH268365   5.356   4.773   0.129 -0.5826  0.0281 -0.0751
15625TIP3    H168366   5.396   4.835   0.067 -0.4652  0.4173  0.3814
15625TIP3    H268367   5.262   4.789   0.121 -0.5335  0.5644  0.3380
15626TIP3   OH268368   2.531   0.576  16.214 -0.4447 -0.1284 -0.0434
15626TIP3    H168369   2.556   0.553  16.303  0.9881  0.3566 -0.3126
15626TIP3    H268370   2.572   0.510  16.159 -1.3429 -0.4371 -0.3563
15627TIP3   OH268371   2.897   3.817   5.693 -0.0967 -0.4458 -0.2882
15627TIP3    H168372   2.850   3.899   5.707 -1.3155 -1.2664  0.5312
15627TIP3    H268373   2.891   3.802   5.599  0.2278  0.4444 -0.4609
15628TIP3   OH268374   4.082   6.262   3.649  0.0081  0.7400  0.4151
15628TIP3    H168375   4.131   6.185   3.677  1.7475  1.5008 -0.4503
15628TIP3    H268376   4.058   6.244   3.558 -1.0947  0.4868  0.7503
15629TIP3   OH268377   4.130   0.978   6.301  0.1908  0.4822 -0.8129
15629TIP3    H168378   4.036   0.990   6.290 -0.0324  0.1035  0.5488
15629TIP3    H268379   4.165   0.981   6.212 -0.8468  2.6480 -1.2000
15630TIP3   OH268380   6.472   1.642  12.382 -0.2384  0.4623  0.1282
15630TIP3    H168381   6.381   1.615  12.395  0.4105 -2.3366 -0.6349
15630TIP3    H268382   6.510   1.641  12.470 -0.1900 -1.4843  0.1176
15631TIP3   OH268383   4.214   5.108   0.315 -0.2848  0.1673  0.7737
15631TIP3    H168384   4.279   5.111   0.385 -0.8183  0.4061  1.2634
15631TIP3    H268385   4.259   5.143   0.239  0.1607  0.3348  1.1134
15632TIP3   OH268386   3.380   1.824  13.120 -0.3419 -0.1456 -0.0598
15632TIP3    H168387   3.474   1.824  13.134 -0.4465  0.2142  0.6957
15632TIP3    H268388   3.349   1.900  13.170 -0.8801  0.4859 -1.3239
15633TIP3   OH268389   2.096   3.015  17.104  0.2449  0.2669  0.7849
15633TIP3    H168390   2.117   3.095  17.151  0.4774  1.9380 -2.0408
15633TIP3    H268391   2.153   3.016  17.027 -0.6469 -1.9842  0.0321
15634TIP3   OH268392   0.982   5.873  15.081  0.5533 -0.2176 -0.5843
15634TIP3    H168393   0.987   5.886  14.987  0.2252 -2.3704 -0.9290
15634TIP3    H268394   0.991   5.778  15.093 -1.7468 -0.2479  1.3599
15635TIP3   OH268395   6.121   3.230   0.306  0.1912  0.2765  0.1419
15635TIP3    H168396   6.194   3.185   0.349 -0.0231  1.2432  1.5615
15635TIP3    H268397   6.121   3.196   0.217  1.0032 -1.3547  0.7494
15636TIP3   OH268398   2.104   4.917  13.778 -0.1083 -0.7215 -0.1184
15636TIP3    H168399   2.025   4.872  13.805 -0.2635 -1.1085 -1.1848
15636TIP3    H268400   2.164   4.847  13.751  0.0995 -0.3589 -0.6046
15637TIP3   OH268401   4.561   0.069  12.782  0.3342  0.2430  0.0691
15637TIP3    H168402   4.631   0.020  12.738  0.1751 -1.2519  1.4263
15637TIP3    H268403   4.501   0.093  12.712  0.3745 -1.6068 -0.6367
15638TIP3   OH268404   0.153   4.926  10.505  0.1778 -0.2790  0.4882
15638TIP3    H168405   0.098   4.870  10.560  1.1949 -1.5996  0.1838
15638TIP3    H268406   0.212   4.970  10.567 -0.3655  0.1710  0.6898
15639TIP3   OH268407   6.084   0.652   3.561 -0.5563 -0.0794 -0.2318
15639TIP3    H168408   6.029   0.731   3.558  1.3435  1.2865 -0.0491
15639TIP3    H268409   6.128   0.657   3.646 -0.9874 -1.7397  0.0937
15640TIP3   OH268410   3.109   5.489  15.649 -0.3828 -0.1804  0.1647
15640TIP3    H168411   3.161   5.554  15.600 -0.9150  0.9372  1.0700
15640TIP3    H268412   3.081   5.426  15.582 -0.9494  1.2266 -0.9522
15641TIP3   OH268413   4.739   3.006  14.006  0.2674 -0.3499  0.4008
15641TIP3    H168414   4.765   3.011  13.914  0.8579 -0.5377  0.5602
15641TIP3    H268415   4.655   2.960  14.004  0.8881 -1.4916  0.0619
15642TIP3   OH268416   5.011   0.008   1.207 -0.3546 -0.0418  0.4478
15642TIP3    H168417   5.050   0.085   1.166  1.7516 -0.8581  0.8004
15642TIP3    H268418   5.070  -0.012   1.280 -0.5943 -2.2370  0.0907
15643TIP3   OH268419   5.893   6.439  13.128  0.3187 -0.0253 -0.8802
15643TIP3    H168420   5.909   6.366  13.187 -1.4202  0.5734  0.4049
15643TIP3    H268421   5.800   6.431  13.105  0.0786  1.8126 -0.6325
15644TIP3   OH268422   3.885   3.232  10.391 -0.6571  0.4613 -0.1163
15644TIP3    H168423   3.957   3.210  10.332  0.5504  3.2491  0.2371
15644TIP3    H268424   3.920   3.218  10.479 -0.8812  0.8501  0.0371
15645TIP3   OH268425   2.395   6.609  12.878 -0.5074 -0.6519 -0.0123
15645TIP3    H168426   2.418   6.679  12.939 -3.1913  1.1774 -1.0062
15645TIP3    H268427   2.462   6.612  12.811 -1.2318  1.7945 -0.6559
15646TIP3   OH268428   6.815   4.585   1.009  0.5013  0.7322  0.2979
15646TIP3    H168429   6.845   4.525   1.077 -1.5476  0.1057  0.6502
15646TIP3    H268430   6.848   4.547   0.927 -0.5837 -0.7318  0.5461
15647TIP3   OH268431   6.008   6.535  14.933 -0.1793 -0.2057  0.2921
15647TIP3    H168432   5.976   6.623  14.950 -0.7546 -0.3241 -0.1748
15647TIP3    H268433   5.948   6.478  14.980  1.1477 -0.2668  1.9312
15648TIP3   OH268434   2.023   2.775   1.071  0.4748 -0.2203 -0.7573
15648TIP3    H168435   2.055   2.728   0.995 -0.2668 -2.4504  0.2678
15648TIP3    H268436   1.970   2.846   1.035  0.2174 -1.1851 -2.3020
15649TIP3   OH268437   5.077   1.439   3.104 -0.1908 -0.4444 -0.4992
15649TIP3    H168438   5.164   1.402   3.092 -0.0430 -0.2976  0.0762
15649TIP3    H268439   5.021   1.362   3.120 -0.2144 -0.5579 -1.1456
15650TIP3   OH268440   2.935   2.380  10.771  0.3734 -0.5480  0.5089
15650TIP3    H168441   2.921   2.301  10.719  0.7243 -0.8033  0.7973
15650TIP3    H268442   2.849   2.400  10.808 -0.4144  0.9552 -1.9899
15651TIP3   OH268443   0.732   4.545   0.606  0.2235  0.4881  0.1027
15651TIP3    H168444   0.726   4.537   0.701 -1.8326  0.8260  0.0312
15651TIP3    H268445   0.795   4.616   0.592  0.9648  0.0635  1.1817
15652TIP3   OH268446   6.240   1.817  12.476 -0.4725 -0.1896  0.1691
15652TIP3    H168447   6.267   1.739  12.524  2.6795  1.5011  1.2865
15652TIP3    H268448   6.256   1.889  12.536  0.1575  1.6598 -2.1388
15653TIP3   OH268449   6.236   2.257  16.265  0.3797  0.2313  0.3538
15653TIP3    H168450   6.262   2.177  16.311 -0.5551  0.5919  1.5386
15653TIP3    H268451   6.235   2.232  16.172 -0.0850 -1.1754  0.7290
15654TIP3   OH268452   1.421   0.510   5.918  0.0419 -0.8529  0.1689
15654TIP3    H168453   1.499   0.456   5.910  1.0379  0.8030 -1.7010
15654TIP3    H268454   1.358   0.471   5.858  0.6024 -0.2118 -0.8405
15655TIP3   OH268455   2.763   2.586   5.889  0.1772  0.1435 -0.3116
15655TIP3    H168456   2.670   2.575   5.869 -0.1120  0.2352  0.9117
15655TIP3    H268457   2.766   2.591   5.985  1.1776  2.4058 -0.4248
15656TIP3   OH268458   4.151   0.259   0.028 -0.3220  0.0977  0.1733
15656TIP3    H168459   4.140   0.295  -0.060 -0.3808 -1.1926 -0.3516
15656TIP3    H268460   4.230   0.302   0.061  0.0010  0.2029 -0.7082
15657TIP3   OH268461   3.620   4.766  13.130 -0.1853 -0.0196 -0.0025
15657TIP3    H168462   3.530   4.757  13.099 -0.2205  0.2711  0.0103
15657TIP3    H268463   3.614   4.827  13.203 -0.1958 -1.2583  1.0439
15658TIP3   OH268464   0.590   6.621   4.934  0.1268 -0.2003  0.4481
15658TIP3    H168465   0.643   6.563   4.879  2.1191  1.6211  0.3717
15658TIP3    H268466   0.632   6.618   5.020 -1.7319 -1.4102  1.3448
15659TIP3   OH268467   5.604   5.041   5.125  0.5225  0.2445  0.4088
15659TIP3    H168468   5.591   5.102   5.197 -1.7310  0.6859 -0.3320
15659TIP3    H268469   5.600   4.954   5.166 -1.9898  0.4535  0.6724
15660TIP3   OH268470   3.933   1.745  12.633 -0.1341  0.5147 -0.5362
15660TIP3    H168471   3.985   1.818  12.667 -0.4162  0.0666  0.9150
15660TIP3    H268472   3.852   1.786  12.602  0.1733  0.9537 -0.7619
15661TIP3   OH268473   1.821   1.112   2.564  0.5783  0.4652 -0.6481
15661TIP3    H168474   1.863   1.105   2.649  0.7506 -1.8906 -0.9088
15661TIP3    H268475   1.869   1.181   2.518  2.6296 -0.5622 -0.0685
15662TIP3   OH268476   4.450   0.007   2.648  0.0136  0.0701  0.6016
15662TIP3    H168477   4.376   0.040   2.699 -1.6425 -1.3347 -0.8414
15662TIP3    H268478   4.482   0.084   2.601 -0.2233  0.7883  1.5872
15663TIP3   OH268479   3.682   1.285   2.657 -0.6176 -0.0974 -0.4133
15663TIP3    H168480   3.772   1.305   2.632 -1.1449 -1.1404 -3.3281
15663TIP3    H268481   3.669   1.195   2.629 -2.0214 -0.5461  1.6230
15664TIP3   OH268482   4.881   4.861   6.273  0.3641  0.1794  0.0784
15664TIP3    H168483   4.931   4.941   6.255  0.2805 -0.2158 -2.0467
15664TIP3    H268484   4.921   4.825   6.353  0.9135  1.9102  0.5919
15665TIP3   OH268485   0.152   5.247   5.727 -0.8430  0.4409 -0.1068
15665TIP3    H168486   0.143   5.152   5.720 -0.5497  0.4048  0.0098
15665TIP3    H268487   0.218   5.260   5.795 -1.4023  0.7398  0.3888
15666TIP3   OH268488   0.556   6.315   3.012  0.8071  0.0888  0.4068
15666TIP3    H168489   0.525   6.229   2.983 -0.8205  1.0153 -0.6962
15666TIP3    H268490   0.588   6.301   3.101  1.3391 -1.8259 -0.0722
15667TIP3   OH268491   0.389   3.764  16.627  0.0642  0.2207  0.1093
15667TIP3    H168492   0.400   3.708  16.550 -0.1356  1.5194 -0.8895
15667TIP3    H268493   0.301   3.801  16.617 -0.5838 -0.7845  1.7816
15668TIP3   OH268494   6.236   5.888  15.447  0.5423  0.3385  0.1104
15668TIP3    H168495   6.285   5.849  15.519  3.2971 -1.4668 -2.5829
15668TIP3    H268496   6.297   5.952  15.409 -0.9371  1.4176 -0.4817
15669TIP3   OH268497   1.354   4.976   2.657 -0.2788  0.7748 -0.3036
15669TIP3    H168498   1.300   4.905   2.623 -0.4830  0.7061  0.1587
15669TIP3    H268499   1.436   4.934   2.683 -0.3125  0.7445 -0.2455
15670TIP3   OH268500   3.764   2.149  13.691  0.1892 -0.7968 -0.1283
15670TIP3    H168501   3.799   2.193  13.769 -1.3388  0.1533  0.0315
15670TIP3    H268502   3.674   2.127  13.715 -0.6023  0.3650 -1.9687
15671TIP3   OH268503   3.416   2.823  11.955 -0.4925 -0.4060  0.0230
15671TIP3    H168504   3.497   2.814  11.905 -0.0130 -0.4677  0.8054
15671TIP3    H268505   3.351   2.778  11.902  0.1077 -0.8707 -0.3302
15672TIP3   OH268506   3.493   5.592  13.651  0.2147 -0.0698 -0.0001
15672TIP3    H168507   3.509   5.669  13.598  0.2550 -0.5214 -0.6521
15672TIP3    H268508   3.423   5.618  13.711 -1.1810 -0.1333 -1.5476
15673TIP3   OH268509   4.218   4.318   6.474 -0.5433 -0.1368  0.0663
15673TIP3    H168510   4.186   4.408   6.478 -1.1526 -0.3801  0.6575
15673TIP3    H268511   4.145   4.268   6.438 -0.5027 -0.5390  0.5410
15674TIP3   OH268512   0.862   5.876  11.636 -0.5301 -0.4210 -0.2358
15674TIP3    H168513   0.846   5.966  11.663 -1.5287 -0.3124 -1.1090
15674TIP3    H268514   0.956   5.863  11.646 -0.3581  0.7720 -0.2676
15675TIP3   OH268515   6.502   5.794  10.534 -0.0544 -0.3537 -0.0489
15675TIP3    H168516   6.438   5.762  10.598 -1.1269  2.0006  0.1296
15675TIP3    H268517   6.584   5.752  10.559 -0.8117 -0.7625  1.8701
15676TIP3   OH268518   2.786   2.507   2.793 -0.2252 -0.1565 -0.1093
15676TIP3    H168519   2.818   2.417   2.784  0.2048 -0.3138  2.4958
15676TIP3    H268520   2.865   2.559   2.810 -0.5394  0.6196 -1.0232
15677TIP3   OH268521   4.673   2.957  14.414  0.0070 -0.1503 -0.0119
15677TIP3    H168522   4.760   2.995  14.425 -0.1671 -0.0837  1.2317
15677TIP3    H268523   4.625   3.023  14.363  0.1485  0.6456  0.8578
15678TIP3   OH268524   3.489   3.187  16.203 -0.0152  0.2361 -0.2422
15678TIP3    H168525   3.505   3.272  16.242 -1.5547  0.3518  0.1571
15678TIP3    H268526   3.500   3.124  16.275  1.5882  0.0348 -0.6416
15679TIP3   OH268527   2.606   0.002  13.821 -0.6104 -0.0563  0.0560
15679TIP3    H168528   2.552  -0.070  13.854 -3.1036  1.1379 -1.2373
15679TIP3    H268529   2.548   0.048  13.760  1.6369  1.7981 -0.7201
15680TIP3   OH268530   6.544   0.475  12.815 -0.0082 -0.8176 -0.0967
15680TIP3    H168531   6.604   0.465  12.741 -0.0776  0.9791 -0.4194
15680TIP3    H268532   6.574   0.553  12.861 -2.1779  0.2250 -0.3721
15681TIP3   OH268533   2.329   0.040   2.547  0.1549  0.1473 -0.3976
15681TIP3    H168534   2.348   0.058   2.640 -0.1819  3.4671 -0.9128
15681TIP3    H268535   2.239   0.008   2.547  1.4756 -3.7729  0.7966
15682TIP3   OH268536   6.756   2.384   5.100  0.0327  0.0478  0.1306
15682TIP3    H168537   6.761   2.292   5.123 -0.7350  0.2663  1.2437
15682TIP3    H268538   6.665   2.398   5.075  0.1179  0.5310  0.0716
15683TIP3   OH268539   6.357   5.259  13.592 -0.5124 -0.5198 -0.1068
15683TIP3    H168540   6.388   5.220  13.510 -0.8621 -1.1053  0.0430
15683TIP3    H268541   6.320   5.187  13.641  1.8149 -0.6257  1.5982
15684TIP3   OH268542   6.720   1.352   2.853  0.0623 -0.0255  0.3856
15684TIP3    H168543   6.635   1.344   2.895 -0.8105 -0.9686 -1.4616
15684TIP3    H268544   6.779   1.301   2.908 -1.1006 -1.4305  0.3577
15685TIP3   OH268545   5.265   5.390  12.175  0.1357  0.3396  0.2709
15685TIP3    H168546   5.272   5.472  12.125 -2.2018 -0.2480 -1.1045
15685TIP3    H268547   5.322   5.329  12.129  0.0619  0.5543 -0.1069
15686TIP3   OH268548   2.421   2.776  10.796  0.6213  0.0526 -0.5266
15686TIP3    H168549   2.426   2.689  10.757  1.3146  1.3796 -3.5342
15686TIP3    H268550   2.512   2.805  10.804  0.3569  0.9467 -0.6263
15687TIP3   OH268551   0.922   4.035  16.235  0.9809 -0.1549  0.1797
15687TIP3    H168552   0.875   4.062  16.314  0.1537 -1.5601  0.1804
15687TIP3    H268553   0.855   3.994  16.180  1.2206  2.1318 -1.9210
15688TIP3   OH268554   4.216   2.970   4.308 -0.0058  0.1832  0.0675
15688TIP3    H168555   4.162   2.918   4.367 -0.6806  0.9133  0.1071
15688TIP3    H268556   4.154   3.009   4.246  0.5110  0.7416 -0.1088
15689TIP3   OH268557   2.142   3.104  11.136  0.0243 -0.0541 -1.3509
15689TIP3    H168558   2.210   3.163  11.104  0.9311 -0.2676  0.1617
15689TIP3    H268559   2.163   3.019  11.099  1.2967 -0.3857  0.1093
15690TIP3   OH268560   0.103   6.491   2.386 -0.4226 -0.3572 -0.3574
15690TIP3    H168561   0.065   6.406   2.362  0.6497 -1.0765  0.4322
15690TIP3    H268562   0.195   6.471   2.405 -0.0073  1.0978 -0.7810
15691TIP3   OH268563   5.259   0.919   1.542 -0.7140 -0.6726  0.1619
15691TIP3    H168564   5.182   0.863   1.553 -1.1935 -0.0278  0.1041
15691TIP3    H268565   5.292   0.898   1.455 -0.2522 -1.6528  0.5696
15692TIP3   OH268566   4.260   4.418   4.378 -0.7574 -0.1058  0.0386
15692TIP3    H168567   4.331   4.477   4.353  0.0445 -1.5831 -1.2181
15692TIP3    H268568   4.270   4.408   4.473  0.4210  0.1042 -0.0529
15693TIP3   OH268569   5.291   3.010  11.509 -0.7741 -0.1004 -0.9924
15693TIP3    H168570   5.367   2.985  11.562 -0.9833  0.1023 -0.5888
15693TIP3    H268571   5.216   2.991  11.565 -1.1088 -1.7253 -1.9558
15694TIP3   OH268572   3.801   3.775  16.773 -0.0973  0.3545 -0.3094
15694TIP3    H168573   3.895   3.781  16.760  0.1815 -0.5782  1.1845
15694TIP3    H268574   3.781   3.839  16.841 -0.1002 -1.4130  1.3807
15695TIP3   OH268575   1.775   1.021   3.716  0.3102  0.6215  0.3751
15695TIP3    H168576   1.719   0.972   3.655 -0.4075  1.4416  0.3620
15695TIP3    H268577   1.860   0.979   3.708 -0.9345 -2.4691  2.4888
15696TIP3   OH268578   0.478   5.734  14.306  0.1630  0.3396  0.1719
15696TIP3    H168579   0.540   5.668  14.340 -0.0655  0.4032  0.7229
15696TIP3    H268580   0.412   5.742  14.375 -0.7342 -0.0870 -0.6142
15697TIP3   OH268581   5.628   3.235   5.893 -0.1662 -0.4296  0.6386
15697TIP3    H168582   5.593   3.262   5.978  0.5169 -0.5158  0.9428
15697TIP3    H268583   5.723   3.239   5.903 -0.0818  0.8095 -0.5098
15698TIP3   OH268584   3.207   5.746  16.954 -0.1038  0.5220 -0.0032
15698TIP3    H168585   3.274   5.764  16.889 -1.0408 -0.0043 -1.1451
15698TIP3    H268586   3.180   5.832  16.986  1.3863  0.7205  0.7761
15699TIP3   OH268587   4.857   2.732   4.167  0.0665  0.0430  0.1479
15699TIP3    H168588   4.797   2.663   4.198 -0.5036  1.4575  2.3443
15699TIP3    H268589   4.815   2.766   4.088 -0.9579 -0.3850  0.4948
15700TIP3   OH268590   0.873   0.041  11.433  0.1040 -0.2164 -0.1994
15700TIP3    H168591   0.849   0.061  11.342 -0.1067  0.1116 -0.0720
15700TIP3    H268592   0.856  -0.053  11.442  1.3703 -0.5288 -0.8870
15701TIP3   OH268593   4.729   5.839  17.162  0.2981 -0.2681 -0.8668
15701TIP3    H168594   4.808   5.848  17.109 -0.1726 -0.4836 -1.6119
15701TIP3    H268595   4.754   5.779  17.232  1.6011  1.7723  0.4929
15702TIP3   OH268596   2.758   1.067   3.112 -0.6366  0.1152  0.2403
15702TIP3    H168597   2.740   1.001   3.178  0.2216  0.0189  0.3790
15702TIP3    H268598   2.822   1.126   3.153  0.6333 -0.4916 -0.8405
15703TIP3   OH268599   1.812   4.363  12.869  0.0354  0.0926 -0.2317
15703TIP3    H168600   1.769   4.370  12.784 -1.0674  0.4472  0.3514
15703TIP3    H268601   1.772   4.432  12.922 -2.5866 -2.9529  1.9775
15704TIP3   OH268602   6.774   1.530   5.253  0.0861  0.3015 -1.2101
15704TIP3    H168603   6.811   1.499   5.170  4.3631 -0.3332  0.8088
15704TIP3    H268604   6.823   1.609   5.273 -0.3157  0.0025  1.0717
15705TIP3   OH268605   1.546   0.984  15.526 -0.0542  1.0194  0.2224
15705TIP3    H168606   1.460   1.021  15.545 -1.0614 -0.7771 -0.6668
15705TIP3    H268607   1.565   0.927  15.601 -0.6910 -0.3221 -0.5994
15706TIP3   OH268608   0.643   4.850  11.154  0.1222  0.3387 -0.3482
15706TIP3    H168609   0.705   4.783  11.124 -0.3203  0.9191 -2.6557
15706TIP3    H268610   0.694   4.904  11.214  0.9920 -1.0085  0.1373
15707TIP3   OH268611   0.738   4.694   4.483  0.0266  0.1561 -0.2225
15707TIP3    H168612   0.768   4.783   4.466 -0.6783  0.2092 -1.1852
15707TIP3    H268613   0.714   4.660   4.397 -0.8628 -0.5487  0.3021
15708TIP3   OH268614   2.073   2.120  14.256 -0.1746  1.0568 -0.3481
15708TIP3    H168615   2.043   2.051  14.315  0.9282 -0.5853 -1.6721
15708TIP3    H268616   2.025   2.198  14.285 -2.9417 -0.6557 -0.0841
15709TIP3   OH268617   6.108   2.489   4.543 -0.0322  0.4699  0.1175
15709TIP3    H168618   6.034   2.429   4.553  0.0992  0.5319  1.6275
15709TIP3    H268619   6.174   2.455   4.603  0.7988  0.9701 -0.5083
15710TIP3   OH268620   5.347   3.588   2.813 -0.8348 -0.6004 -0.0313
15710TIP3    H168621   5.305   3.631   2.738  2.6952  1.2152 -1.0668
15710TIP3    H268622   5.383   3.507   2.776 -1.3038 -0.9786  0.3257
15711TIP3   OH268623   6.625   5.838   0.123 -0.4838 -0.0561 -0.2818
15711TIP3    H168624   6.658   5.926   0.111  1.1800 -0.3599  1.7527
15711TIP3    H268625   6.584   5.815   0.039  0.3797  2.0647 -1.3025
15712TIP3   OH268626   5.144   0.614  13.287  0.1757 -0.0572  0.0425
15712TIP3    H168627   5.058   0.634  13.322  1.1536  1.0757  1.8897
15712TIP3    H268628   5.175   0.697  13.250  1.3454  0.1178  1.3587
15713TIP3   OH268629   1.821   6.191   6.388 -0.5358  0.1902 -0.0190
15713TIP3    H168630   1.840   6.285   6.383  0.9457  0.0065  1.5704
15713TIP3    H268631   1.895   6.150   6.342 -0.6569 -0.2493  0.1819
15714TIP3   OH268632   0.750   0.968   6.588 -0.4827 -0.2462 -0.1175
15714TIP3    H168633   0.738   1.061   6.604 -1.4455 -0.4554  0.4047
15714TIP3    H268634   0.836   0.962   6.546 -0.3313  0.8519  0.0162
15715TIP3   OH268635   5.661   4.013  12.260  0.2341  0.1876 -0.2096
15715TIP3    H168636   5.748   4.009  12.222  0.3908 -1.2652  0.2959
15715TIP3    H268637   5.608   4.058  12.194  1.1663  0.3176 -0.8713
15716TIP3   OH268638   0.052   2.883   5.422  0.0851 -0.2814  0.3474
15716TIP3    H168639   0.054   2.849   5.333 -0.0562  0.1271  0.1883
15716TIP3    H268640  -0.008   2.957   5.419 -0.4899 -0.7174  0.9458
15717TIP3   OH268641   5.927   6.058   0.238 -0.2038  0.3409 -0.3788
15717TIP3    H168642   5.937   5.965   0.257 -0.6690  0.6334  1.3171
15717TIP3    H268643   6.009   6.082   0.193 -0.3587 -1.0149 -1.4415
15718TIP3   OH268644   0.315   0.559   0.253 -0.5991 -0.4817  0.1339
15718TIP3    H168645   0.401   0.547   0.294 -0.5004  0.6136  0.2512
15718TIP3    H268646   0.322   0.641   0.205 -2.4232  1.0378  2.3775
15719TIP3   OH268647   1.055   1.799   0.916  0.3606 -0.0881 -0.5611
15719TIP3    H168648   1.078   1.864   0.982 -2.0918  0.8033 -0.5188
15719TIP3    H268649   1.084   1.716   0.953 -1.7332  0.2771  2.0991
15720TIP3   OH268650   2.196   3.450  11.287 -0.1682 -0.2896 -0.0515
15720TIP3    H168651   2.134   3.465  11.358 -1.2598 -1.4580 -0.7199
15720TIP3    H268652   2.141   3.426  11.212  0.9631  0.7511 -1.2477
15721TIP3   OH268653   3.654   0.734  11.483  0.3082 -0.6890 -0.0583
15721TIP3    H168654   3.643   0.805  11.547  1.7932 -0.1621 -0.3594
15721TIP3    H268655   3.689   0.778  11.406  0.1408 -1.5935 -0.6475
15722TIP3   OH268656   1.039   1.553  15.891  0.1798 -0.0431  0.3767
15722TIP3    H168657   1.053   1.459  15.879 -1.7206 -0.4802  1.4424
15722TIP3    H268658   0.945   1.565  15.878  0.3663  1.6693  0.5342
15723TIP3   OH268659   2.689   5.908   3.310  0.3860 -0.1288 -0.2193
15723TIP3    H168660   2.692   5.830   3.365 -0.1046 -0.2070 -0.3006
15723TIP3    H268661   2.610   5.898   3.258 -0.8712  1.4604  1.3219
15724TIP3   OH268662   4.886   3.504  16.676 -0.4200  0.1947 -0.6076
15724TIP3    H168663   4.820   3.440  16.648 -0.0926  0.4849 -2.0958
15724TIP3    H268664   4.857   3.586  16.637 -0.9640  1.0274  1.4909
15725TIP3   OH268665   3.126   2.962  15.489  0.1622 -0.5053  0.0061
15725TIP3    H168666   3.035   2.979  15.465 -0.0676  0.6670  1.6360
15725TIP3    H268667   3.123   2.939  15.581  1.6294  0.7409  0.3944
15726TIP3   OH268668   1.284   1.975   5.821 -0.1075  0.1912  0.2143
15726TIP3    H168669   1.344   1.916   5.866  0.2706 -1.4340 -2.2675
15726TIP3    H268670   1.332   2.058   5.814  1.0980 -0.5174 -0.0401
15727TIP3   OH268671   2.405   5.081  13.694  0.1168 -0.0201  0.1587
15727TIP3    H168672   2.315   5.048  13.683 -0.1859 -0.2062  2.8712
15727TIP3    H268673   2.430   5.111  13.607 -2.6112  0.0808 -0.6469
15728TIP3   OH268674   3.616   1.869   4.885 -0.5580 -0.2720  0.2728
15728TIP3    H168675   3.709   1.895   4.887 -0.6697  0.0989  0.7191
15728TIP3    H268676   3.574   1.925   4.950 -1.6095  1.5268 -1.9249
15729TIP3   OH268677   4.977   2.789   4.489  0.4391  0.3038 -0.1024
15729TIP3    H168678   4.925   2.746   4.421  0.2624  1.6899 -0.8738
15729TIP3    H268679   4.957   2.882   4.479  2.3961  0.7796  0.1556
15730TIP3   OH268680   1.668   0.187  12.297  0.2528 -0.3420 -0.4815
15730TIP3    H168681   1.618   0.134  12.234  1.3692 -1.4594 -0.4445
15730TIP3    H268682   1.681   0.270  12.252  0.6150 -0.9594 -1.5620
15731TIP3   OH268683   5.783   4.299  16.772  0.8339 -0.2177 -0.2377
15731TIP3    H168684   5.836   4.371  16.807  0.4341 -0.2306  0.4091
15731TIP3    H268685   5.782   4.313  16.677 -0.5240  1.5147  0.0158
15732TIP3   OH268686   3.283   0.013   0.004  0.1434  0.1280  0.0233
15732TIP3    H168687   3.361  -0.034  -0.027 -0.6152 -0.5167 -0.9286
15732TIP3    H268688   3.304   0.105  -0.010  0.4646 -0.0765 -0.8659
15733TIP3   OH268689   5.482   4.849  16.876  0.0439 -0.3843 -0.0948
15733TIP3    H168690   5.410   4.892  16.921  0.5571  0.9075 -0.4776
15733TIP3    H268691   5.542   4.823  16.946  0.5511  1.0719  0.0296
15734TIP3   OH268692   4.152   6.460  15.591  0.3744 -0.6500  0.3709
15734TIP3    H168693   4.137   6.410  15.671 -1.9767  0.4791  0.6783
15734TIP3    H268694   4.185   6.544  15.621  1.2011 -0.8465  0.0320
15735TIP3   OH268695   1.071   4.468  10.915 -0.3691 -0.4248  0.3734
15735TIP3    H168696   1.052   4.443  10.825 -1.7865  0.3445  0.4331
15735TIP3    H268697   1.109   4.555  10.908  0.1277 -0.6340  0.4734
15736TIP3   OH268698   0.542   1.381  16.646 -0.2405 -0.1728  0.3022
15736TIP3    H168699   0.488   1.320  16.596 -0.5342  1.2690 -1.1385
15736TIP3    H268700   0.480   1.443  16.684  0.2004  0.1700  0.4664
15737TIP3   OH268701   1.572   6.464  15.525  0.2592  0.3083 -0.5062
15737TIP3    H168702   1.622   6.534  15.566  1.4415 -0.2326 -1.0192
15737TIP3    H268703   1.596   6.385  15.574 -0.7121  0.1689 -0.2300
15738TIP3   OH268704   1.574   3.646  16.163  0.9022 -0.0962 -0.3723
15738TIP3    H168705   1.494   3.644  16.111  0.9517 -1.1196 -0.4042
15738TIP3    H268706   1.573   3.565  16.213  2.4363 -0.6161 -1.1558
15739TIP3   OH268707   5.101   0.893   1.928 -0.1420 -0.3850  0.4376
15739TIP3    H168708   5.082   0.919   2.018 -0.8223 -0.0394  0.1954
15739TIP3    H268709   5.065   0.805   1.921 -0.2291 -0.3526  0.4647
15740TIP3   OH268710   4.998   2.300   1.033  0.0910  0.0449 -0.1380
15740TIP3    H168711   5.062   2.241   1.074 -0.1869  0.4915  0.9564
15740TIP3    H268712   4.913   2.268   1.062 -0.1077  0.4181 -0.3004
15741TIP3   OH268713   2.991   0.357  16.418 -0.5121  0.4756 -0.0810
15741TIP3    H168714   2.986   0.366  16.322 -0.5925  2.7062  0.0894
15741TIP3    H268715   3.074   0.314  16.434  0.2464  1.5249 -1.1104
15742TIP3   OH268716   2.581   4.162   2.750  0.4952 -0.2033  0.1071
15742TIP3    H168717   2.525   4.098   2.793  0.9324 -0.7943 -0.2031
15742TIP3    H268718   2.591   4.130   2.660 -0.3982  1.0129 -0.4454
15743TIP3   OH268719   1.583   2.313  14.826 -0.2319 -0.1967  0.0079
15743TIP3    H168720   1.632   2.354  14.898 -1.6809 -0.4003  1.1239
15743TIP3    H268721   1.624   2.227  14.815 -0.7256 -0.6094  1.3426
15744TIP3   OH268722   6.298   1.173   3.782 -0.0239 -0.2814 -0.0013
15744TIP3    H168723   6.284   1.143   3.692  1.7454 -3.1046  0.5974
15744TIP3    H268724   6.252   1.109   3.836  0.0224  0.6569  1.1532
15745TIP3   OH268725   0.239   0.734   5.528 -0.7187 -0.8511  0.1729
15745TIP3    H168726   0.242   0.810   5.586 -1.9152  0.6786 -1.6741
15745TIP3    H268727   0.155   0.692   5.549 -0.9732 -0.5169 -0.1572
15746TIP3   OH268728   2.347   6.166   3.693 -0.1961 -0.2998  0.0949
15746TIP3    H168729   2.372   6.232   3.628  0.1130 -1.3013 -0.8375
15746TIP3    H268730   2.252   6.175   3.701 -0.5371 -1.5588 -2.1103
15747TIP3   OH268731   6.651   6.469   1.586  0.5386 -0.5583  0.1788
15747TIP3    H168732   6.690   6.394   1.632  2.0118  1.0029  1.5224
15747TIP3    H268733   6.625   6.529   1.655  0.1322  0.5500 -0.9261
15748TIP3   OH268734   4.519   2.540   5.796  0.6320 -0.0758 -0.2724
15748TIP3    H168735   4.454   2.498   5.852  2.1252 -1.6653  0.3110
15748TIP3    H268736   4.594   2.481   5.797  1.6563  1.1315 -1.8959
15749TIP3   OH268737   2.710   0.201   6.060  0.2368  0.1450 -0.0363
15749TIP3    H168738   2.750   0.286   6.079  1.1861 -0.5032  0.9087
15749TIP3    H268739   2.699   0.160   6.145  0.2291 -0.8800 -0.5271
15750TIP3   OH268740   0.387   1.263  15.309 -0.4358  0.6972  0.2987
15750TIP3    H168741   0.452   1.302  15.367  0.5767  0.1984 -0.4926
15750TIP3    H268742   0.347   1.194  15.362 -0.5550  1.2219  0.8948
15751TIP3   OH268743   4.196   4.007  15.770  0.5402  0.1706 -0.6917
15751TIP3    H168744   4.129   3.947  15.737  0.2413 -0.6127  1.2941
15751TIP3    H268745   4.278   3.959  15.759  0.3696 -0.3546  0.3089
15752TIP3   OH268746   1.332   5.428   1.834  0.4834  0.7221 -0.0886
15752TIP3    H168747   1.379   5.398   1.911 -0.8949 -0.0202  0.4887
15752TIP3    H268748   1.340   5.523   1.836 -0.1286  0.7533  1.3516
15753TIP3   OH268749   6.232   5.354  12.100  0.4573  0.1423  0.5168
15753TIP3    H168750   6.264   5.299  12.172 -1.0996 -1.1899  0.2282
15753TIP3    H268751   6.264   5.312  12.021  1.1119  0.9087  0.3620
15754TIP3   OH268752   2.072   4.711  16.045 -0.0375 -0.3245  0.1789
15754TIP3    H168753   2.160   4.695  16.011  0.2956 -0.0532  0.8991
15754TIP3    H268754   2.014   4.669  15.982  0.6729 -1.5939  0.3555
15755TIP3   OH268755   2.034   5.686   6.138  0.0134  0.1149  0.2605
15755TIP3    H168756   2.006   5.761   6.191  0.2679  1.0369 -0.8874
15755TIP3    H268757   2.099   5.722   6.078  0.7388 -1.2022  0.2330
15756TIP3   OH268758   1.515   2.360  14.192  0.7560  0.1774 -0.1533
15756TIP3    H168759   1.487   2.269  14.202  1.2388  0.3375  2.9531
15756TIP3    H268760   1.446   2.401  14.139  0.6690 -2.0114 -1.8204
15757TIP3   OH268761   6.683   6.167  13.337  0.5961  0.0584  0.5343
15757TIP3    H168762   6.681   6.232  13.407  0.4629  0.7341 -0.0923
15757TIP3    H268763   6.602   6.181  13.289  1.6722  1.0167 -1.0310
15758TIP3   OH268764   1.781   1.082   0.819  0.0681  0.2010  0.1368
15758TIP3    H168765   1.765   1.093   0.913  0.0862  0.5455  0.1000
15758TIP3    H268766   1.761   0.990   0.802  0.4241  0.0491  0.5472
15759TIP3   OH268767   1.343   1.090   2.552 -0.0263  0.4454  0.4855
15759TIP3    H168768   1.426   1.055   2.583 -0.2850  0.1363  0.8311
15759TIP3    H268769   1.324   1.041   2.472  0.6850  1.3054 -0.2178
15760TIP3   OH268770   0.314   4.703   0.826 -0.3168 -0.0980  0.9423
15760TIP3    H168771   0.369   4.781   0.835  0.4029 -0.5789  0.7594
15760TIP3    H268772   0.335   4.649   0.902  0.8844 -1.1458 -0.1069
15761TIP3   OH268773   1.368   3.494  15.231 -0.2172 -0.5233  0.6412
15761TIP3    H168774   1.319   3.429  15.282  0.5982 -1.4559  0.2624
15761TIP3    H268775   1.301   3.550  15.192 -1.0203 -2.0886 -0.2911
15762TIP3   OH268776   0.784   3.582  11.585  0.0493  0.3676 -0.5546
15762TIP3    H168777   0.838   3.543  11.517 -0.6691 -0.0871 -0.8664
15762TIP3    H268778   0.697   3.544  11.573  0.0569 -0.2093  1.0134
15763TIP3   OH268779   3.790   3.029  13.172 -0.1775 -0.5041  0.4222
15763TIP3    H168780   3.741   2.960  13.128 -1.9417 -0.3860  2.1240
15763TIP3    H268781   3.764   3.110  13.127  0.5540 -0.7422 -0.4378
15764TIP3   OH268782   2.534   3.584  17.023  0.0656 -0.0067 -0.0771
15764TIP3    H168783   2.593   3.509  17.021 -0.4538 -0.4862  1.4821
15764TIP3    H268784   2.448   3.548  17.001  0.3018  0.6704 -2.2293
15765TIP3   OH268785   4.656   4.512  17.242  0.3877 -0.0467  0.5462
15765TIP3    H168786   4.732   4.492  17.188  0.1700 -0.7787  0.5052
15765TIP3    H268787   4.692   4.527  17.330  0.5393 -0.8001  0.6165
15766TIP3   OH268788   1.854   0.146   5.794 -0.3455  0.4275 -0.2115
15766TIP3    H168789   1.870   0.135   5.888  0.8449  0.7210 -0.3755
15766TIP3    H268790   1.760   0.134   5.784  0.0179 -4.0080  0.4267
15767TIP3   OH268791   4.109   5.965  10.637 -0.2397 -0.1647  0.0441
15767TIP3    H168792   4.116   5.974  10.542  1.4426  0.9651  0.2578
15767TIP3    H268793   4.198   5.952  10.667 -0.7430 -0.3813  1.4924
15768TIP3   OH268794   0.130   4.788   1.126 -0.6147 -0.3569 -0.1856
15768TIP3    H168795   0.206   4.729   1.129 -1.7165 -1.7212  1.2521
15768TIP3    H268796   0.061   4.736   1.085 -0.8585  0.8136 -1.3045
15769TIP3   OH268797   0.902   2.407   3.480 -0.0855  0.1747 -0.9996
15769TIP3    H168798   0.906   2.325   3.528 -1.4111 -0.7913 -2.4794
15769TIP3    H268799   0.856   2.468   3.538  0.1707 -0.3680 -0.2271
15770TIP3   OH268800   2.910   2.159  11.796 -0.0810  0.2183  0.5873
15770TIP3    H168801   2.938   2.190  11.882 -1.4163  1.0712  0.7241
15770TIP3    H268802   2.815   2.154  11.802 -0.1625  0.0039 -0.7543
15771TIP3   OH268803   5.941   2.828  16.304 -0.4811  0.0717  0.6529
15771TIP3    H168804   5.916   2.741  16.274 -2.3384  0.7714  0.0897
15771TIP3    H268805   5.967   2.875  16.225  2.1707 -0.4495  1.1596
15772TIP3   OH268806   2.876   5.645  17.140  0.0357  0.5618 -0.0109
15772TIP3    H168807   2.864   5.612  17.051 -0.1994 -1.4928  0.7442
15772TIP3    H268808   2.810   5.599  17.192 -0.5594  2.5472  1.0421
15773TIP3   OH268809   5.245   4.174   3.609  0.3509  0.0911  0.2860
15773TIP3    H168810   5.180   4.180   3.679 -1.6777 -2.3920 -1.2582
15773TIP3    H268811   5.198   4.203   3.531  0.7275 -2.6308 -1.0276
15774TIP3   OH268812   5.310   1.860   1.671  0.1812 -0.7789 -0.2853
15774TIP3    H168813   5.218   1.875   1.692  0.5053  1.4710 -0.3074
15774TIP3    H268814   5.313   1.850   1.576 -0.0020 -0.3842 -0.3340
15775TIP3   OH268815   5.837   0.100   1.949  0.0212 -0.5101 -0.2203
15775TIP3    H168816   5.766   0.064   1.895 -0.5443 -2.6453  1.9140
15775TIP3    H268817   5.916   0.058   1.917  0.1954  0.8748 -1.7013
15776TIP3   OH268818   4.090   5.068  16.771  0.1740 -0.4556 -0.0990
15776TIP3    H168819   4.081   5.001  16.838 -0.6612 -1.7472 -1.4683
15776TIP3    H268820   4.010   5.120  16.778 -0.5949 -1.4802 -1.0192
15777TIP3   OH268821   3.925   1.081   2.766 -0.1338  0.3747  0.3678
15777TIP3    H168822   3.900   1.058   2.676 -4.5651  1.5958  1.1370
15777TIP3    H268823   3.926   0.998   2.812  0.6627 -0.0994 -0.4920
15778TIP3   OH268824   1.235   0.141   4.171  0.7012  0.3028  0.1344
15778TIP3    H168825   1.252   0.204   4.240 -1.4847  0.7245  0.3267
15778TIP3    H268826   1.322   0.117   4.137  1.8704 -0.7110  3.6743
15779TIP3   OH268827   1.852   0.477  13.673  0.2246  0.0569 -0.3337
15779TIP3    H168828   1.784   0.409  13.674  1.0664 -0.8132 -1.0328
15779TIP3    H268829   1.865   0.496  13.580 -0.7177  1.9111 -0.0960
15780TIP3   OH268830   0.934   5.735   5.259 -0.4354 -0.3009  0.0420
15780TIP3    H168831   0.939   5.814   5.312 -1.0322  0.1949 -0.6301
15780TIP3    H268832   1.024   5.701   5.257  0.1364  1.2051 -0.9224
15781TIP3   OH268833   3.344   6.779  12.156  0.3536 -0.6622  0.1817
15781TIP3    H168834   3.351   6.743  12.245  1.4737  0.7823  0.6926
15781TIP3    H268835   3.431   6.812  12.137 -0.1651  0.0121 -1.0560
15782TIP3   OH268836   6.090   4.801  14.509  0.3245 -0.6515 -0.2333
15782TIP3    H168837   6.183   4.795  14.488 -0.1217 -1.6663 -2.0169
15782TIP3    H268838   6.085   4.777  14.602  1.9047  0.0696  0.0552
15783TIP3   OH268839   3.748   4.994  12.479 -0.1816  0.3386 -0.1855
15783TIP3    H168840   3.774   5.084  12.501  0.8217 -0.1020  0.4596
15783TIP3    H268841   3.831   4.947  12.471 -0.7236 -0.6422 -0.0217
15784TIP3   OH268842   1.541   3.184  15.103 -0.1218  0.0574 -0.0540
15784TIP3    H168843   1.602   3.247  15.063 -0.1644  0.8454  1.1181
15784TIP3    H268844   1.460   3.195  15.053  0.6709 -1.0088 -1.6353
15785TIP3   OH268845   4.172   2.493   2.303  0.2275  0.3063  0.8442
15785TIP3    H168846   4.219   2.510   2.222  1.3285 -0.4427  1.3152
15785TIP3    H268847   4.131   2.576   2.326 -1.3087  0.1681 -1.2414
15786TIP3   OH268848   6.753   0.567  11.927  0.0022 -0.2164  0.4190
15786TIP3    H168849   6.698   0.542  11.853  1.5482 -3.2241  0.2067
15786TIP3    H268850   6.843   0.556  11.895  0.6932  0.8462  1.9531
15787TIP3   OH268851   0.205   5.498   5.291  0.3178  0.1529  0.9628
15787TIP3    H168852   0.159   5.451   5.362  1.7902 -4.7271 -1.1012
15787TIP3    H268853   0.297   5.489   5.313  0.8167 -1.7669 -1.6803
15788TIP3   OH268854   1.301   0.151   4.796 -0.4012 -0.2343  0.9878
15788TIP3    H168855   1.307   0.056   4.805 -1.6215 -0.6318 -1.7512
15788TIP3    H268856   1.372   0.174   4.735  0.3822  0.7344  2.2360
15789TIP3   OH268857   0.046   2.163  11.641  0.2120 -0.0581  0.9134
15789TIP3    H168858   0.015   2.209  11.563 -1.4604 -3.4395 -0.5246
15789TIP3    H268859  -0.033   2.135  11.685  1.0758 -3.6724  0.3731
15790TIP3   OH268860   6.514   4.995  13.855 -0.2831 -0.1626 -0.0070
15790TIP3    H168861   6.481   4.914  13.816  1.8506 -0.3379 -1.5460
15790TIP3    H268862   6.590   4.968  13.906 -0.9309  0.5753  1.3519
15791TIP3   OH268863   0.356   0.699   5.046 -0.1542  0.4787 -0.0318
15791TIP3    H168864   0.342   0.771   5.107 -1.6376 -0.2013  0.4750
15791TIP3    H268865   0.435   0.655   5.077 -0.5058  0.5614  0.9913
15792TIP3   OH268866   2.239   2.792   2.853 -0.4772 -0.0746  0.7588
15792TIP3    H168867   2.331   2.783   2.828 -0.1504 -0.4212  2.0544
15792TIP3    H268868   2.241   2.849   2.930 -1.3485 -0.1569  0.8439
15793TIP3   OH268869   3.595   4.382  12.233  0.5637 -0.8969  0.0430
15793TIP3    H168870   3.533   4.419  12.295 -0.3769 -1.2140 -0.6932
15793TIP3    H268871   3.617   4.295  12.268  0.7852 -0.6861  0.4283
15794TIP3   OH268872   0.816   3.152   1.936 -0.1991  0.2719 -0.0693
15794TIP3    H168873   0.899   3.140   1.983  0.0232 -3.3218 -1.1844
15794TIP3    H268874   0.832   3.114   1.850 -2.8928 -0.1620 -0.4243
15795TIP3   OH268875   3.476   1.852  13.547 -0.4110 -0.8645 -0.4145
15795TIP3    H168876   3.495   1.911  13.473 -2.1717 -0.4983 -0.5801
15795TIP3    H268877   3.450   1.910  13.618  3.8739 -0.9875  1.4158
15796TIP3   OH268878   3.546   0.399   2.312 -0.3530 -0.4296  0.2246
15796TIP3    H168879   3.551   0.493   2.330  1.9804 -0.5187  0.2926
15796TIP3    H268880   3.532   0.359   2.397  0.7755 -0.2400  0.5172
15797TIP3   OH268881   0.523   5.429   4.448  0.1259 -0.3681 -0.1498
15797TIP3    H168882   0.473   5.359   4.490  1.6537 -1.5648 -0.3057
15797TIP3    H268883   0.581   5.462   4.517 -2.1321  2.2977  0.5752
15798TIP3   OH268884   1.846   1.697   3.440  0.0631  0.1936 -0.0673
15798TIP3    H168885   1.885   1.615   3.471  3.2188  1.1479 -1.4015
15798TIP3    H268886   1.827   1.746   3.520  1.2241 -0.4495  0.6098
15799TIP3   OH268887   2.935   5.662  13.076  0.7931  0.4126  0.0060
15799TIP3    H168888   2.968   5.580  13.114  0.5037  0.7131  0.9398
15799TIP3    H268889   2.979   5.669  12.992  1.5952 -0.1952  0.3596
15800TIP3   OH268890   4.911   3.877   5.457 -0.0281  0.0898  0.0789
15800TIP3    H168891   4.895   3.826   5.536 -2.9580  1.9738  0.7861
15800TIP3    H268892   4.957   3.955   5.488  0.3435  0.0503 -0.3608
15801TIP3   OH268893   3.625   6.030   2.374  0.0537 -0.2415 -0.1410
15801TIP3    H168894   3.582   6.043   2.290  0.2342 -0.9490 -0.3445
15801TIP3    H268895   3.572   5.964   2.418 -0.9610  1.2694  0.9560
15802TIP3   OH268896   0.258   0.236   6.446 -0.5735  0.2264  0.4818
15802TIP3    H168897   0.279   0.329   6.456 -1.3675  0.5909 -0.9728
15802TIP3    H268898   0.187   0.220   6.509 -0.2125  0.5302  0.9646
15803TIP3   OH268899   3.215   3.386  16.264 -0.3531 -0.0306  0.1067
15803TIP3    H168900   3.287   3.418  16.210 -0.9462  1.0634 -0.0442
15803TIP3    H268901   3.259   3.346  16.340  0.5127 -2.3089 -1.5267
15804TIP3   OH268902   3.489   1.355  11.314  0.3428 -0.2126  0.0808
15804TIP3    H168903   3.557   1.290  11.303  0.5063  0.1301 -0.9679
15804TIP3    H268904   3.536   1.438  11.326  0.1507 -0.3356  1.9111
15805TIP3   OH268905   2.563   5.052   4.805 -0.2309 -0.3118 -0.0306
15805TIP3    H168906   2.598   4.981   4.858 -1.8580 -0.5288  0.8053
15805TIP3    H268907   2.562   5.016   4.716 -2.7138 -2.0597  0.6372
15806TIP3   OH268908   6.235   5.821   2.397  0.0933 -0.7931  0.0318
15806TIP3    H168909   6.288   5.891   2.435 -0.2085 -0.9817  0.8129
15806TIP3    H268910   6.280   5.798   2.316  0.9612 -0.6368  0.4582
15807TIP3   OH268911   1.679   5.639   4.878 -0.5407  0.0304 -0.0082
15807TIP3    H168912   1.673   5.615   4.786  0.9360 -0.5441  0.0288
15807TIP3    H268913   1.691   5.733   4.878 -0.5356  0.0307 -0.4064
15808TIP3   OH268914   0.092   4.376  12.621 -0.2135 -0.3911 -0.2850
15808TIP3    H168915   0.033   4.403  12.551 -2.9886 -1.8503  1.4411
15808TIP3    H268916   0.134   4.296  12.588  0.2241  0.1842 -1.1609
15809TIP3   OH268917   5.206   6.091   4.584  0.4544  0.8618 -0.0228
15809TIP3    H168918   5.286   6.112   4.536  0.2493  0.5841 -0.4883
15809TIP3    H268919   5.135   6.126   4.530  0.1633 -0.2706 -0.3951
15810TIP3   OH268920   4.101   2.282  11.361 -0.7045 -0.2999 -0.1749
15810TIP3    H168921   4.088   2.225  11.437  1.8015  1.1800  1.4039
15810TIP3    H268922   4.016   2.326  11.350 -1.5234 -1.5565  0.8707
15811TIP3   OH268923   2.816   2.713  13.927  0.6154  0.0690  1.0091
15811TIP3    H168924   2.748   2.763  13.973 -0.9266 -3.1367  2.3470
15811TIP3    H268925   2.805   2.624  13.958  1.3192 -1.7281 -3.5712
15812TIP3   OH268926   2.713   0.972   4.217 -0.1198 -0.1550  0.5617
15812TIP3    H168927   2.779   0.940   4.155  0.5214  0.1727  1.0615
15812TIP3    H268928   2.738   1.063   4.233 -0.9834  0.1175  0.3903
15813TIP3   OH268929   2.999   3.578  12.917  0.1725 -0.4907 -0.2340
15813TIP3    H168930   2.975   3.645  12.853  1.2378  1.4692  1.3871
15813TIP3    H268931   3.044   3.511  12.865  0.6563  0.8661 -1.6233
15814TIP3   OH268932   5.435   5.672   2.050 -0.1734 -0.5787 -0.2089
15814TIP3    H168933   5.450   5.763   2.074 -0.8685 -0.6255  0.4370
15814TIP3    H268934   5.459   5.623   2.129 -0.6803 -0.8840 -0.2456
15815TIP3   OH268935   4.671   4.134  16.522 -0.2456  0.2175 -0.4450
15815TIP3    H168936   4.722   4.054  16.535  1.2533  1.3498  1.0730
15815TIP3    H268937   4.710   4.174  16.444 -0.5535 -0.2137 -0.8177
15816TIP3   OH268938   4.870   6.143   1.838  0.1700  0.4001  0.3466
15816TIP3    H168939   4.865   6.129   1.933 -3.4724  0.3414  0.2387
15816TIP3    H268940   4.789   6.191   1.817 -0.4728 -1.9791 -3.0931
15817TIP3   OH268941   5.964   3.174   3.187  0.0994  0.1423 -0.1135
15817TIP3    H168942   6.042   3.156   3.238  1.8310 -0.3307 -2.8470
15817TIP3    H268943   5.971   3.267   3.165 -0.7526  0.3987  0.6562
15818TIP3   OH268944   1.100   3.427  13.355  0.2939 -0.2680  1.0561
15818TIP3    H168945   1.053   3.506  13.382  0.0894  1.1274 -3.0586
15818TIP3    H268946   1.192   3.446  13.374  0.1626  0.6918  0.7607
15819TIP3   OH268947   4.810   1.305  11.025 -0.2045 -0.8575  0.4202
15819TIP3    H168948   4.785   1.321  10.934 -0.4571  0.0567  0.6446
15819TIP3    H268949   4.800   1.389  11.068  2.6446 -0.5899  0.6733
15820TIP3   OH268950   3.693   5.158   1.248 -0.0118 -0.4926 -0.5615
15820TIP3    H168951   3.606   5.138   1.284 -0.0416 -0.1463 -0.4367
15820TIP3    H268952   3.683   5.245   1.210  0.0245 -0.8543 -1.3987
15821TIP3   OH268953   6.375   1.900   2.764 -0.1950 -0.3463 -0.4649
15821TIP3    H168954   6.291   1.928   2.728 -0.1318 -0.2913 -0.5692
15821TIP3    H268955   6.369   1.919   2.857 -0.0057  0.3704 -0.5939
15822TIP3   OH268956   4.709   4.876   0.476 -0.2888  0.1342 -0.7867
15822TIP3    H168957   4.630   4.868   0.424  0.4796  1.0662 -2.1324
15822TIP3    H268958   4.696   4.816   0.550 -2.0884  0.0460 -1.1676
15823TIP3   OH268959   3.017   1.208   2.937  0.1857 -1.2452 -0.0946
15823TIP3    H168960   2.925   1.180   2.941 -0.3446  0.3250 -0.8734
15823TIP3    H268961   3.042   1.194   2.846 -0.5886  2.2588 -0.8921
15824TIP3   OH268962   6.041   0.681   6.361 -0.1947  0.0274  0.1807
15824TIP3    H168963   6.079   0.760   6.399 -1.2791 -0.0114  1.3742
15824TIP3    H268964   6.061   0.612   6.424 -0.9970 -0.2621  0.1200
15825TIP3   OH268965   5.505   0.120   3.572 -0.0667  0.3370 -0.5462
15825TIP3    H168966   5.591   0.116   3.616 -0.4645  0.1349  0.2286
15825TIP3    H268967   5.524   0.099   3.481  0.4815 -1.5050 -0.0400
15826TIP3   OH268968   4.395   6.798  11.036 -0.0815 -0.1935 -0.0877
15826TIP3    H168969   4.342   6.808  11.114 -0.0216  0.5255 -0.1411
15826TIP3    H268970   4.441   6.881  11.026  1.6749 -1.0688  0.4145
15827TIP3   OH268971   3.821   1.989   5.309  0.5160  0.1251 -0.4202
15827TIP3    H168972   3.879   1.962   5.237 -0.7792 -0.6925 -1.1720
15827TIP3    H268973   3.742   1.938   5.297  0.2815 -0.0489  1.6321
15828TIP3   OH268974   5.452   6.428   4.898 -0.9143  0.1945  0.4032
15828TIP3    H168975   5.490   6.342   4.882  1.3231  1.0399  1.0148
15828TIP3    H268976   5.437   6.431   4.992  0.7919  1.1326  0.6820
15829TIP3   OH268977   3.020   1.921   0.211  0.6994  0.2116  0.4180
15829TIP3    H168978   2.947   1.975   0.182  0.5767  0.9898  2.1169
15829TIP3    H268979   3.068   1.977   0.272  1.7731 -0.8722  0.5803
15830TIP3   OH268980   5.874   1.315   5.570  0.2411 -0.8314 -0.6216
15830TIP3    H168981   5.825   1.397   5.566 -1.1310 -1.6164 -0.2130
15830TIP3    H268982   5.893   1.294   5.478 -0.3264 -0.5886 -0.7987
15831TIP3   OH268983   5.824   5.793   1.286  0.1513 -0.5567  0.1913
15831TIP3    H168984   5.913   5.827   1.283 -0.1472  0.1488 -0.7735
15831TIP3    H268985   5.814   5.743   1.205 -1.0669  1.2307 -0.7847
15832TIP3   OH268986   5.861   3.600  12.743  0.1763  0.2463 -0.1428
15832TIP3    H168987   5.931   3.609  12.678 -0.8974  2.3435 -1.0158
15832TIP3    H268988   5.869   3.678  12.797 -1.9609  0.8537 -0.6936
15833TIP3   OH268989   4.628   0.897  16.548 -0.5977 -0.4481 -0.4608
15833TIP3    H168990   4.584   0.875  16.466 -0.0920 -0.3553 -0.7630
15833TIP3    H268991   4.612   0.991  16.559 -0.1770 -0.3389 -0.7588
15834TIP3   OH268992   0.721   3.377  16.491 -0.0240 -0.5843  0.6192
15834TIP3    H168993   0.682   3.404  16.407 -1.1305 -2.6245  0.4398
15834TIP3    H268994   0.805   3.337  16.466 -0.9354 -2.3758  0.3172
15835TIP3   OH268995   5.318   3.586  12.434 -0.3839  0.3299  0.0846
15835TIP3    H168996   5.282   3.549  12.515  1.2089 -1.0891  0.1799
15835TIP3    H268997   5.361   3.667  12.462  1.4429 -0.8955  0.9476
15836TIP3   OH268998   5.476   5.635   4.897 -0.5012 -0.0764 -0.3540
15836TIP3    H168999   5.402   5.696   4.892  0.8097  1.5667 -0.2176
15836TIP3    H269000   5.553   5.691   4.891  0.7624 -1.5708  1.4766
15837TIP3   OH269001   0.405   3.904   1.035 -0.3563  0.1084 -0.2321
15837TIP3    H169002   0.438   3.969   0.972  0.4187  0.6330  0.7024
15837TIP3    H269003   0.323   3.940   1.066  0.7552  1.3501  1.3398
15838TIP3   OH269004   0.131   5.017  14.502 -0.3834 -0.0244 -0.4505
15838TIP3    H169005   0.166   5.046  14.418  1.2717  1.4306  0.7077
15838TIP3    H269006   0.208   5.004  14.557 -1.4977  0.2889  1.2197
15839TIP3   OH269007   1.427   6.153  12.173 -0.2817  0.2194  0.0310
15839TIP3    H169008   1.426   6.245  12.199 -2.1169  0.5017 -0.9382
15839TIP3    H269009   1.485   6.110  12.236 -0.4830  1.7903  1.2965
15840TIP3   OH269010   3.238   5.518   2.765  0.8122  0.0445 -0.0673
15840TIP3    H169011   3.259   5.536   2.856  1.3013  0.5698 -0.2812
15840TIP3    H269012   3.243   5.603   2.721  2.8902 -0.5286 -1.0181
15841TIP3   OH269013   2.993   1.696   3.419  0.0414  0.1962  0.1466
15841TIP3    H169014   2.968   1.736   3.502 -1.4859  0.6647 -0.5187
15841TIP3    H269015   2.999   1.602   3.438 -0.3645  0.2948  0.7725
15842TIP3   OH269016   6.439   4.246   4.886  0.1629  0.3425  0.1291
15842TIP3    H169017   6.367   4.253   4.949 -0.3866  1.0928 -0.5720
15842TIP3    H269018   6.402   4.196   4.813  0.7115 -0.2834  0.2785
15843TIP3   OH269019   2.450   3.540   4.955 -0.1819 -0.5201  0.2648
15843TIP3    H169020   2.409   3.529   4.870  0.8245  1.0140 -0.4345
15843TIP3    H269021   2.447   3.634   4.971 -0.2529 -0.7731  1.8848
15844TIP3   OH269022   4.986   3.880  14.775 -0.4413  0.0193  0.1750
15844TIP3    H169023   4.961   3.820  14.846 -0.5000 -0.2128 -0.0436
15844TIP3    H269024   5.075   3.853  14.751 -1.2040 -1.2616 -1.2737
15845TIP3   OH269025   6.548   0.307  15.497 -0.4136 -0.0357  0.5638
15845TIP3    H169026   6.508   0.251  15.564 -0.5939 -2.0036 -1.1232
15845TIP3    H269027   6.538   0.257  15.416  4.4094 -0.1071 -0.1484
15846TIP3   OH269028   4.849   3.825   2.241  0.0869 -0.0114 -0.4764
15846TIP3    H169029   4.891   3.753   2.194  1.3780  0.7191 -0.4650
15846TIP3    H269030   4.885   3.904   2.201 -2.0744  0.6642 -1.1763
15847TIP3   OH269031   0.497   0.998  15.208 -0.1190 -0.0055  0.3934
15847TIP3    H169032   0.411   0.978  15.172 -0.2822  2.0495 -0.4106
15847TIP3    H269033   0.485   1.080  15.255  0.9159 -0.8265  2.1766
15848TIP3   OH269034   2.135   5.727   5.297 -0.1198 -0.3596  0.6760
15848TIP3    H169035   2.223   5.691   5.290 -0.5160 -1.8426  2.7635
15848TIP3    H269036   2.080   5.651   5.318 -2.1449  0.2882 -2.0439
15849TIP3   OH269037   2.771   0.054   2.842  0.1710  0.3874  0.3719
15849TIP3    H169038   2.730   0.096   2.766 -1.6407  1.3294  1.8218
15849TIP3    H269039   2.789  -0.035   2.814 -0.1767  0.8266 -1.2813
15850TIP3   OH269040   2.704   5.323  14.673  0.3823  0.0404  0.0832
15850TIP3    H169041   2.732   5.282  14.591  0.4155  3.6881 -1.8058
15850TIP3    H269042   2.619   5.281  14.692  1.0198 -1.8304 -1.0329
15851TIP3   OH269043   6.179   0.542  13.520 -0.1324 -0.4229 -0.2333
15851TIP3    H169044   6.093   0.517  13.487 -0.7379  1.8560 -0.4608
15851TIP3    H269045   6.200   0.622  13.473  1.1750  0.1728  1.3345
15852TIP3   OH269046   2.618   4.124  13.757 -0.0835  0.2795 -0.4822
15852TIP3    H169047   2.554   4.117  13.829  0.2792  1.0881 -0.0792
15852TIP3    H269048   2.682   4.187  13.788  0.5134  0.0279 -1.2003
15853TIP3   OH269049   1.825   1.703  17.010  0.2437  0.2248  0.4493
15853TIP3    H169050   1.869   1.644  17.072  0.2562 -0.4789 -0.2109
15853TIP3    H269051   1.759   1.648  16.968 -0.1090  0.8308  0.2090
15854TIP3   OH269052   3.015   3.817   2.694  0.6329 -0.2083  0.3718
15854TIP3    H169053   2.923   3.823   2.719 -0.0611 -0.8615 -1.9244
15854TIP3    H269054   3.028   3.726   2.669  1.9090 -0.1208  0.6826
15855TIP3   OH269055   1.186   3.437   1.615 -0.1275  0.3756  0.1511
15855TIP3    H169056   1.135   3.397   1.686 -0.6271 -1.1575 -1.0228
15855TIP3    H269057   1.119   3.468   1.554  0.3148 -0.1655 -0.6117
15856TIP3   OH269058   6.661   4.932   1.512 -0.3703 -0.5009  0.4648
15856TIP3    H169059   6.730   4.899   1.455 -1.5977 -0.4248 -1.1023
15856TIP3    H269060   6.600   4.859   1.520 -0.7107 -0.1717  0.8790
15857TIP3   OH269061   1.338   4.176   2.691  0.0943  0.4271 -0.0497
15857TIP3    H169062   1.389   4.208   2.765  1.4803 -1.1468 -0.2835
15857TIP3    H269063   1.359   4.235   2.619  0.9614  0.2832  0.0792
15858TIP3   OH269064   0.795   1.240  14.502  0.5262  0.7366 -0.3796
15858TIP3    H169065   0.758   1.325  14.476 -1.4628 -0.4531 -1.5690
15858TIP3    H269066   0.805   1.193  14.420 -0.0604 -0.8253  0.4223
15859TIP3   OH269067   2.378   1.778  14.790 -0.6250 -0.7976 -0.4499
15859TIP3    H169068   2.416   1.860  14.821 -1.5390  0.0907 -1.6360
15859TIP3    H269069   2.414   1.767  14.702 -0.8197 -1.4708 -0.4463
15860TIP3   OH269070   2.691   6.330   1.007  0.9403 -0.3256  0.3983
15860TIP3    H169071   2.752   6.258   0.990  0.3275 -0.6739 -0.3581
15860TIP3    H269072   2.604   6.290   1.000  0.4867  1.0557 -2.9831
15861TIP3   OH269073   2.090   4.580   1.728  0.0542 -0.1851  0.0116
15861TIP3    H169074   2.176   4.568   1.688 -0.9549 -1.0231 -1.9559
15861TIP3    H269075   2.029   4.589   1.655 -1.7258 -0.9184  1.3352
15862TIP3   OH269076   3.015   3.111   2.694  0.2579  0.1834 -0.2168
15862TIP3    H169077   2.954   3.149   2.758 -0.0639 -1.0357  0.2155
15862TIP3    H269078   2.962   3.046   2.647  1.0186 -0.3226 -0.3760
15863TIP3   OH269079   3.208   1.956   3.830 -0.2789 -0.3316  0.7425
15863TIP3    H169080   3.162   1.986   3.751 -0.4118  0.1266  0.9881
15863TIP3    H269081   3.243   1.870   3.807  0.1532  0.0422  0.0030
15864TIP3   OH269082   5.980   3.981  11.522 -0.2568  0.1550  0.2458
15864TIP3    H169083   5.996   3.947  11.610 -0.7566 -0.6670  0.0308
15864TIP3    H269084   5.956   3.903  11.471 -2.2721  0.9591 -0.0658
15865TIP3   OH269085   1.156   4.003  13.935  0.1755 -0.4728 -0.0627
15865TIP3    H169086   1.224   4.069  13.947 -0.6656  0.4247 -0.1643
15865TIP3    H269087   1.127   4.015  13.844 -0.1802 -0.7786  0.0079
15866TIP3   OH269088   1.598   6.793  16.411 -0.6677  0.1536 -0.3539
15866TIP3    H169089   1.535   6.866  16.411 -1.7083 -0.7282  0.7972
15866TIP3    H269090   1.619   6.779  16.503  0.3541 -0.3108 -0.6479
15867TIP3   OH269091   4.647   3.774   0.316  0.2921  0.3082  0.0145
15867TIP3    H169092   4.646   3.778   0.221 -0.6003 -1.2424 -0.0613
15867TIP3    H269093   4.568   3.819   0.343 -0.8242 -1.5230 -0.1095
15868TIP3   OH269094   4.527   2.892  14.625 -0.0959 -0.6656 -0.2422
15868TIP3    H169095   4.541   2.977  14.666 -0.2664 -0.1209 -1.3246
15868TIP3    H269096   4.587   2.890  14.551  0.1039 -1.5963 -0.0631
15869TIP3   OH269097   3.176   5.013   7.081 -0.1466 -0.1888  0.3811
15869TIP3    H169098   3.247   4.950   7.088 -1.5453 -1.9136 -0.7296
15869TIP3    H269099   3.100   4.969   7.118 -1.3832  0.4461 -1.3322
15870TIP3   OH269100   2.204   2.620  16.814  0.1454  0.6420  0.0802
15870TIP3    H169101   2.268   2.689  16.798 -0.4823  1.0915 -0.5116
15870TIP3    H269102   2.202   2.570  16.732  2.0258 -1.2625  1.1713
15871TIP3   OH269103   4.305   3.934   2.150 -0.3268 -0.0947  0.2689
15871TIP3    H169104   4.378   3.953   2.091 -1.0985 -2.2909 -1.4653
15871TIP3    H269105   4.344   3.883   2.221  0.2585  0.9188  0.6918
15872TIP3   OH269106   0.944   3.170   1.453  0.1588  0.0068  0.1164
15872TIP3    H169107   0.943   3.208   1.541  1.3801  0.2399  0.0442
15872TIP3    H269108   1.001   3.093   1.460 -0.2440 -0.3321 -0.3212
15873TIP3   OH269109   5.326   3.368   3.180 -0.3218  0.7460  0.3606
15873TIP3    H169110   5.317   3.358   3.274 -0.2477 -0.3425  0.2551
15873TIP3    H269111   5.271   3.299   3.143 -0.5253  1.3077 -0.3916
15874TIP3   OH269112   2.626   4.350  14.285  0.0393  0.4957  0.3185
15874TIP3    H169113   2.643   4.382  14.374  0.4096 -1.1458  0.8588
15874TIP3    H269114   2.658   4.419  14.228  0.9501  1.0232  1.4547
15875TIP3   OH269115   5.955   4.872   0.366 -0.3230  0.2932 -0.2282
15875TIP3    H169116   5.946   4.784   0.404 -0.0947  0.3058 -0.1429
15875TIP3    H269117   5.956   4.857   0.271  0.1504  0.1564 -0.2083
15876TIP3   OH269118   3.124   3.541  13.170  0.1955 -0.1305 -0.7779
15876TIP3    H169119   3.071   3.540  13.091 -1.3714 -0.3764  0.2560
15876TIP3    H269120   3.116   3.630  13.204  1.8518  0.3252 -1.5273
15877TIP3   OH269121   2.802   0.106   3.112 -0.5031  0.6604 -0.4712
15877TIP3    H169122   2.805   0.093   3.018 -2.3236  1.3621 -0.6383
15877TIP3    H269123   2.872   0.050   3.146  0.2408  0.4859 -2.2290
15878TIP3   OH269124   4.424   1.571  16.523  0.6743  0.8839  0.0058
15878TIP3    H169125   4.395   1.577  16.614 -1.3917 -0.7937 -0.4996
15878TIP3    H269126   4.352   1.607  16.472  1.1937  0.4645 -1.0524
15879TIP3   OH269127   1.056   1.550   2.285  0.0852 -0.1540  0.5679
15879TIP3    H169128   0.999   1.475   2.271  0.9084 -0.1191 -3.4023
15879TIP3    H269129   1.145   1.514   2.284  0.4449  0.7593 -0.4905
15880TIP3   OH269130   4.280   0.211  15.548  0.2341 -0.7571  0.0698
15880TIP3    H169131   4.268   0.299  15.514 -1.4876 -0.6162  1.0148
15880TIP3    H269132   4.206   0.161  15.514 -1.7770 -0.5138  3.8509
15881TIP3   OH269133   6.063   0.821   1.002 -0.3138  0.2746 -0.2468
15881TIP3    H169134   6.128   0.803   1.070  2.2108  0.1902 -2.5793
15881TIP3    H269135   6.018   0.738   0.990  1.0417 -0.4501 -0.4900
15882TIP3   OH269136   0.074   4.012   0.557 -0.1470 -0.9817  0.0040
15882TIP3    H169137   0.163   4.015   0.593 -0.3968  0.9340  0.5237
15882TIP3    H269138   0.020   3.980   0.629 -0.3183  0.8285  0.7268
15883TIP3   OH269139   2.667   4.884   1.812  0.0440  0.0195  0.2141
15883TIP3    H169140   2.752   4.909   1.776  2.1973 -3.9273  2.2272
15883TIP3    H269141   2.668   4.919   1.901 -0.9559  0.9477 -0.1320
15884TIP3   OH269142   3.099   4.615  15.150  0.1026  0.1640 -0.3250
15884TIP3    H169143   3.085   4.605  15.056  2.6983 -1.3054 -0.6011
15884TIP3    H269144   3.098   4.525  15.184  0.1525  0.6138  0.9003
15885TIP3   OH269145   3.093   5.368   5.003 -0.2772 -0.0900  0.1136
15885TIP3    H169146   3.177   5.325   5.018  0.7485  1.4374 -1.0335
15885TIP3    H269147   3.046   5.360   5.086  1.9701  1.1414  1.5497
15886TIP3   OH269148   4.910   0.034  15.511 -0.4424 -0.4615  0.3353
15886TIP3    H169149   4.985   0.084  15.543  0.4330 -2.2844  1.1625
15886TIP3    H269150   4.867   0.093  15.448  2.0052  0.3849 -0.5927
15887TIP3   OH269151   5.116   1.707   0.646  0.6644 -0.0887  0.0547
15887TIP3    H169152   5.029   1.673   0.625  1.1698 -1.0432 -0.5614
15887TIP3    H269153   5.099   1.787   0.697 -0.5641 -0.8119  0.8270
15888TIP3   OH269154   5.175   3.365   5.484  0.1350  0.0858  0.4519
15888TIP3    H169155   5.181   3.272   5.462 -1.9846  0.3760 -1.5352
15888TIP3    H269156   5.255   3.403   5.448  0.0085 -0.6323 -0.6313
15889TIP3   OH269157   0.562   4.332   5.486  0.2768  0.3501  0.0380
15889TIP3    H169158   0.495   4.269   5.514  1.1444  0.1364  1.7170
15889TIP3    H269159   0.635   4.318   5.547  0.7526  2.5315  0.0036
15890TIP3   OH269160   4.502   6.128  16.930 -0.4553 -0.3272  0.0144
15890TIP3    H169161   4.552   6.111  16.850  0.4281 -3.9219  1.2430
15890TIP3    H269162   4.413   6.102  16.908 -0.0191 -2.2675  0.4517
15891TIP3   OH269163   5.062   4.057   4.532 -0.0456 -0.9799 -0.0289
15891TIP3    H169164   4.992   4.089   4.474 -1.2735 -0.6261  1.5905
15891TIP3    H269165   5.123   4.131   4.538  0.0329 -0.9792 -0.7647
15892TIP3   OH269166   0.598   3.068  15.812 -0.1035  0.0862 -0.2638
15892TIP3    H169167   0.685   3.029  15.815 -0.7209 -1.2056  1.9713
15892TIP3    H269168   0.611   3.153  15.770  1.6410 -1.4897 -3.1062
15893TIP3   OH269169   5.186   2.154  15.606 -0.1570 -0.0508 -0.3278
15893TIP3    H169170   5.257   2.098  15.574  0.2108 -0.7660  1.6775
15893TIP3    H269171   5.110   2.128  15.555  0.5768 -0.6353 -1.1435
15894TIP3   OH269172   5.579   4.874  15.477 -0.0862 -0.2311 -0.1737
15894TIP3    H169173   5.535   4.878  15.562  2.6289  0.7162  1.2525
15894TIP3    H269174   5.576   4.963  15.443  1.2815 -0.0203  0.2400
15895TIP3   OH269175   0.953   5.381  10.999 -0.0402  0.3919  0.4469
15895TIP3    H169176   0.993   5.296  10.980 -0.7240  0.2928 -0.5960
15895TIP3    H269177   0.938   5.380  11.093  0.5240 -0.3926  0.5350
15896TIP3   OH269178   2.253   1.928   0.045  0.4161 -0.1495 -0.3981
15896TIP3    H169179   2.250   2.023   0.057 -1.5202 -0.0713 -1.3086
15896TIP3    H269180   2.285   1.916  -0.044 -0.9283 -0.2967 -0.8699
15897TIP3   OH269181   0.537   4.643  15.907 -0.5832 -0.1503  0.0236
15897TIP3    H169182   0.620   4.617  15.947 -1.3904  1.6004  2.9872
15897TIP3    H269183   0.562   4.704  15.838  0.7239 -1.5888 -0.8003
15898TIP3   OH269184   5.829   2.287  11.890  0.6591 -0.7879  0.0179
15898TIP3    H169185   5.810   2.230  11.816  3.5152  0.6269 -1.9119
15898TIP3    H269186   5.923   2.275  11.906  0.9708  2.0983  0.6362
15899TIP3   OH269187   4.570   4.211  17.168 -0.2859  0.4688 -0.1830
15899TIP3    H169188   4.573   4.280  17.234  1.1337 -0.0502  0.3164
15899TIP3    H269189   4.585   4.256  17.085  0.0508  0.8470  0.0833
15900TIP3   OH269190   0.150   0.560  16.251  0.3776 -0.6571 -0.2367
15900TIP3    H169191   0.083   0.564  16.320  1.1197 -0.2785  0.4674
15900TIP3    H269192   0.129   0.634  16.194 -2.1070 -2.7498 -2.1880
15901TIP3   OH269193   1.567   1.735   5.255 -0.4849 -0.3655 -0.1695
15901TIP3    H169194   1.654   1.700   5.234 -0.8806 -2.5063  1.6090
15901TIP3    H269195   1.556   1.718   5.348 -2.3503  0.9537 -0.1244
15902TIP3   OH269196   4.066   2.467   1.907  0.3102  0.0106  0.4056
15902TIP3    H169197   4.002   2.511   1.962 -0.0989 -2.0622  1.6334
15902TIP3    H269198   4.136   2.442   1.967  1.1743  0.1485 -0.5192
15903TIP3   OH269199   0.641   6.527   3.455 -0.1870  0.3851 -0.5777
15903TIP3    H169200   0.654   6.534   3.360 -1.1628 -0.0220 -0.7434
15903TIP3    H269201   0.654   6.617   3.487  1.3352  0.3091 -0.9357
15904TIP3   OH269202   2.826   3.466   2.155 -0.6565  0.0735 -0.6632
15904TIP3    H169203   2.843   3.419   2.236 -0.2147  1.3002 -0.0244
15904TIP3    H269204   2.795   3.399   2.094 -0.4239 -0.9578  0.3349
15905TIP3   OH269205   3.917   1.583  11.904 -0.2679  0.2284  0.0338
15905TIP3    H169206   4.007   1.564  11.932 -0.0760  1.7734  0.5027
15905TIP3    H269207   3.862   1.546  11.973  0.1244  1.8470  1.2472
15906TIP3   OH269208   4.720   3.218   3.448 -0.2975  0.6516  0.3885
15906TIP3    H169209   4.739   3.291   3.388 -1.2034  1.7300  1.4021
15906TIP3    H269210   4.707   3.259   3.533 -0.2556 -0.7573  1.0876
15907TIP3   OH269211   2.416   2.278  14.172  0.4348  0.0717 -0.7406
15907TIP3    H169212   2.345   2.261  14.233  0.9832  1.2286  0.2325
15907TIP3    H269213   2.380   2.254  14.086 -0.9034  0.0585 -0.1855
15908TIP3   OH269214   2.485   0.835  13.393  0.0614 -0.0723  0.2407
15908TIP3    H169215   2.403   0.786  13.389 -1.0002  1.7250 -0.6953
15908TIP3    H269216   2.485   0.874  13.481 -0.6385  0.7950 -0.1276
15909TIP3   OH269217   5.436   0.099   1.156 -0.1638  0.2103 -0.1218
15909TIP3    H169218   5.340   0.098   1.157 -0.2151 -0.0930 -2.4910
15909TIP3    H269219   5.459   0.190   1.135  0.0837  0.3794  0.8681
15910TIP3   OH269220   2.706   6.435  16.313  0.5931  0.0035  0.0535
15910TIP3    H169221   2.691   6.521  16.273 -0.4826  0.0835  0.6229
15910TIP3    H269222   2.620   6.395  16.317  1.0843 -1.0777 -0.1346
15911TIP3   OH269223   0.410   2.068  12.750 -0.0861  0.0432 -0.1589
15911TIP3    H169224   0.361   2.095  12.828 -0.0564  0.7629 -0.3873
15911TIP3    H269225   0.381   1.978  12.733 -0.3355  0.0031  0.4896
15912TIP3   OH269226   1.705   1.507   2.467 -0.0760 -0.5790  0.0001
15912TIP3    H169227   1.731   1.440   2.404 -0.2377 -1.2110  0.5908
15912TIP3    H269228   1.755   1.486   2.546  1.0937  0.9579 -0.3032
15913TIP3   OH269229   1.634   6.254   0.477 -0.3853 -0.2645 -0.3218
15913TIP3    H169230   1.708   6.231   0.421 -0.3229 -2.5351  0.6265
15913TIP3    H269231   1.557   6.226   0.428 -0.4693 -0.0495 -0.3123
15914TIP3   OH269232   3.335   0.425  17.059  0.3108 -0.0465 -0.0847
15914TIP3    H169233   3.360   0.426  16.967  0.7809  0.4809  0.0471
15914TIP3    H269234   3.346   0.515  17.088  1.8375 -0.5410  0.9305
15915TIP3   OH269235   4.448   6.071   5.603  0.1539  0.5223 -0.2857
15915TIP3    H169236   4.505   5.997   5.621 -0.8666 -0.5172 -1.2818
15915TIP3    H269237   4.414   6.055   5.515 -1.0700  1.5067 -0.0123
15916TIP3   OH269238   3.792   5.442  16.486 -0.2621  0.3623 -0.0033
15916TIP3    H169239   3.771   5.394  16.405  1.3577 -1.3178  0.5542
15916TIP3    H269240   3.869   5.495  16.464 -0.5360  0.8180  0.1160
15917TIP3   OH269241   1.444   0.067  12.840 -0.3603 -0.1384  0.4408
15917TIP3    H169242   1.366   0.122  12.846  0.2913  1.0898 -1.9577
15917TIP3    H269243   1.418  -0.005  12.782 -0.0640 -0.3365  0.5520
15918TIP3   OH269244   0.874   5.472  15.367 -0.3664 -0.2883 -0.2707
15918TIP3    H169245   0.952   5.429  15.332 -0.1021  0.6864 -0.8955
15918TIP3    H269246   0.806   5.404  15.364  0.6860 -1.4192  1.1517
15919TIP3   OH269247   3.003   3.486   0.371  0.4510  0.1084 -0.2719
15919TIP3    H169248   3.056   3.537   0.432  0.2599 -0.1206  0.0877
15919TIP3    H269249   2.932   3.544   0.345  1.7030  0.9515 -1.9325
15920TIP3   OH269250   6.313   1.275   0.865 -0.0551 -0.0584 -0.2240
15920TIP3    H169251   6.371   1.202   0.886  0.5243  0.3770 -0.3011
15920TIP3    H269252   6.225   1.237   0.869  0.1278 -0.3458  1.4522
15921TIP3   OH269253   4.598   4.678  12.702 -0.6908 -0.2857 -0.3328
15921TIP3    H169254   4.566   4.605  12.649  0.0781  0.8941 -2.4816
15921TIP3    H269255   4.579   4.756  12.650 -0.0163  0.9296  1.1849
15922TIP3   OH269256   6.487   5.616  15.238  0.3638 -0.3044  0.0829
15922TIP3    H169257   6.537   5.619  15.157  0.2581  0.9748  0.0586
15922TIP3    H269258   6.546   5.652  15.304 -0.1320  0.2133  0.2532
15923TIP3   OH269259   3.440   2.826   5.000  0.4028 -0.6374  0.0383
15923TIP3    H169260   3.426   2.784   4.916  3.1972  0.3748 -0.9995
15923TIP3    H269261   3.399   2.912   4.991  2.6565  0.3609 -1.1699
15924TIP3   OH269262   1.296   5.603  17.103  0.3533 -0.0497 -0.0477
15924TIP3    H169263   1.220   5.617  17.048  0.2840  1.8708  0.4971
15924TIP3    H269264   1.261   5.600  17.192  0.9655  1.5503  0.2660
15925TIP3   OH269265   3.172   4.447   3.350  0.2210  0.0008 -0.3898
15925TIP3    H169266   3.091   4.415   3.309  1.2166 -1.1543 -1.5011
15925TIP3    H269267   3.171   4.410   3.438 -0.1606 -0.4990 -0.6020
15926TIP3   OH269268   0.030   3.206  14.902  0.6290  0.3936 -0.1391
15926TIP3    H169269   0.080   3.246  14.830  0.5739  2.8932  1.1617
15926TIP3    H269270  -0.042   3.267  14.918 -0.4481 -1.0953  0.7901
15927TIP3   OH269271   0.323   3.897   0.037 -0.6571  0.3786  0.9236
15927TIP3    H169272   0.378   3.862  -0.033 -0.2591 -1.1550  1.9859
15927TIP3    H269273   0.322   3.829   0.104 -0.7387  1.9477  2.5787
15928TIP3   OH269274   4.776   6.798   1.081  0.4292 -0.9465  0.0725
15928TIP3    H169275   4.808   6.830   0.996  2.7720 -1.5138  0.7103
15928TIP3    H269276   4.854   6.792   1.135 -1.3493  1.5880  3.0500
15929TIP3   OH269277   3.962   1.496   4.222  0.0563  0.4643  0.4566
15929TIP3    H169278   3.899   1.560   4.254 -0.8866  0.1429 -0.7357
15929TIP3    H269279   3.985   1.526   4.134  1.0195  0.1789  0.5978
15930TIP3   OH269280   3.273   1.669  14.171 -0.9051  0.2629  0.2880
15930TIP3    H169281   3.311   1.703  14.090  0.4855  0.1947  0.8991
15930TIP3    H269282   3.341   1.612  14.207 -1.1868  0.9719  1.9476
15931TIP3   OH269283   1.952   0.545   1.379  0.0510 -0.1268  0.2706
15931TIP3    H169284   2.041   0.536   1.347  0.6065 -0.7815  1.9768
15931TIP3    H269285   1.929   0.636   1.361  0.9207 -0.0590 -0.5176
15932TIP3   OH269286   3.949   1.017  17.158 -0.1912  0.0225 -0.6056
15932TIP3    H169287   3.979   0.959  17.089 -0.9373  0.3372 -1.2049
15932TIP3    H269288   3.882   0.967  17.205 -0.1302  0.0376 -0.5024
15933TIP3   OH269289   3.785   5.445   1.185 -0.0399  0.4334 -0.0841
15933TIP3    H169290   3.772   5.444   1.280 -0.1262 -0.3906 -0.0966
15933TIP3    H269291   3.698   5.461   1.149  0.0243  0.9291 -0.0222
15934TIP3   OH269292   4.793   0.287   9.839 -0.2134  0.0018 -0.3520
15934TIP3    H169293   4.789   0.377   9.807 -0.9670  0.0470 -0.1418
15934TIP3    H269294   4.703   0.255   9.831  0.1920 -0.9489 -1.0598
15935TIP3   OH269295   4.356   2.398   0.880  0.0283 -0.1701  0.2329
15935TIP3    H169296   4.404   2.317   0.896 -0.7557 -0.1682  2.6864
15935TIP3    H269297   4.362   2.410   0.785  2.2582 -1.7675  0.1346
15936TIP3   OH269298   0.459   6.714  14.424  0.6308  0.1746  0.2672
15936TIP3    H169299   0.366   6.733  14.436  0.8106  0.2541  1.6308
15936TIP3    H269300   0.501   6.800  14.417  0.5477  0.1301 -0.8308
15937TIP3   OH269301   3.112   5.304  15.447  0.8707 -0.4305  0.7388
15937TIP3    H169302   3.188   5.294  15.390  0.9937 -0.7382  0.9496
15937TIP3    H269303   3.122   5.233  15.511 -0.6018 -1.6973 -0.3776
15938TIP3   OH269304   4.339   3.597   0.172  0.0698 -0.9085 -0.1983
15938TIP3    H169305   4.388   3.514   0.172  2.3429  0.3399  2.2857
15938TIP3    H269306   4.299   3.601   0.259 -2.0931 -0.5111 -1.1771
15939TIP3   OH269307   2.799   5.933  16.783 -0.3479 -0.1182 -0.1613
15939TIP3    H169308   2.886   5.970  16.796 -0.4768  0.1565 -0.0793
15939TIP3    H269309   2.799   5.903  16.692  0.6507 -2.2750  0.5160
15940TIP3   OH269310   2.375   3.092   4.912 -0.0575 -0.2570 -0.7435
15940TIP3    H169311   2.368   3.156   4.841  0.7702  0.0091 -0.5932
15940TIP3    H269312   2.341   3.139   4.989  0.5499  0.0113 -0.6334
15941TIP3   OH269313   5.819   6.739  14.133 -0.5123 -0.2058 -0.6873
15941TIP3    H169314   5.907   6.760  14.101 -0.5187 -1.1008 -1.2872
15941TIP3    H269315   5.791   6.819  14.179 -0.3876  1.0266 -2.6522
15942TIP3   OH269316   3.099   0.063  16.577  0.6142 -0.0986 -0.1998
15942TIP3    H169317   3.077   0.017  16.658 -0.4453  0.9685  0.1397
15942TIP3    H269318   3.171   0.122  16.602 -0.7049  1.3038  0.3388
15943TIP3   OH269319   4.380   4.766   6.355 -0.3451 -0.0862  0.4948
15943TIP3    H169320   4.307   4.716   6.393  0.0385 -0.2568  1.0107
15943TIP3    H269321   4.458   4.724   6.391 -0.0396  2.7608  3.3279
15944TIP3   OH269322   0.418   2.099  14.507  0.1350 -0.5209 -0.4040
15944TIP3    H169323   0.397   2.057  14.591  2.7960  0.0554  0.5858
15944TIP3    H269324   0.432   2.191  14.529  2.3424 -0.6425 -1.1959
15945TIP3   OH269325   2.066   0.654   3.624  0.1250 -0.3540 -0.6595
15945TIP3    H169326   1.997   0.634   3.560 -1.4177  0.6214  0.6333
15945TIP3    H269327   2.080   0.748   3.615  0.2345 -0.2949  0.0843
15946TIP3   OH269328   5.223   4.620   1.380  0.7645 -0.0057  0.3456
15946TIP3    H169329   5.247   4.527   1.377 -1.5133 -0.7392  3.1392
15946TIP3    H269330   5.281   4.657   1.447  0.4475  0.1933  0.5089
15947TIP3   OH269331   4.356   0.032   2.981 -0.5930 -0.2075 -0.2754
15947TIP3    H169332   4.325   0.068   2.898  2.0645 -0.7275 -1.5475
15947TIP3    H269333   4.389   0.107   3.029 -0.9000 -0.0911 -0.2439
15948TIP3   OH269334   2.112   6.701   6.130 -0.3964 -0.2792  0.2732
15948TIP3    H169335   2.133   6.609   6.142 -2.6809 -0.6702  1.6078
15948TIP3    H269336   2.039   6.702   6.068 -1.2181  0.5046  1.2092
15949TIP3   OH269337   5.521   6.495  16.806 -0.4094 -0.3217  0.8082
15949TIP3    H169338   5.584   6.563  16.782 -1.2445 -0.2331 -1.2244
15949TIP3    H269339   5.453   6.501  16.739 -3.6704  0.9604  4.0895
15950TIP3   OH269340   6.255   5.279   3.892 -0.0099  0.5173  0.2444
15950TIP3    H169341   6.217   5.200   3.854 -1.4325  1.0913  0.4755
15950TIP3    H269342   6.344   5.281   3.857 -0.2545 -0.7080 -0.4716
15951TIP3   OH269343   4.227   0.994   1.609  0.2542  0.0246 -0.3945
15951TIP3    H169344   4.177   0.945   1.543 -0.8287 -0.4587  0.7539
15951TIP3    H269345   4.309   0.945   1.618 -0.2266 -0.7856 -0.2912
15952TIP3   OH269346   0.387   5.645   2.523  0.1747 -0.0243  0.1986
15952TIP3    H169347   0.347   5.713   2.468  0.4405 -0.9312 -1.1144
15952TIP3    H269348   0.391   5.568   2.468  1.5347 -0.6250  1.1078
15953TIP3   OH269349   2.738   0.292  14.231 -0.1013  0.2404  0.8210
15953TIP3    H169350   2.699   0.279  14.145 -0.0731  2.2807  0.4680
15953TIP3    H269351   2.787   0.374  14.223  1.1615 -0.3405  2.3428
15954TIP3   OH269352   4.805   5.315   1.897  0.4586  0.2666 -0.0231
15954TIP3    H169353   4.770   5.368   1.968 -1.3718  1.3916 -1.7270
15954TIP3    H269354   4.895   5.346   1.887  1.2299 -0.9260  2.7386
15955TIP3   OH269355   5.957   4.465  14.222  0.0621 -0.5175 -0.3815
15955TIP3    H169356   5.880   4.409  14.214 -0.4724  0.2788 -0.9733
15955TIP3    H269357   5.928   4.538  14.277  1.0770 -1.3567  1.3246
15956TIP3   OH269358   5.208   1.556   2.287 -0.2359  0.1752  0.2096
15956TIP3    H169359   5.292   1.574   2.330 -0.3269 -1.4791  1.1356
15956TIP3    H269360   5.206   1.461   2.279 -1.8291  0.2388 -0.2212
15957TIP3   OH269361   1.508   2.600  16.320  0.2950 -0.1114 -0.5944
15957TIP3    H169362   1.570   2.666  16.292  0.0487 -0.1817 -1.2996
15957TIP3    H269363   1.422   2.635  16.297  0.1126 -0.3151 -0.2427
15958TIP3   OH269364   4.454   3.180   5.919 -0.0272 -0.5082 -0.1918
15958TIP3    H169365   4.470   3.225   6.001  1.1844  1.3364 -1.3972
15958TIP3    H269366   4.541   3.169   5.880 -0.5860 -1.2338 -1.2822
15959TIP3   OH269367   6.310   4.093   4.036  0.3507 -0.3384 -0.3419
15959TIP3    H169368   6.383   4.138   3.994 -0.0636  0.5198 -0.1415
15959TIP3    H269369   6.348   4.058   4.117  0.7709 -0.7008 -0.6904
15960TIP3   OH269370   5.559   2.434  17.289 -0.0042  0.6974  0.0720
15960TIP3    H169371   5.609   2.509  17.322  0.2134  0.3569  0.5175
15960TIP3    H269372   5.534   2.385  17.367 -0.5558  0.5574 -0.1856
15961TIP3   OH269373   0.843   2.918   5.316 -0.0589 -0.7756 -0.2306
15961TIP3    H169374   0.845   2.914   5.412  0.1941 -2.0638 -0.2825
15961TIP3    H269375   0.930   2.948   5.291  0.3438 -1.8304 -0.1119
15962TIP3   OH269376   0.705   0.461  10.427 -0.1871  0.0037  0.3888
15962TIP3    H169377   0.740   0.418  10.349  0.1025  3.1429 -1.2893
15962TIP3    H269378   0.780   0.468  10.486  0.5876  1.3039 -0.7371
15963TIP3   OH269379   6.486   2.009   1.105  0.3028 -0.0170 -0.7442
15963TIP3    H169380   6.475   1.924   1.146  0.4753 -0.3392 -1.3634
15963TIP3    H269381   6.424   2.066   1.151  1.0941 -0.1642  0.5320
15964TIP3   OH269382   0.207   0.058   4.475 -0.4379 -0.6912  0.0396
15964TIP3    H169383   0.151   0.100   4.409 -2.1743 -2.1248  0.5656
15964TIP3    H269384   0.263  -0.000   4.425 -0.5287 -0.4533 -0.3453
15965TIP3   OH269385   3.806   0.276  14.883 -0.0531 -0.6042  0.1820
15965TIP3    H169386   3.895   0.243  14.874 -0.4277 -1.1196 -2.2868
15965TIP3    H269387   3.758   0.205  14.926  0.6730 -0.4099  1.3176
15966TIP3   OH269388   0.678   4.944   3.401 -0.4775 -0.2218  0.2514
15966TIP3    H169389   0.636   5.014   3.350 -1.9773 -1.4729 -0.2628
15966TIP3    H269390   0.719   4.990   3.475  3.0602  1.8377 -2.7855
15967TIP3   OH269391   0.881   5.416  14.238 -0.3121 -0.1803 -0.3803
15967TIP3    H169392   0.818   5.451  14.301  0.8836  1.3847 -0.0225
15967TIP3    H269393   0.961   5.402  14.289  1.0175  2.1387 -1.7300
15968TIP3   OH269394   2.626   3.044   1.513 -0.1184 -0.0564  0.2234
15968TIP3    H169395   2.631   3.124   1.566 -0.9736 -0.1201  0.4077
15968TIP3    H269396   2.712   3.038   1.471 -0.5882  1.8193 -1.0593
15969TIP3   OH269397   6.537   6.340  13.503  0.0758  0.1740  0.1276
15969TIP3    H169398   6.552   6.412  13.564  1.3421 -0.5980  0.7196
15969TIP3    H269399   6.450   6.307  13.526  0.2267  0.3820  1.0000
15970TIP3   OH269400   4.464   4.305  13.978 -0.4365  0.3635  0.1456
15970TIP3    H169401   4.446   4.310  14.071  0.8451 -0.3512  0.4480
15970TIP3    H269402   4.502   4.390  13.956  2.3217 -0.5772  0.9976
15971TIP3   OH269403   3.601   1.748   0.778  0.8138  0.3844  0.7117
15971TIP3    H169404   3.682   1.780   0.738  0.5609  1.2339  0.8570
15971TIP3    H269405   3.535   1.813   0.754  0.1652 -0.3206  0.5703
15972TIP3   OH269406   0.722   1.500  12.161 -0.1654  0.3821 -0.5363
15972TIP3    H169407   0.700   1.438  12.093  0.0056  0.5412 -0.7388
15972TIP3    H269408   0.659   1.571  12.152  0.8673  1.1883 -1.5891
15973TIP3   OH269409   6.706   5.775   0.827 -0.3162 -0.1033  0.4775
15973TIP3    H169410   6.707   5.756   0.733 -0.2014 -0.7048  0.5930
15973TIP3    H269411   6.757   5.703   0.866  1.6790  1.4360  0.7660
15974TIP3   OH269412   1.385   6.596  11.350  0.6475  0.2944  0.1846
15974TIP3    H169413   1.358   6.519  11.401  2.0118  0.0259  0.5147
15974TIP3    H269414   1.388   6.564  11.259 -1.7424  0.7623 -0.0923
15975TIP3   OH269415   1.399   2.642  12.176 -0.0848 -0.2955 -0.2153
15975TIP3    H169416   1.372   2.710  12.114  0.0800 -0.5008 -0.5167
15975TIP3    H269417   1.469   2.683  12.227 -1.3516  0.4289  0.9602
15976TIP3   OH269418   0.487   6.662  12.041 -0.2079 -0.5445 -0.2876
15976TIP3    H169419   0.477   6.612  12.123 -0.2474 -2.2613 -1.3102
15976TIP3    H269420   0.399   6.667  12.005 -0.4329  1.4711  0.4527
15977TIP3   OH269421   2.521   4.312   5.552 -0.7290 -0.0418  0.5716
15977TIP3    H169422   2.478   4.392   5.582 -2.1654 -0.5174 -0.1223
15977TIP3    H269423   2.534   4.260   5.631 -2.1881 -0.2244  0.7030
15978TIP3   OH269424   4.957   0.452  10.773  0.7511 -0.6979  0.3193
15978TIP3    H169425   4.966   0.491  10.686 -0.7689 -0.2713  0.3418
15978TIP3    H269426   4.999   0.515  10.832 -0.7537  0.4290  0.2242
15979TIP3   OH269427   0.115   4.040  17.231  0.3008 -0.1161 -0.6449
15979TIP3    H169428   0.170   3.999  17.297 -2.3389  2.0142  3.0802
15979TIP3    H269429   0.149   4.129  17.224 -1.3211  0.5838  0.1555
15980TIP3   OH269430   0.724   3.102   3.408  0.1812  0.0238 -0.3471
15980TIP3    H169431   0.708   3.138   3.320 -0.0532  0.7642 -0.0086
15980TIP3    H269432   0.818   3.117   3.423  0.2516 -0.2337 -0.5270
15981TIP3   OH269433   0.512   6.094  16.803 -0.3509 -0.1139  0.2088
15981TIP3    H169434   0.553   6.129  16.882 -0.0605  1.7652 -0.7462
15981TIP3    H269435   0.495   6.002  16.823 -0.9976  0.5151  2.7359
15982TIP3   OH269436   2.889   0.787   3.728  0.3460 -0.1223 -0.7550
15982TIP3    H169437   2.814   0.841   3.702  0.2099  0.1607  0.2072
15982TIP3    H269438   2.965   0.845   3.718  0.3689 -0.2286 -1.1840
15983TIP3   OH269439   2.068   3.215   2.236  0.4607 -0.2405 -0.1408
15983TIP3    H169440   2.088   3.139   2.181  2.3721  0.2013 -0.1009
15983TIP3    H269441   2.086   3.185   2.326 -0.1159 -0.1609  0.0016
15984TIP3   OH269442   0.715   0.319   1.222  0.7024  0.5056 -0.2339
15984TIP3    H169443   0.685   0.254   1.158  0.1103  0.7264 -0.1829
15984TIP3    H269444   0.767   0.268   1.284 -0.1137 -0.0030  0.0441
15985TIP3   OH269445   1.366   4.606  14.309 -0.3997 -0.3379  0.7698
15985TIP3    H169446   1.283   4.647  14.283  0.0379 -0.4143 -0.7843
15985TIP3    H269447   1.370   4.525  14.259  1.0433  0.1163  0.1106
15986TIP3   OH269448   0.769   0.478  15.072 -0.3295  0.1370 -0.7191
15986TIP3    H169449   0.739   0.566  15.048 -2.0464  0.3332  1.9391
15986TIP3    H269450   0.689   0.426  15.078  0.1770 -0.4281  2.1823
15987TIP3   OH269451   4.925   0.577   3.376 -0.0205  0.0086  0.1923
15987TIP3    H169452   4.980   0.522   3.320  0.4779  1.0691 -0.3855
15987TIP3    H269453   4.863   0.618   3.315 -0.0169  0.5162  0.5262
15988TIP3   OH269454   4.402   6.399  12.590  0.0750 -0.6215 -0.5685
15988TIP3    H169455   4.314   6.416  12.625  0.1827 -0.3660 -0.4181
15988TIP3    H269456   4.427   6.314  12.628  0.5656  0.0880  0.7300
15989TIP3   OH269457   4.885   4.029   6.526 -0.1410 -0.7865  0.3633
15989TIP3    H169458   4.921   4.096   6.583 -0.0318 -0.2121 -0.3692
15989TIP3    H269459   4.959   3.997   6.475 -0.4545 -0.4129 -0.3359
15990TIP3   OH269460   1.762   5.149  15.459  0.5852  0.3830  0.0594
15990TIP3    H169461   1.806   5.169  15.377 -0.3919  0.2501 -0.5006
15990TIP3    H269462   1.730   5.059  15.448  1.0767  0.1051  0.8593
15991TIP3   OH269463   6.675   2.555  12.454  0.3212  0.0947  0.0449
15991TIP3    H169464   6.697   2.510  12.536 -1.4628 -0.2406  0.3752
15991TIP3    H269465   6.743   2.620  12.443  0.1800  0.6440  2.2095
15992TIP3   OH269466   1.142   6.214  13.040 -0.4347 -0.0476  0.0599
15992TIP3    H169467   1.058   6.257  13.054  0.3435  1.4982  0.1230
15992TIP3    H269468   1.194   6.278  12.991  0.7859 -0.8836  0.2274
15993TIP3   OH269469   3.827   1.370  16.149 -0.3524  0.5403 -0.0252
15993TIP3    H169470   3.753   1.309  16.151 -0.2021  0.2214 -2.5777
15993TIP3    H269471   3.894   1.329  16.203 -1.2514 -0.2095  0.5334
15994TIP3   OH269472   3.748   6.529   1.026  0.7255  0.1712 -0.6902
15994TIP3    H169473   3.815   6.545   1.092 -0.5175  0.1948  0.5856
15994TIP3    H269474   3.666   6.554   1.069 -0.2612 -1.2471 -1.7179
15995TIP3   OH269475   4.633   1.508  13.821 -0.3928  0.3134  0.1062
15995TIP3    H169476   4.599   1.575  13.880  1.0716 -0.0790  1.4462
15995TIP3    H269477   4.727   1.526  13.817  0.0954 -1.9225  0.8515
15996TIP3   OH269478   4.218   1.595   2.742 -0.5011 -0.8103  0.3654
15996TIP3    H169479   4.206   1.537   2.817  0.5338 -1.2257  0.2215
15996TIP3    H269480   4.208   1.539   2.665 -1.6234 -0.3739  0.1880
15997TIP3   OH269481   5.476   5.210   3.009 -0.3546 -0.4097 -0.6430
15997TIP3    H169482   5.479   5.299   3.044  0.7556 -0.7314  0.1130
15997TIP3    H269483   5.404   5.211   2.946 -2.1832  0.2569  1.3940
15998TIP3   OH269484   1.256   1.105   4.284  0.2945 -0.6201 -0.3497
15998TIP3    H169485   1.293   1.188   4.253 -1.6989  0.1508 -0.7511
15998TIP3    H269486   1.294   1.093   4.371 -0.5113  1.4925  0.3311
15999TIP3   OH269487   6.755   3.185   6.180  0.2307 -0.2906 -0.0740
15999TIP3    H169488   6.670   3.150   6.207 -0.4092  1.2866  0.0008
15999TIP3    H269489   6.798   3.209   6.262  1.4461 -2.6058  0.0009
16000TIP3   OH269490   1.548   6.097   2.275 -0.4366 -0.3951  0.0889
16000TIP3    H169491   1.492   6.125   2.347 -0.5319 -0.1528 -0.0797
16000TIP3    H269492   1.498   6.029   2.230 -0.3043 -0.6722  0.3535
16001TIP3   OH269493   3.736   3.439   3.724 -0.4892  0.1737  0.4334
16001TIP3    H169494   3.691   3.497   3.785  0.2651  1.0419  0.1844
16001TIP3    H269495   3.828   3.467   3.727 -0.1900 -0.7007 -0.0423
16002TIP3   OH269496   3.018   5.410   5.793  0.1093 -0.3423 -0.2679
16002TIP3    H169497   2.988   5.421   5.702 -1.5379  0.8803  0.3987
16002TIP3    H269498   2.944   5.371   5.838  0.2705  0.7328  0.9530
16003TIP3   OH269499   0.480   6.213  14.252 -0.5008  0.5524 -0.1918
16003TIP3    H169500   0.414   6.163  14.300 -0.3332 -0.2490 -0.7975
16003TIP3    H269501   0.559   6.160  14.259 -0.0535  1.2530  0.0731
16004TIP3   OH269502   0.229   6.339  16.225  0.1485  0.7413 -0.3317
16004TIP3    H169503   0.325   6.341  16.216  0.2556  0.6002  0.7531
16004TIP3    H269504   0.214   6.334  16.319 -0.9235 -0.2902 -0.5551
16005TIP3   OH269505   2.224   1.816  12.755 -0.7754  0.5264 -0.4227
16005TIP3    H169506   2.236   1.794  12.847 -1.3952 -0.6448 -0.6100
16005TIP3    H269507   2.302   1.868  12.733  0.7281 -1.4116  0.0838
16006TIP3   OH269508   2.541   4.402  11.775  0.7900  0.3827  0.3447
16006TIP3    H169509   2.574   4.490  11.790 -1.0173  1.1905 -0.3209
16006TIP3    H269510   2.515   4.371  11.862 -0.4181  1.2790  0.3209
16007TIP3   OH269511   4.525   1.504  15.303  0.1214  0.3681 -0.0543
16007TIP3    H169512   4.430   1.514  15.307 -0.2972 -1.8302 -2.6256
16007TIP3    H269513   4.556   1.578  15.252 -0.6213 -0.6469 -2.0125
16008TIP3   OH269514   2.571   5.247   3.437 -0.1692 -0.6480 -0.2852
16008TIP3    H169515   2.649   5.264   3.489 -0.2520 -1.3139  0.0658
16008TIP3    H269516   2.596   5.272   3.348 -0.5710  2.0223  0.3380
16009TIP3   OH269517   5.284   1.295   2.246  0.3997 -0.0080  0.0868
16009TIP3    H169518   5.375   1.311   2.270  0.0791 -0.1634  1.4347
16009TIP3    H269519   5.263   1.210   2.285 -0.9103  0.9483  1.5491
16010TIP3   OH269520   0.478   0.474   4.753  0.2681  0.5547  0.1208
16010TIP3    H169521   0.430   0.414   4.697 -0.6841  2.4613 -1.1744
16010TIP3    H269522   0.568   0.442   4.752 -0.1065 -0.4902 -1.0134
16011TIP3   OH269523   5.366   5.624   1.483  0.2816 -0.4291 -0.3591
16011TIP3    H169524   5.369   5.615   1.578  0.9910 -1.2171 -0.4521
16011TIP3    H269525   5.444   5.579   1.452  1.2506  1.7786 -1.1789
16012TIP3   OH269526   3.941   1.492  14.838  0.2799 -0.0124 -0.7418
16012TIP3    H169527   4.018   1.515  14.890  1.2187 -0.5425 -1.8720
16012TIP3    H269528   3.878   1.460  14.902  0.5433  1.5647  0.3377
16013TIP3   OH269529   6.206   2.253  11.513 -0.1452 -0.6779 -0.3131
16013TIP3    H169530   6.143   2.324  11.518  0.3028 -0.3776  1.1449
16013TIP3    H269531   6.152   2.174  11.503 -0.7950 -0.5097  1.7508
16014TIP3   OH269532   3.127   3.413  13.912 -0.2317 -0.4747  0.5795
16014TIP3    H169533   3.077   3.406  13.993 -1.2779 -1.0268 -0.1088
16014TIP3    H269534   3.178   3.333  13.908 -0.9129 -0.8950  0.2130
16015TIP3   OH269535   3.753   3.790   3.757 -0.1076 -0.3154  0.8066
16015TIP3    H169536   3.794   3.877   3.751  0.9058 -0.8485 -0.0199
16015TIP3    H269537   3.764   3.765   3.849  0.6986 -0.0988  0.7701
16016TIP3   OH269538   4.926   4.059   6.053  0.1359 -0.2334  0.2420
16016TIP3    H169539   4.858   4.084   6.115 -1.1985 -4.2568  0.5781
16016TIP3    H269540   5.005   4.050   6.106 -0.1858 -0.2162  0.7268
16017TIP3   OH269541   6.339   3.624  15.320 -0.3546 -0.0967 -0.6703
16017TIP3    H169542   6.409   3.675  15.278  1.3095 -1.0662  0.8765
16017TIP3    H269543   6.380   3.539  15.340 -1.9770 -0.6784  0.2451
16018TIP3   OH269544   4.616   6.095   4.992  0.1119  0.4176  0.1210
16018TIP3    H169545   4.667   6.014   4.998  0.2136  0.4422 -0.4392
16018TIP3    H269546   4.610   6.125   5.083  2.0560  1.0235  0.0682
16019TIP3   OH269547   4.895   4.680  12.712 -0.5476 -0.9328  0.3880
16019TIP3    H169548   4.800   4.682  12.725 -0.6434  2.1079 -0.4643
16019TIP3    H269549   4.907   4.701  12.620  0.9525 -1.5339  0.4316
16020TIP3   OH269550   0.934   1.485  12.528  0.5969 -0.2551 -0.2790
16020TIP3    H169551   0.898   1.495  12.440 -2.2048  0.9714  0.9371
16020TIP3    H269552   0.934   1.391  12.544 -2.6887 -0.2910 -0.1391
16021TIP3   OH269553   2.646   2.080  17.004 -0.5882 -0.1588 -0.0025
16021TIP3    H169554   2.694   1.998  17.020  0.0108 -0.3612 -2.5233
16021TIP3    H269555   2.714   2.143  16.979 -1.2542  0.5356 -0.0836
16022TIP3   OH269556   6.065   0.168  13.814  0.7817  0.0726  0.0687
16022TIP3    H169557   6.091   0.225  13.741  2.2644 -0.7010 -0.0315
16022TIP3    H269558   6.003   0.107  13.774  0.0734  0.8941 -0.0903
16023TIP3   OH269559   4.415   1.163   4.388 -0.1312  0.2511 -0.3185
16023TIP3    H169560   4.348   1.134   4.451  1.2555 -0.0632  1.0644
16023TIP3    H269561   4.407   1.102   4.315 -0.3701 -0.7261  0.5052
16024TIP3   OH269562   2.542   2.659  14.931 -0.4054  0.3654 -0.1568
16024TIP3    H169563   2.560   2.590  14.994  1.5267  0.3654 -0.6963
16024TIP3    H269564   2.482   2.718  14.977 -0.2897 -0.4789  1.1011
16025TIP3   OH269565   6.059   4.388  15.242  0.1115  0.2976 -0.0628
16025TIP3    H169566   6.110   4.307  15.243 -0.4572 -0.0808  2.3737
16025TIP3    H269567   6.125   4.457  15.239  0.7456 -0.2143  1.3065
16026TIP3   OH269568   4.247   1.219   5.639 -0.1885  0.1774  0.3442
16026TIP3    H169569   4.339   1.197   5.658  0.1285  0.1351 -1.1560
16026TIP3    H269570   4.237   1.201   5.545 -1.7451  0.1592  0.5008
16027TIP3   OH269571   2.511   4.892  13.889  0.4580 -0.6460  0.0380
16027TIP3    H169572   2.493   4.983  13.864  1.6247 -0.5485 -0.4739
16027TIP3    H269573   2.577   4.898  13.958  1.5707 -1.1528 -0.9650
16028TIP3   OH269574   4.089   0.386  14.757 -0.2679 -0.2314  0.0554
16028TIP3    H169575   4.045   0.468  14.734  0.0525 -0.5006 -1.6014
16028TIP3    H269576   4.181   0.409  14.761 -0.1613 -0.5351 -0.5689
16029TIP3   OH269577   4.347   2.842  16.271  0.4676 -0.2926  0.4113
16029TIP3    H169578   4.415   2.887  16.321  0.8014 -0.5819  0.2189
16029TIP3    H269579   4.390   2.764  16.236  0.3830  0.1907 -0.7904
16030TIP3   OH269580   6.485   0.339  16.579 -0.4778  0.4163  0.0222
16030TIP3    H169581   6.530   0.316  16.660 -2.4637  1.8685  1.6081
16030TIP3    H269582   6.420   0.270  16.567 -2.4765  1.9522  1.5812
16031TIP3   OH269583   4.024   4.705   3.803 -0.1748 -1.2122  0.6304
16031TIP3    H169584   4.027   4.779   3.864  1.3661 -0.2773 -0.5228
16031TIP3    H269585   4.052   4.630   3.854 -0.5036 -0.7481  1.4954
16032TIP3   OH269586   5.479   5.839  11.221 -0.3263 -0.0922 -0.5560
16032TIP3    H169587   5.458   5.775  11.154 -1.7234 -0.9888  0.7065
16032TIP3    H269588   5.464   5.924  11.179  2.6545 -0.4826 -2.6174
16033TIP3   OH269589   4.799   6.679  13.357  0.0154  0.2888  0.1094
16033TIP3    H169590   4.868   6.639  13.304  1.1382  2.4388 -0.0973
16033TIP3    H269591   4.826   6.663  13.448  0.0151 -0.1268  0.0390
16034TIP3   OH269592   0.720   1.089  12.634 -0.3907  0.2950  0.4317
16034TIP3    H169593   0.795   1.132  12.674  0.9900 -0.9733 -0.7352
16034TIP3    H269594   0.726   1.111  12.541 -1.3078 -0.0462  0.2868
16035TIP3   OH269595   4.160   3.552  11.828 -0.5227  0.0418  0.6663
16035TIP3    H169596   4.129   3.576  11.740  1.3915  1.7306  0.4036
16035TIP3    H269597   4.174   3.457  11.823 -1.9177 -0.1210 -0.3649
16036TIP3   OH269598   4.498   2.201   5.926 -0.1244 -0.0288 -0.1191
16036TIP3    H169599   4.574   2.256   5.905 -0.2955  0.2544  0.0006
16036TIP3    H269600   4.500   2.193   6.021  0.2971 -0.8077 -0.1913
16037TIP3   OH269601   1.177   3.000   1.508  0.1844 -0.3167  0.2654
16037TIP3    H169602   1.245   2.933   1.509  0.2044 -0.3054 -0.3358
16037TIP3    H269603   1.214   3.073   1.557  0.1043 -0.7977  1.0664
16038TIP3   OH269604   3.227   3.527  14.680  0.6588 -0.1205  0.7702
16038TIP3    H169605   3.179   3.463  14.733 -0.0196 -0.4229 -0.1835
16038TIP3    H269606   3.188   3.612  14.704 -2.8138 -0.6702 -2.4693
16039TIP3   OH269607   3.762   1.771   0.017  0.0344 -0.0021 -0.3158
16039TIP3    H169608   3.806   1.689   0.039 -0.5090 -0.2311 -0.0811
16039TIP3    H269609   3.755   1.770  -0.078 -0.1042 -0.2904 -0.3009
16040TIP3   OH269610   3.347   5.455   5.826  0.7140  0.2346 -0.1439
16040TIP3    H169611   3.341   5.368   5.785 -2.2832  0.6335 -0.6101
16040TIP3    H269612   3.364   5.436   5.918  2.1124 -0.7892 -0.5875
16041TIP3   OH269613   3.078   0.905   5.479 -0.3859  0.3723 -0.0950
16041TIP3    H169614   3.061   0.915   5.572 -0.3321  1.9267 -0.2392
16041TIP3    H269615   3.170   0.931   5.468 -0.4627  0.4328 -0.6049
16042TIP3   OH269616   5.121   2.214  11.016  0.1381  0.2165 -0.5028
16042TIP3    H169617   5.168   2.286  11.057  1.3633 -0.7094 -0.2261
16042TIP3    H269618   5.100   2.245  10.928  1.4922  0.5722 -0.7119
16043TIP3   OH269619   6.441   2.182   2.476 -0.5543  0.0341  0.2031
16043TIP3    H169620   6.485   2.259   2.439 -0.7379 -0.2199 -0.5521
16043TIP3    H269621   6.366   2.218   2.523 -0.0869  0.3954  0.6740
16044TIP3   OH269622   5.959   3.463   0.346  0.2788 -0.3335  0.3819
16044TIP3    H169623   5.932   3.381   0.305 -0.3182 -0.8982  1.8434
16044TIP3    H269624   6.054   3.466   0.334  0.4615 -1.8191  1.3226
16045TIP3   OH269625   0.486   4.418  16.530 -0.2092 -0.2999 -0.6505
16045TIP3    H169626   0.456   4.509  16.523  2.2493  0.7830  1.6855
16045TIP3    H269627   0.437   4.383  16.604  0.3406 -0.2258 -0.2533
16046TIP3   OH269628   4.857   2.173   3.376  0.0311  0.0238  0.3579
16046TIP3    H169629   4.774   2.212   3.404  1.3847  2.0542  1.6828
16046TIP3    H269630   4.920   2.245   3.380  1.9674 -1.5976 -0.1195
16047TIP3   OH269631   4.562   0.662   5.287 -0.1583  0.2598  0.1935
16047TIP3    H169632   4.651   0.656   5.253  0.2143  2.2195  0.7636
16047TIP3    H269633   4.528   0.745   5.251 -1.4245 -0.0248  0.7030
16048TIP3   OH269634   2.692   3.776  11.564  0.2006  0.2584 -0.4671
16048TIP3    H169635   2.606   3.815  11.554  0.6346  1.0534 -1.1631
16048TIP3    H269636   2.740   3.802  11.485  1.4745  0.9140  0.4977
16049TIP3   OH269637   4.532   4.642   4.552 -0.1893 -0.4875  0.5272
16049TIP3    H169638   4.545   4.642   4.457 -1.0312 -0.0336  0.4028
16049TIP3    H269639   4.450   4.594   4.565 -0.9022  0.8191  0.8979
16050TIP3   OH269640   2.418   3.366   1.637  0.9222  0.0478  0.4872
16050TIP3    H169641   2.463   3.441   1.598  3.4842 -2.3545 -1.4057
16050TIP3    H269642   2.486   3.299   1.646 -2.3164 -4.2156 -3.6469
16051TIP3   OH269643   0.014   1.459   1.198 -0.6408 -0.3943  0.4169
16051TIP3    H169644   0.097   1.433   1.157 -0.7132  0.5844 -0.3508
16051TIP3    H269645  -0.051   1.450   1.129 -0.4438  3.2078 -0.3116
16052TIP3   OH269646   0.825   4.486  13.748  0.7002 -0.3682 -0.5843
16052TIP3    H169647   0.834   4.416  13.684  1.6204 -2.0798  1.3701
16052TIP3    H269648   0.751   4.460  13.803  1.2885 -0.0474  0.3900
16053TIP3   OH269649   0.920   3.781   1.166 -0.0755  0.3376  0.1357
16053TIP3    H169650   0.906   3.869   1.200  0.0300  0.5177 -0.2881
16053TIP3    H269651   0.832   3.748   1.148 -0.2124 -0.2164  1.7258
16054TIP3   OH269652   3.540   0.259   1.674 -0.1187  0.0004  0.0431
16054TIP3    H169653   3.456   0.213   1.675 -0.2939  0.2762 -1.5018
16054TIP3    H269654   3.596   0.206   1.618  0.8101 -0.2622  1.1933
16055TIP3   OH269655   2.827   5.243  12.054 -0.0803  0.0872 -0.1087
16055TIP3    H169656   2.782   5.193  11.986 -1.4984  0.0098  0.8711
16055TIP3    H269657   2.844   5.328  12.013  0.4476 -0.4685 -1.0668
16056TIP3   OH269658   6.351   2.901   2.650  0.5685 -0.1963  0.2800
16056TIP3    H169659   6.360   2.868   2.561  2.2954 -0.0819  0.4056
16056TIP3    H269660   6.428   2.956   2.664  0.5128 -0.5188  1.9813
16057TIP3   OH269661   2.001   0.196  16.797 -0.1422  0.2645 -0.5041
16057TIP3    H169662   2.081   0.184  16.849 -1.0360  0.2855  0.9155
16057TIP3    H269663   1.946   0.253  16.851 -1.2574 -0.0377 -1.3083
16058TIP3   OH269664   0.527   2.349  15.761 -0.0849  0.4864 -0.0482
16058TIP3    H169665   0.453   2.290  15.772  0.2612  0.1324  0.3919
16058TIP3    H269666   0.564   2.327  15.675 -0.3000  0.4526 -0.1325
16059TIP3   OH269667   4.227   4.497   4.906  0.1731  0.6007  0.2333
16059TIP3    H169668   4.194   4.558   4.972 -0.1826 -1.2835  1.8414
16059TIP3    H269669   4.295   4.447   4.950 -2.2140 -2.8612  0.2248
16060TIP3   OH269670   1.733   3.070   2.364 -0.1644  0.0303  0.6070
16060TIP3    H169671   1.747   2.978   2.341 -1.3183  0.7903 -3.7569
16060TIP3    H269672   1.820   3.109   2.358 -0.4923  0.3885 -4.1444
16061TIP3   OH269673   2.868   1.878  15.880 -0.0578 -0.3019 -0.2200
16061TIP3    H169674   2.960   1.852  15.867 -0.6124 -2.6017  0.2634
16061TIP3    H269675   2.825   1.853  15.799 -0.3158  0.6634 -0.3928
16062TIP3   OH269676   1.372   4.777   1.594  0.1473  0.0883 -0.4488
16062TIP3    H169677   1.298   4.717   1.585  0.4948 -0.1590 -1.7887
16062TIP3    H269678   1.398   4.796   1.504  2.6277 -0.9599  0.0097
16063TIP3   OH269679   1.060   4.855  16.327 -0.3299 -0.0660  0.6435
16063TIP3    H169680   0.990   4.921  16.321 -0.6054 -0.4744 -0.7215
16063TIP3    H269681   1.098   4.853  16.240  1.6802  0.4394  1.4795
16064TIP3   OH269682   3.746   2.495  16.552 -0.0105 -0.1202  0.0123
16064TIP3    H169683   3.661   2.458  16.527 -0.7575  0.7370  1.2069
16064TIP3    H269684   3.726   2.553  16.626  1.6041  0.1750  0.2381
16065TIP3   OH269685   1.176   3.775   3.112  0.0019  0.2016  0.6985
16065TIP3    H169686   1.202   3.727   3.191  0.7263  1.0375  0.9764
16065TIP3    H269687   1.124   3.712   3.062 -0.2953 -0.4028  1.7434
16066TIP3   OH269688   0.168   2.777   4.619 -0.3023 -0.1169 -0.6816
16066TIP3    H169689   0.084   2.783   4.665  0.0640  2.6317 -0.2992
16066TIP3    H269690   0.150   2.814   4.532  0.8998  2.3134  0.0372
16067TIP3   OH269691   6.226   4.865  11.598  0.1561 -0.5400  0.7008
16067TIP3    H169692   6.294   4.888  11.535 -0.0554 -1.8470 -0.0359
16067TIP3    H269693   6.198   4.948  11.635 -0.8006  0.4315 -2.0606
16068TIP3   OH269694   2.225   4.248   3.283  0.1213  0.2219  0.4157
16068TIP3    H169695   2.167   4.190   3.331 -1.0517  1.1487  0.1371
16068TIP3    H269696   2.168   4.318   3.250  1.1641  0.4806 -0.9171
16069TIP3   OH269697   6.725   2.703  11.487 -0.0968  0.7251  0.6160
16069TIP3    H169698   6.651   2.745  11.443  0.7532  0.1667 -1.3822
16069TIP3    H269699   6.684   2.640  11.546 -1.2266 -0.3159 -1.2236
16070TIP3   OH269700   4.215   1.296  12.193 -0.2599  0.2010 -0.3666
16070TIP3    H169701   4.190   1.204  12.184 -0.3688  0.3019 -1.1573
16070TIP3    H269702   4.308   1.294  12.213  0.1277 -0.0407 -2.1118
16071TIP3   OH269703   6.151   3.371   1.997 -0.0044 -0.2149 -0.4576
16071TIP3    H169704   6.140   3.458   2.034  1.2360  0.0586 -0.7442
16071TIP3    H269705   6.077   3.321   2.033  0.8973  0.1540  2.0514
16072TIP3   OH269706   3.292   0.678   6.454 -0.3267 -0.7587 -0.0602
16072TIP3    H169707   3.365   0.641   6.405  0.3125 -0.6976  0.8313
16072TIP3    H269708   3.245   0.602   6.487 -0.8887 -0.8030 -0.9465
16073TIP3   OH269709   3.801   2.610  11.944 -0.6229  0.0400 -0.3798
16073TIP3    H169710   3.811   2.515  11.941 -0.4800 -0.0325  1.5976
16073TIP3    H269711   3.780   2.629  12.036  1.9230  2.1458 -0.1845
16074TIP3   OH269712   1.248   0.743  14.480 -0.2019 -0.4013 -0.5276
16074TIP3    H169713   1.300   0.772  14.555 -0.1933  1.2448 -1.1531
16074TIP3    H269714   1.305   0.680  14.435  0.3916 -0.2497 -0.0023
16075TIP3   OH269715   6.535   3.494  15.830  0.7324 -0.4316  0.0548
16075TIP3    H169716   6.613   3.523  15.783  0.6388  1.6466  1.1305
16075TIP3    H269717   6.561   3.491  15.922  0.1613 -1.9077  0.1832
16076TIP3   OH269718   2.500   4.873   1.050  0.2322  0.2929  0.1650
16076TIP3    H169719   2.488   4.815   1.125 -1.8085  1.3152  0.6584
16076TIP3    H269720   2.446   4.950   1.070 -1.0817  0.2019 -2.7473
16077TIP3   OH269721   5.176   1.965   0.154  0.0909  0.0830 -0.2820
16077TIP3    H169722   5.210   1.877   0.172  0.7589  0.6084  1.1040
16077TIP3    H269723   5.111   1.980   0.223  2.0283  1.7704  1.2737
16078TIP3   OH269724   4.968   6.186  12.215 -0.2499 -0.2376  0.6767
16078TIP3    H169725   5.034   6.151  12.156  0.9994 -1.7271  2.9174
16078TIP3    H269726   4.910   6.112  12.233  1.3020 -0.7612  3.9063
16079TIP3   OH269727   1.266   6.061  12.387  0.0882 -0.0808 -0.2950
16079TIP3    H169728   1.306   6.039  12.303  0.2555 -1.5561  0.1534
16079TIP3    H269729   1.172   6.050  12.373 -0.0282  1.3701 -0.7631
16080TIP3   OH269730   2.425   5.658   5.334 -0.6256  0.0963 -0.3922
16080TIP3    H169731   2.510   5.699   5.352 -0.6141 -0.0399 -0.1294
16080TIP3    H269732   2.447   5.577   5.287 -0.6107  0.0878 -0.3711
16081TIP3   OH269733   0.071   3.891   4.759 -0.3454  0.0142 -0.2769
16081TIP3    H169734   0.035   3.857   4.842 -0.1816  0.1178 -0.1630
16081TIP3    H269735   0.046   3.983   4.759 -1.3685 -0.2510 -0.8969
16082TIP3   OH269736   6.536   1.525   3.432 -0.5786  0.5030 -0.5320
16082TIP3    H169737   6.514   1.575   3.511 -0.4854 -0.0796 -0.1291
16082TIP3    H269738   6.631   1.512   3.438 -1.1154 -3.3305  1.5766
16083TIP3   OH269739   2.538   0.649   2.267  0.1129 -0.4050 -0.3891
16083TIP3    H169740   2.475   0.611   2.206 -0.5337 -0.5832  0.3748
16083TIP3    H269741   2.489   0.716   2.314  1.2081  1.2838 -1.6076
16084TIP3   OH269742   3.253   2.338  16.912  0.3045 -0.0796 -0.7219
16084TIP3    H169743   3.210   2.415  16.874  0.5094  0.3692 -0.0737
16084TIP3    H269744   3.184   2.272  16.919  0.0144  0.2086 -0.8573
16085TIP3   OH269745   1.424   0.491  16.678  0.2420 -0.0690 -0.0591
16085TIP3    H169746   1.472   0.496  16.760  0.4781  0.3462 -0.2235
16085TIP3    H269747   1.401   0.582  16.657 -1.1661 -0.3185  0.3382
16086TIP3   OH269748   6.641   5.294  15.217 -0.4312  0.3451 -0.7396
16086TIP3    H169749   6.603   5.332  15.138 -0.1948  1.4059 -0.3491
16086TIP3    H269750   6.570   5.243  15.257 -1.6665  2.8540  0.3521
16087TIP3   OH269751   5.325   6.247   5.370  0.1952 -0.0429  0.5340
16087TIP3    H169752   5.379   6.322   5.394  1.9918 -1.4111  0.7937
16087TIP3    H269753   5.246   6.257   5.423  1.8206 -0.0962  3.0406
16088TIP3   OH269754   1.373   1.615  12.157  0.0688 -0.1180 -0.0127
16088TIP3    H169755   1.304   1.646  12.099  1.2103  0.9763 -0.7955
16088TIP3    H269756   1.335   1.538  12.200 -1.9919  1.0381  0.3032
16089TIP3   OH269757   2.217   4.515   5.055  0.3215 -0.2742 -0.4377
16089TIP3    H169758   2.146   4.492   4.995 -1.0257  1.0073  0.6283
16089TIP3    H269759   2.242   4.604   5.031 -0.0524  0.1516  0.7369
16090TIP3   OH269760   4.359   3.508  15.623 -0.0964 -0.1962 -0.0314
16090TIP3    H169761   4.333   3.441  15.559  0.9892 -0.0845 -0.5928
16090TIP3    H269762   4.360   3.461  15.707 -1.0030 -0.4699 -0.1690
16091TIP3   OH269763   5.208   4.056   1.057  0.3883  0.2255  0.0641
16091TIP3    H169764   5.252   4.141   1.066 -0.2115  0.5926 -0.4418
16091TIP3    H269765   5.116   4.078   1.044  0.2814 -0.4975 -0.4104
16092TIP3   OH269766   0.634   1.034  14.017 -0.2822 -0.1939  0.1215
16092TIP3    H169767   0.683   1.104  13.974 -2.0670  1.0703  0.0907
16092TIP3    H269768   0.548   1.072  14.035 -0.9180 -2.0271  1.1133
16093TIP3   OH269769   1.624   0.429  16.884  0.3993  0.6160 -0.0536
16093TIP3    H169770   1.711   0.427  16.925 -0.0890 -1.6771  0.9306
16093TIP3    H269771   1.578   0.355  16.923 -1.3961  0.7321 -1.9155
16094TIP3   OH269772   6.817   3.028   1.435 -0.2760 -0.2061 -0.2270
16094TIP3    H169773   6.884   2.977   1.480 -0.7775 -0.4102  0.2806
16094TIP3    H269774   6.839   3.119   1.456 -1.0675 -0.3391  1.2170
16095TIP3   OH269775   0.641   5.750   2.287 -0.4919  0.8036 -0.0293
16095TIP3    H169776   0.567   5.790   2.241 -0.3134  1.6448  0.3974
16095TIP3    H269777   0.677   5.822   2.340  1.9473  0.9495 -1.8376
16096TIP3   OH269778   3.862   4.126   1.022  0.2847 -0.2199 -0.4841
16096TIP3    H169779   3.809   4.086   1.090 -0.7811  0.8830 -0.6411
16096TIP3    H269780   3.951   4.098   1.041 -0.0083  0.0340  1.3311
16097TIP3   OH269781   3.301   2.684  12.709 -0.2727 -0.5654 -0.1622
16097TIP3    H169782   3.268   2.718  12.626  0.4909 -1.2882 -0.7585
16097TIP3    H269783   3.222   2.675  12.763 -0.8493 -0.7269 -1.0246
16098TIP3   OH269784   1.131   4.443   3.416 -0.0935 -0.3061  0.0542
16098TIP3    H169785   1.076   4.522   3.420  3.1688  2.1165 -0.4373
16098TIP3    H269786   1.083   4.383   3.360 -2.0205  1.8938 -0.7513
16099TIP3   OH269787   6.259   4.242  13.840 -0.4155 -0.0093  0.4373
16099TIP3    H169788   6.187   4.268  13.897 -1.8180  1.8113 -2.0308
16099TIP3    H269789   6.315   4.319  13.837  0.1224 -0.4161  0.0901
16100TIP3   OH269790   1.681   5.590   4.606  0.0016  0.1818  0.1913
16100TIP3    H169791   1.634   5.656   4.553  2.2891  0.3711 -1.6786
16100TIP3    H269792   1.626   5.512   4.600 -1.7390  1.3132  0.7892
16101TIP3   OH269793   4.569   4.927  13.826  0.1746  0.3174  0.0702
16101TIP3    H169794   4.549   5.011  13.785 -1.0483  0.2716  0.5444
16101TIP3    H269795   4.517   4.927  13.906  1.4387 -0.2015  0.8953
16102TIP3   OH269796   0.331   2.812  14.582 -0.4699  0.5482 -0.0608
16102TIP3    H169797   0.251   2.856  14.553 -0.6645 -0.5298 -1.2153
16102TIP3    H269798   0.352   2.853  14.665 -1.3924  1.8901 -0.4677
16103TIP3   OH269799   0.030   6.461  12.734 -0.3855  0.6826  0.2952
16103TIP3    H169800   0.026   6.391  12.668 -1.2399  0.8120  0.2041
16103TIP3    H269801   0.104   6.437  12.790 -1.2330 -0.7931  0.8148
16104TIP3   OH269802   2.081   3.659  16.593  0.5021  0.6144 -0.3082
16104TIP3    H169803   2.140   3.590  16.624 -0.6975  0.1824  1.0826
16104TIP3    H269804   2.069   3.716  16.669 -0.7945  0.7418 -0.5941
16105TIP3   OH269805   6.138   6.027  16.574 -0.0896  0.0819 -0.3889
16105TIP3    H169806   6.181   6.026  16.489 -1.0352  1.8406 -0.9015
16105TIP3    H269807   6.045   6.039  16.555 -0.2974  0.5785  0.8705
16106TIP3   OH269808   2.554   4.059  16.733  0.5962  0.2687 -0.1624
16106TIP3    H169809   2.616   4.015  16.791  0.3993 -1.2276 -1.0663
16106TIP3    H269810   2.589   4.045  16.645 -0.8736 -0.3720 -0.6590
16107TIP3   OH269811   4.020   0.044  15.502 -0.0690 -0.0542  0.0110
16107TIP3    H169812   4.047  -0.018  15.434 -0.7926  1.7404 -1.9539
16107TIP3    H269813   3.971  -0.009  15.565 -0.4704 -1.5113 -1.5193
16108TIP3   OH269814   0.498   0.132   5.776  0.2715  0.6169 -0.3693
16108TIP3    H169815   0.575   0.151   5.830 -0.1095  0.3523  0.2827
16108TIP3    H269816   0.436   0.201   5.799  0.1591  0.5861 -0.5799
16109TIP3   OH269817   4.266   2.542   5.228  0.0718  0.3109 -0.0190
16109TIP3    H169818   4.225   2.567   5.310 -1.1010 -2.1020  0.1714
16109TIP3    H269819   4.357   2.522   5.251  0.8106  3.3956 -0.0341
16110TIP3   OH269820   5.120   4.923   0.945  0.0609  0.2559  0.2393
16110TIP3    H169821   5.177   4.909   1.021 -0.0798  1.1567  0.5170
16110TIP3    H269822   5.172   4.977   0.885  0.2586 -0.6487 -0.4183
16111TIP3   OH269823   3.679   2.475   5.330 -0.1606  0.9709 -0.1326
16111TIP3    H169824   3.743   2.510   5.268 -1.1224  1.6771 -0.7524
16111TIP3    H269825   3.597   2.517   5.304 -0.7913  0.3675  0.8909
16112TIP3   OH269826   5.775   4.664  11.548  0.2962  0.0935  0.5388
16112TIP3    H169827   5.731   4.736  11.594  3.4205  0.4859  3.0790
16112TIP3    H269828   5.862   4.698  11.529  1.4868 -2.6751  0.8633
16113TIP3   OH269829   2.261   1.285   0.799  0.1188 -0.0037  0.3594
16113TIP3    H169830   2.317   1.345   0.848  0.7289 -0.3641  0.1067
16113TIP3    H269831   2.322   1.221   0.760 -0.3999  0.0145 -0.4922
16114TIP3   OH269832   2.026   0.154  12.593 -0.1088  0.4127 -0.4066
16114TIP3    H169833   1.971   0.229  12.615 -1.4294 -0.8584  0.6904
16114TIP3    H269834   2.018   0.095  12.668  3.1519  0.4172  0.0179
16115TIP3   OH269835   6.648   6.181  14.688 -0.1172 -0.1874  0.2370
16115TIP3    H169836   6.622   6.145  14.773 -1.7401 -0.2093 -0.2488
16115TIP3    H269837   6.575   6.159  14.630  0.9147 -0.0423 -1.1313
16116TIP3   OH269838   2.462   6.678  16.842  0.1819  0.3764 -0.0496
16116TIP3    H169839   2.542   6.718  16.874  0.5697  0.2018 -0.7992
16116TIP3    H269840   2.466   6.687  16.747  0.2012 -1.2958 -0.2279
16117TIP3   OH269841   4.295   1.536   2.047 -0.1945  0.1763  0.1577
16117TIP3    H169842   4.217   1.583   2.076  0.9765  2.0482  0.3624
16117TIP3    H269843   4.305   1.562   1.955  0.2386  0.0097  0.1593
16118TIP3   OH269844   3.216   1.952  17.182 -0.2374  0.0744  0.1057
16118TIP3    H169845   3.182   1.866  17.206  0.4884  0.0733  1.1669
16118TIP3    H269846   3.309   1.937  17.163 -0.1532  0.5841  0.0884
16119TIP3   OH269847   6.763   5.581  12.264  0.0663  0.5013  0.6695
16119TIP3    H169848   6.718   5.555  12.183  1.0110 -0.5792  0.4850
16119TIP3    H269849   6.853   5.552  12.252  0.1238 -0.0542  2.2804
16120TIP3   OH269850   0.883   5.049   3.605 -0.8785 -0.1060 -0.1115
16120TIP3    H169851   0.842   5.088   3.683 -0.1676 -1.7368  1.1075
16120TIP3    H269852   0.873   5.116   3.537  0.4102  2.2670  1.9216
16121TIP3   OH269853   3.053   2.535   4.455  0.5331  0.1031  0.1745
16121TIP3    H169854   3.050   2.619   4.409  1.2328 -0.9870 -1.8843
16121TIP3    H269855   3.042   2.559   4.547  0.0503  2.3956 -0.4336
16122TIP3   OH269856   1.103   2.115   3.904 -0.0078 -0.0916 -0.2198
16122TIP3    H169857   1.070   2.038   3.858  0.0321 -0.1396 -0.1680
16122TIP3    H269858   1.174   2.082   3.959  1.8331  0.4439 -2.2430
16123TIP3   OH269859   2.044   5.578  10.945  0.7137 -0.3407 -0.3461
16123TIP3    H169860   2.108   5.631  10.992  0.5920 -0.2609 -0.2687
16123TIP3    H269861   1.984   5.547  11.013  1.0303 -0.9270 -0.3311
16124TIP3   OH269862   4.125   2.552  13.070 -0.0994  0.4767 -0.6774
16124TIP3    H169863   4.121   2.507  12.985 -0.3461  0.0693 -0.4498
16124TIP3    H269864   4.071   2.499  13.128  1.6705 -0.3504  0.2443
16125TIP3   OH269865   1.141   0.076  17.204 -0.2647 -0.4662 -0.8741
16125TIP3    H169866   1.170   0.167  17.216  2.6148 -1.3023 -1.1697
16125TIP3    H269867   1.061   0.083  17.152  0.5849  1.8523 -1.9379
16126TIP3   OH269868   0.010   1.159   0.917  0.0992  0.5162  0.3026
16126TIP3    H169869  -0.001   1.064   0.924 -0.8422  0.7298  2.2165
16126TIP3    H269870   0.104   1.174   0.926  0.1070 -0.1527  1.3966
16127TIP3   OH269871   0.383   0.432  17.238  0.6811 -0.5625  0.2871
16127TIP3    H169872   0.380   0.459  17.330 -1.2265  0.4229 -0.0497
16127TIP3    H269873   0.448   0.362  17.236  0.4506 -0.8729  2.4619
16128TIP3   OH269874   2.248   4.475  13.485  0.4432 -0.4955 -0.1848
16128TIP3    H169875   2.188   4.547  13.463  0.5892 -0.0733  0.7686
16128TIP3    H269876   2.283   4.447  13.401  0.8042  0.9324 -0.5403
16129TIP3   OH269877   0.940   5.541   0.551 -0.7783 -0.5554 -0.2249
16129TIP3    H169878   1.011   5.519   0.491  2.8628  1.4260  3.1709
16129TIP3    H269879   0.950   5.480   0.624 -3.2580 -0.9251 -0.1325
16130TIP3   OH269880   5.329   5.914  12.392  0.1969 -0.4304  0.1091
16130TIP3    H169881   5.378   5.970  12.332 -1.0824 -0.3518 -0.8717
16130TIP3    H269882   5.241   5.950  12.392 -0.9653 -3.1606 -1.4901
16131TIP3   OH269883   6.575   6.345  12.698 -0.1543  0.2707  0.0348
16131TIP3    H169884   6.596   6.252  12.695  0.3641  0.3223  1.5522
16131TIP3    H269885   6.631   6.380  12.768  0.4372  1.9205 -1.2316
16132TIP3   OH269886   3.170   2.123  12.529  0.0358 -0.2711 -0.8035
16132TIP3    H169887   3.238   2.173  12.574 -0.5388  1.4192 -1.7327
16132TIP3    H269888   3.172   2.037  12.569 -0.2568  1.0777  2.2141
16133TIP3   OH269889   1.722   0.182   5.460 -0.3833  0.1339  0.5176
16133TIP3    H169890   1.641   0.199   5.508 -0.6532  0.0783  0.0911
16133TIP3    H269891   1.762   0.268   5.448 -0.7921  0.2570  0.0160
16134TIP3   OH269892   3.039   4.655  13.770 -0.1811  0.2511  0.0236
16134TIP3    H169893   3.095   4.710  13.716 -2.1516  1.7130 -0.5947
16134TIP3    H269894   2.963   4.710  13.788 -0.6093 -1.0658  2.3177
16135TIP3   OH269895   4.486   1.558   5.892  0.3982 -0.8025 -0.3317
16135TIP3    H169896   4.437   1.535   5.971 -1.0407 -1.2030 -1.3129
16135TIP3    H269897   4.530   1.477   5.867 -1.6481 -1.5275 -1.6716
16136TIP3   OH269898   4.685   6.316   3.212  0.5905 -0.0320  0.2665
16136TIP3    H169899   4.669   6.387   3.274  1.7404  0.4319  0.0586
16136TIP3    H269900   4.730   6.359   3.138 -2.5377 -0.1991 -1.8283
16137TIP3   OH269901   1.282   1.904  16.889 -0.4120  0.5887  0.2784
16137TIP3    H169902   1.353   1.965  16.912 -0.7700  0.2760  2.3160
16137TIP3    H269903   1.324   1.818  16.889 -0.4704  0.5587 -0.0487
16138TIP3   OH269904   0.355   0.581   6.100 -0.0127  0.0577 -0.2383
16138TIP3    H169905   0.405   0.643   6.047 -1.0922 -0.2645 -1.6363
16138TIP3    H269906   0.415   0.557   6.171 -0.6940  5.3100  2.3728
16139TIP3   OH269907   4.165   2.961  16.099 -0.1874 -1.0337  0.2614
16139TIP3    H169908   4.119   2.877  16.107 -1.5469 -0.1016  3.1854
16139TIP3    H269909   4.249   2.946  16.143 -0.0188 -1.1630 -0.1085
16140TIP3   OH269910   1.277   0.928  13.648 -0.3828 -0.0503  0.5108
16140TIP3    H169911   1.275   0.997  13.581 -1.2667  2.2137  2.7715
16140TIP3    H269912   1.263   0.975  13.730 -0.6032 -2.9255  2.1648
16141TIP3   OH269913   3.853   2.139  11.563  0.0959 -0.3119 -0.5832
16141TIP3    H169914   3.948   2.129  11.556  0.0924 -1.2942  0.7078
16141TIP3    H269915   3.831   2.206  11.497  1.9489  1.4725  0.5504
16142TIP3   OH269916   3.532   5.174  11.620  0.7961 -0.2629 -0.1519
16142TIP3    H169917   3.510   5.118  11.695 -0.8828  0.8100  0.1942
16142TIP3    H269918   3.502   5.262  11.646  2.3630  0.5940 -1.1309
16143TIP3   OH269919   6.625   6.794  16.898  0.0888 -0.8678  0.4132
16143TIP3    H169920   6.665   6.827  16.818  1.5520 -2.1173  0.6154
16143TIP3    H269921   6.696   6.749  16.944 -1.2432 -2.0367  1.3785
16144TIP3   OH269922   0.952   3.735  11.871 -0.1712  0.3186  0.3619
16144TIP3    H169923   0.981   3.648  11.846  0.2298 -0.0847  2.1479
16144TIP3    H269924   0.866   3.721  11.911 -0.7127  0.9090 -0.6002
16145TIP3   OH269925   0.783   0.420  14.685 -0.9766 -0.0535 -0.6481
16145TIP3    H169926   0.800   0.500  14.734 -1.2749 -1.2501  1.4772
16145TIP3    H269927   0.733   0.449  14.609  2.0570  2.2358 -1.8784
16146TIP3   OH269928   6.079   0.260   2.037  0.4642  0.2163 -0.3798
16146TIP3    H169929   5.988   0.234   2.052  0.5623  1.1060  2.1260
16146TIP3    H269930   6.092   0.252   1.943 -2.5001  1.0048 -0.9106
16147TIP3   OH269931   0.778   4.992  13.005 -0.1264  0.1748 -0.4780
16147TIP3    H169932   0.718   4.917  13.008 -1.0413  0.8885 -0.6937
16147TIP3    H269933   0.722   5.066  12.985  1.0916  0.5953 -2.4304
16148TIP3   OH269934   3.786   0.068  14.530  0.4576 -0.0716  0.2295
16148TIP3    H169935   3.720   0.042  14.594  0.8809  2.8665  1.9877
16148TIP3    H269936   3.869   0.042  14.569  0.5425 -0.9790 -0.5429
16149TIP3   OH269937   5.662   1.770  13.942  0.2677  0.4312  0.7532
16149TIP3    H169938   5.682   1.772  13.849 -0.8134 -0.4935  0.4800
16149TIP3    H269939   5.747   1.778  13.986  1.0104 -1.2243 -0.3345
16150TIP3   OH269940   3.178   3.204   2.477 -0.2703  0.1843 -0.5308
16150TIP3    H169941   3.090   3.209   2.438  0.1235 -0.9676 -1.6139
16150TIP3    H269942   3.162   3.182   2.568 -1.0932 -0.4985 -0.8272
16151TIP3   OH269943   1.635   2.687   5.361 -0.5325 -0.8401  0.2616
16151TIP3    H169944   1.627   2.607   5.308  0.5090  0.0338 -1.2503
16151TIP3    H269945   1.545   2.713   5.379 -0.9150 -1.0740 -1.2211
16152TIP3   OH269946   2.843   5.603   2.321  0.0330 -0.6568  0.2593
16152TIP3    H169947   2.755   5.579   2.348  0.0586  0.4811  1.4033
16152TIP3    H269948   2.899   5.576   2.394  0.7294 -2.0103 -0.7575
16153TIP3   OH269949   0.969   1.057  14.934 -0.0572 -0.3441  0.6987
16153TIP3    H169950   0.910   1.121  14.974  0.1862 -0.8389  1.8686
16153TIP3    H269951   1.050   1.064  14.985  0.3049 -0.8682  0.1913
16154TIP3   OH269952   6.657   1.667   2.253  0.2180 -0.1406 -0.1714
16154TIP3    H169953   6.610   1.685   2.172  1.0768 -0.3554 -0.7176
16154TIP3    H269954   6.625   1.581   2.281  1.4304 -0.9914 -1.3652
16155TIP3   OH269955   6.794   4.093  11.141  0.2742  0.0908  0.1152
16155TIP3    H169956   6.871   4.061  11.095  0.1341 -0.3971  0.2248
16155TIP3    H269957   6.728   4.104  11.073  0.5531  0.8865 -0.0445
16156TIP3   OH269958   5.884   2.734   4.984 -0.2555  0.4477 -0.0694
16156TIP3    H169959   5.905   2.758   4.894 -0.4857  0.0384 -0.2340
16156TIP3    H269960   5.947   2.665   5.005 -0.0831  0.6697  0.1453
16157TIP3   OH269961   2.865   6.045   4.303  0.2854  0.1291 -0.2222
16157TIP3    H169962   2.785   5.993   4.309  1.0705 -1.1683 -0.8256
16157TIP3    H269963   2.912   6.027   4.385  1.1992 -1.2081 -1.0232
16158TIP3   OH269964   6.405   5.690   5.213 -0.2140 -0.0007 -0.2044
16158TIP3    H169965   6.470   5.760   5.201  1.0582 -0.9384  0.9993
16158TIP3    H269966   6.330   5.734   5.254 -0.1522  0.9994 -1.1359
16159TIP3   OH269967   3.805   5.889  15.191 -0.3067 -0.1947  0.0736
16159TIP3    H169968   3.746   5.938  15.249  1.8038  0.2411  1.8861
16159TIP3    H269969   3.770   5.800  15.191 -1.7867  0.3723 -0.0028
16160TIP3   OH269970   0.330   4.474  14.681  0.1135 -0.0577  0.1781
16160TIP3    H169971   0.293   4.557  14.652  0.7921 -0.0050 -0.5454
16160TIP3    H269972   0.383   4.497  14.757 -0.7072 -0.0204  0.7452
16161TIP3   OH269973   3.825   1.739   2.093 -0.5158  0.3293  0.3145
16161TIP3    H169974   3.734   1.731   2.121 -0.2976  0.2007  1.0078
16161TIP3    H269975   3.855   1.821   2.133  0.1688 -0.4893  1.5305
16162TIP3   OH269976   4.022   1.628   5.605 -0.3487  0.6645  0.1312
16162TIP3    H169977   3.967   1.653   5.680 -2.6364  0.9983 -1.6102
16162TIP3    H269978   4.061   1.710   5.575 -1.0024  0.8473 -0.2381
16163TIP3   OH269979   1.265   0.718   2.758 -0.2038  0.1627 -0.2100
16163TIP3    H169980   1.238   0.744   2.670  0.6679 -0.6411 -0.7120
16163TIP3    H269981   1.193   0.663   2.790 -1.1051  1.4714  0.0747
16164TIP3   OH269982   5.819   5.655  16.181  0.7775  0.2705 -0.4087
16164TIP3    H169983   5.820   5.559  16.185 -0.5249  0.1884 -1.6137
16164TIP3    H269984   5.829   5.683  16.272 -0.2438 -1.0463  0.1201
16165TIP3   OH269985   6.556   4.261  11.617  0.1722  0.1256 -0.2232
16165TIP3    H169986   6.504   4.335  11.647  1.1371  0.0999  1.5662
16165TIP3    H269987   6.569   4.278  11.523 -1.0260  1.3403 -0.1884
16166TIP3   OH269988   1.545   5.186   6.337 -0.7132  0.0860  0.2106
16166TIP3    H169989   1.556   5.161   6.428 -1.6618 -1.0606  0.0123
16166TIP3    H269990   1.450   5.189   6.324 -0.5831  0.4147 -0.6956
16167TIP3   OH269991   0.941   1.867   0.678 -0.0862  0.4129 -0.5090
16167TIP3    H169992   0.994   1.838   0.752  1.4010 -0.6204 -1.9333
16167TIP3    H269993   0.955   1.962   0.674 -0.7023  0.5811  0.8985
16168TIP3   OH269994   2.063   0.529   3.351 -0.5920 -0.2337  0.7728
16168TIP3    H169995   2.027   0.566   3.270  1.0137  0.9683  0.5968
16168TIP3    H269996   2.029   0.439   3.353  0.5235 -0.7696 -1.9951
16169TIP3   OH269997   5.449   2.376   0.369  0.3417  0.8325  0.4383
16169TIP3    H169998   5.448   2.377   0.465 -0.6707 -0.2301  0.4562
16169TIP3    H269999   5.367   2.418   0.343  1.4132  2.6949 -0.0061
16170TIP3   OH270000   2.432   4.206   6.422 -0.5599 -0.4450 -0.1998
16170TIP3    H170001   2.407   4.114   6.412  0.0969 -0.6353 -0.1010
16170TIP3    H270002   2.422   4.243   6.334  0.1770 -0.8640 -0.4657
16171TIP3   OH270003   2.163   1.636  14.845  0.4617 -0.6158  0.2912
16171TIP3    H170004   2.131   1.680  14.924  0.2626 -0.0220 -0.1083
16171TIP3    H270005   2.249   1.676  14.829 -0.0716  0.2414 -0.5362
16172TIP3   OH270006   0.632   5.008   4.936 -0.1592 -0.4287  0.4382
16172TIP3    H170007   0.571   5.054   4.993  0.4616  1.3117 -0.2850
16172TIP3    H270008   0.588   5.008   4.850  1.8757  3.0321 -0.6911
16173TIP3   OH270009   0.724   5.864  15.167  0.2690  0.3256 -0.3366
16173TIP3    H170010   0.801   5.895  15.120  1.2365 -1.8687 -0.2363
16173TIP3    H270011   0.757   5.831  15.250 -0.7852 -0.4273 -0.1897
16174TIP3   OH270012   5.972   4.758  17.107  0.0366 -0.5532 -0.4551
16174TIP3    H170013   5.998   4.728  17.020  2.8674 -0.8401  0.4444
16174TIP3    H270014   5.987   4.852  17.106  3.0003 -0.9690  0.6501
16175TIP3   OH270015   2.107   1.609   5.123  0.0956 -0.1724 -0.8077
16175TIP3    H170016   2.053   1.649   5.191 -2.5962 -1.2256 -2.2409
16175TIP3    H270017   2.167   1.552   5.171 -0.5905  0.4076  0.7880
16176TIP3   OH270018   0.512   3.219   1.885  0.3830 -0.4313 -0.2061
16176TIP3    H170019   0.597   3.246   1.919 -0.5156  1.0093  0.9664
16176TIP3    H270020   0.507   3.125   1.902  0.7421 -0.0814  1.9474
16177TIP3   OH270021   4.781   0.874  15.399  0.9669  0.0834  0.2283
16177TIP3    H170022   4.731   0.908  15.472  1.5800  4.1314 -1.0932
16177TIP3    H270023   4.872   0.891  15.422  1.2522  0.0297 -0.8125
16178TIP3   OH270024   1.964   2.608  11.369  0.4003  0.1453 -0.0515
16178TIP3    H170025   2.007   2.632  11.287  0.8548  2.1497  0.7435
16178TIP3    H270026   1.912   2.685  11.392 -0.5007 -0.7762  1.0416
16179TIP3   OH270027   3.036   1.568   3.908 -0.2991 -0.4547 -0.0880
16179TIP3    H170028   2.953   1.540   3.869 -0.1705  0.8470 -1.3325
16179TIP3    H270029   3.075   1.624   3.842  1.8223 -1.4601  0.2877
16180TIP3   OH270030   3.879   5.246   1.673  0.3227  0.7628  0.0074
16180TIP3    H170031   3.904   5.253   1.766  0.5833  1.1407 -0.0902
16180TIP3    H270032   3.955   5.207   1.631 -0.4088 -0.9367  0.2237
16181TIP3   OH270033   3.793   6.024   3.093  0.4160 -0.3613  0.1034
16181TIP3    H170034   3.863   5.959   3.095  1.5656  0.8631  4.1289
16181TIP3    H270035   3.835   6.103   3.060  0.3141 -0.2943  0.1341
16182TIP3   OH270036   1.230   0.003  14.163  0.2752  0.4354  0.6448
16182TIP3    H170037   1.198   0.089  14.135 -1.3922 -0.0776  0.9361
16182TIP3    H270038   1.211  -0.002  14.256  1.2400  0.1317  0.8305
16183TIP3   OH270039   2.744   3.534   5.146  0.3943  0.0652 -0.0181
16183TIP3    H170040   2.702   3.450   5.164 -0.2851  0.5000  0.4821
16183TIP3    H270041   2.686   3.598   5.188  0.5422  0.8331 -0.9754
16184TIP3   OH270042   6.520   6.168   6.401  0.0281  0.1691 -0.1601
16184TIP3    H170043   6.445   6.226   6.416  1.1466  1.8436 -0.9483
16184TIP3    H270044   6.503   6.092   6.457 -2.5726  0.2358 -0.8094
16185TIP3   OH270045   5.662   0.360   3.122 -0.1670  0.5319 -0.4443
16185TIP3    H170046   5.678   0.364   3.028  1.6860  2.2820 -0.1077
16185TIP3    H270047   5.606   0.436   3.140 -0.5848  0.1533 -0.1423
16186TIP3   OH270048   3.573   1.492  15.719  0.6667  0.5490 -0.0691
16186TIP3    H170049   3.544   1.437  15.646  0.6936 -0.0986  0.3987
16186TIP3    H270050   3.526   1.457  15.795  1.7062  0.3042  0.4682
16187TIP3   OH270051   5.622   2.093   5.045  0.2930 -0.2782  0.1760
16187TIP3    H170052   5.560   2.118   5.113  0.5065 -0.0775  0.2965
16187TIP3    H270053   5.587   2.011   5.010 -0.4845  0.2513 -0.3135
16188TIP3   OH270054   2.215   5.000   3.601  0.2131 -0.5486  0.1263
16188TIP3    H170055   2.207   5.046   3.684  1.1447 -1.5874  0.8119
16188TIP3    H270056   2.158   5.047   3.541  0.4929  0.9629  1.0376
16189TIP3   OH270057   1.735   2.693   6.349 -0.2476 -0.1692  0.4818
16189TIP3    H170058   1.665   2.745   6.388 -0.5719 -1.0711  1.1220
16189TIP3    H270059   1.701   2.668   6.263  0.2161  1.3056 -0.1331
16190TIP3   OH270060   3.239   3.938   2.249  0.2346  0.0394 -0.3898
16190TIP3    H170061   3.193   4.003   2.197 -0.1173  0.2931  0.2338
16190TIP3    H270062   3.322   3.980   2.273  0.2794  0.0240 -0.5204
16191TIP3   OH270063   5.306   0.318  15.702  0.1801  0.0833  0.0021
16191TIP3    H170064   5.316   0.363  15.618  1.1382 -1.3265 -0.6544
16191TIP3    H270065   5.326   0.385  15.768  1.1420  0.7264 -0.9331
16192TIP3   OH270066   2.167   6.765  10.826  0.3954  0.2030  0.0691
16192TIP3    H170067   2.110   6.699  10.788  1.2738  0.7356 -2.2469
16192TIP3    H270068   2.146   6.845  10.779 -0.0337  1.4179  2.2466
16193TIP3   OH270069   4.135   0.699  11.921 -0.1290  0.1747  0.0193
16193TIP3    H170070   4.094   0.674  12.004 -1.4527 -0.6910 -0.8695
16193TIP3    H270071   4.097   0.784  11.901 -2.6951 -1.2515 -1.5181
16194TIP3   OH270072   3.995   4.721  14.039 -0.2005 -0.8503 -0.4989
16194TIP3    H170073   3.967   4.705  14.129  0.1417 -3.9995 -0.8771
16194TIP3    H270074   3.939   4.793  14.009 -0.0710  0.4934  2.3091
16195TIP3   OH270075   5.605   0.917   1.665  0.2009 -0.4012 -0.5590
16195TIP3    H170076   5.571   0.829   1.649 -0.6265 -0.0873 -0.5581
16195TIP3    H270077   5.603   0.960   1.579 -1.4415  0.3152 -0.1853
16196TIP3   OH270078   3.453   6.815  14.185 -0.2315  0.1927 -0.0983
16196TIP3    H170079   3.372   6.771  14.210  0.1648 -0.4964 -0.0316
16196TIP3    H270080   3.460   6.889  14.245 -0.3958 -0.2109  0.4155
16197TIP3   OH270081   3.106   2.121   0.386  0.2940  0.1504 -0.4436
16197TIP3    H170082   3.027   2.169   0.411 -0.1662 -0.5308 -0.5828
16197TIP3    H270083   3.177   2.184   0.398 -0.1866  0.5519  0.3413
16198TIP3   OH270084   4.281   1.144   1.990 -0.2388 -0.3491  0.0195
16198TIP3    H170085   4.218   1.099   2.046 -0.5044 -0.3659 -0.2969
16198TIP3    H270086   4.359   1.088   1.992 -0.3294 -0.4688  0.1834
16199TIP3   OH270087   5.961   4.519   3.338 -0.4908  0.6184 -0.2004
16199TIP3    H170088   5.875   4.502   3.375  0.5292 -1.1417  1.4226
16199TIP3    H270089   5.956   4.487   3.248 -1.9795  1.9517 -0.6183
16200TIP3   OH270090   0.871   3.275   5.645  0.1429  0.0273  0.1880
16200TIP3    H170091   0.849   3.330   5.720 -0.7808 -0.8467  0.5757
16200TIP3    H270092   0.809   3.202   5.650  0.2575 -0.1909 -1.2569
16201TIP3   OH270093   5.433   0.398  10.978 -0.7135 -0.2628 -0.6339
16201TIP3    H170094   5.377   0.361  10.910  1.7624 -0.7446 -2.5005
16201TIP3    H270095   5.451   0.488  10.948 -1.9695  0.5142  0.8992
16202TIP3   OH270096   5.725   5.174  14.904  0.5889  0.0065 -0.5889
16202TIP3    H170097   5.749   5.218  14.823 -0.5750 -0.2055 -1.0585
16202TIP3    H270098   5.805   5.130  14.932  1.1838  0.6510 -1.2466
16203TIP3   OH270099   5.252   5.872   4.257  0.6324 -0.1383  0.2800
16203TIP3    H170100   5.300   5.833   4.330 -0.6667 -0.4164  1.0107
16203TIP3    H270101   5.231   5.960   4.287  0.9081  0.0662 -0.1325
16204TIP3   OH270102   5.070   3.092  10.716  0.4709 -0.2805  0.3644
16204TIP3    H170103   5.055   3.148  10.792 -3.4410  0.2960 -0.7072
16204TIP3    H270104   5.083   3.005  10.753  1.2021  0.4223  1.8063
16205TIP3   OH270105   6.719   5.503  11.763  0.2945  0.2858 -0.5616
16205TIP3    H170106   6.749   5.427  11.714 -1.8261 -0.1723 -1.1966
16205TIP3    H270107   6.669   5.554  11.699 -2.0182 -0.0220  0.9446
16206TIP3   OH270108   5.683   4.851   4.830 -0.0974 -0.0239 -0.2253
16206TIP3    H170109   5.616   4.869   4.896  0.6850  2.5081 -0.0578
16206TIP3    H270110   5.766   4.871   4.874  0.6826 -1.7367 -0.8793
16207TIP3   OH270111   6.790   1.070  13.504  0.2868  0.0020  0.3775
16207TIP3    H170112   6.836   1.089  13.423 -0.2584 -1.5877 -0.3218
16207TIP3    H270113   6.700   1.098  13.488  0.3662  0.4733  0.7379
16208TIP3   OH270114   1.866   4.472   0.713 -0.1983  0.4090 -0.3168
16208TIP3    H170115   1.835   4.465   0.623 -0.1066  0.5946 -0.3631
16208TIP3    H270116   1.960   4.453   0.707 -0.1715  0.5254 -0.2775
16209TIP3   OH270117   5.074   5.250  11.571 -1.1873  0.3215  0.1028
16209TIP3    H170118   5.126   5.285  11.644  1.0004 -0.3162 -1.1129
16209TIP3    H270119   5.004   5.314  11.559 -0.0987  1.7347  1.1238
16210TIP3   OH270120   3.561   6.734  11.766 -0.0103 -0.2581  0.2838
16210TIP3    H170121   3.606   6.819  11.759  0.3949 -0.5744 -1.1283
16210TIP3    H270122   3.627   6.676  11.804  0.0492 -0.1808  0.2988
16211TIP3   OH270123   0.343   6.228  12.719 -0.4093 -0.0092  0.0851
16211TIP3    H170124   0.402   6.226  12.644  0.5478  1.0778  0.8036
16211TIP3    H270125   0.319   6.137  12.733 -0.7852 -0.2047 -1.6883
16212TIP3   OH270126   0.786   4.045  13.660  0.1579 -0.0494 -0.3495
16212TIP3    H170127   0.801   3.974  13.722 -0.9752 -0.3398 -0.4093
16212TIP3    H270128   0.694   4.067  13.670 -0.2544 -0.6753 -2.5450
16213TIP3   OH270129   2.923   1.266  10.509 -0.7275  0.1601  0.1293
16213TIP3    H170130   2.943   1.278  10.416 -1.7025 -2.0589 -0.3962
16213TIP3    H270131   2.969   1.338  10.553 -0.4682  1.3787 -2.0841
16214TIP3   OH270132   6.006   6.080   0.750 -0.4408 -0.4291 -0.0054
16214TIP3    H170133   5.989   6.036   0.666  1.4781  1.1168 -1.2502
16214TIP3    H270134   6.068   6.150   0.728 -1.1687  1.0335  2.4370
16215TIP3   OH270135   5.084   0.419   0.325 -0.2410 -0.3492 -0.2445
16215TIP3    H170136   5.159   0.361   0.339  0.7307  0.7855 -0.5969
16215TIP3    H270137   5.030   0.374   0.261 -0.2585 -1.5471  0.6029
16216TIP3   OH270138   6.792   1.040  11.263 -0.7312 -0.5544 -0.2963
16216TIP3    H170139   6.869   0.987  11.284 -1.4089 -0.3588  2.9412
16216TIP3    H270140   6.785   1.034  11.168  1.9929 -2.3650 -0.4635
16217TIP3   OH270141   3.486   0.412  14.970 -0.1012  0.0532 -0.0021
16217TIP3    H170142   3.460   0.369  14.888 -1.1132  0.8174 -0.0998
16217TIP3    H270143   3.550   0.353  15.009  1.7420  0.5638 -2.2091
16218TIP3   OH270144   3.053   3.790   5.096  0.1623 -0.8199 -0.0409
16218TIP3    H170145   3.101   3.768   5.016  0.1706 -1.6023  0.1748
16218TIP3    H270146   2.962   3.798   5.068  0.4836  1.3487 -0.5837
16219TIP3   OH270147   2.281   3.405  12.411 -0.3506  0.1656 -0.2115
16219TIP3    H170148   2.215   3.361  12.357 -1.2425 -0.7865  1.6004
16219TIP3    H270149   2.347   3.435  12.349 -0.2957 -2.7443 -1.6356
16220TIP3   OH270150   6.245   1.544  12.465  0.3359 -0.4578  0.4501
16220TIP3    H170151   6.247   1.469  12.406  2.0666  0.2822 -0.4586
16220TIP3    H270152   6.152   1.560  12.481 -0.1328 -0.9375 -1.7144
16221TIP3   OH270153   3.421   4.501  12.415  0.1303  0.0569  0.9547
16221TIP3    H170154   3.326   4.513  12.426 -0.2786 -1.7972 -0.2517
16221TIP3    H270155   3.460   4.551  12.487 -1.8445 -0.5838  2.5321
16222TIP3   OH270156   0.320   4.246  15.520 -0.6011 -0.6800 -0.3001
16222TIP3    H170157   0.305   4.154  15.542  1.0833 -1.0956 -0.8563
16222TIP3    H270158   0.289   4.255  15.430 -1.9198 -0.4013  0.1760
16223TIP3   OH270159   2.949   6.353  14.587  0.4121 -0.1693  0.1822
16223TIP3    H170160   2.869   6.301  14.580  0.2483  0.0830  0.1622
16223TIP3    H270161   2.918   6.443  14.597  0.6962 -0.0589  0.0688
16224TIP3   OH270162   5.007   2.967  13.606 -0.1035  0.4572  0.0126
16224TIP3    H170163   4.966   2.921  13.534  0.5471  2.9254 -2.0340
16224TIP3    H270164   4.953   2.948  13.682 -0.8297 -2.1494 -1.1340
16225TIP3   OH270165   3.391   4.630   2.513  0.0235 -0.4523 -0.4439
16225TIP3    H170166   3.464   4.691   2.501  1.0823 -1.4357  0.7536
16225TIP3    H270167   3.321   4.665   2.458  0.7926  1.5189 -0.2255
16226TIP3   OH270168   1.018   2.262  14.290 -0.4980 -0.4733 -0.1556
16226TIP3    H170169   1.064   2.345  14.303 -0.6491 -0.4887  0.4814
16226TIP3    H270170   0.967   2.275  14.210  1.1786 -0.7049 -1.3039
16227TIP3   OH270171   4.523   3.297  12.444  0.3227 -0.6416 -0.7466
16227TIP3    H170172   4.478   3.341  12.372 -0.0591 -0.0074 -0.1370
16227TIP3    H270173   4.484   3.336  12.523  1.9275 -0.0985 -0.2100
16228TIP3   OH270174   4.787   0.439   4.679  0.0198  0.3463  0.7515
16228TIP3    H170175   4.733   0.408   4.751  0.1137 -0.7462  0.3503
16228TIP3    H270176   4.875   0.445   4.716 -0.0423  0.3734  0.8942
16229TIP3   OH270177   0.080   4.985   5.623  0.5157 -0.2143  0.3269
16229TIP3    H170178   0.011   4.991   5.557  0.5942  1.3467  0.3683
16229TIP3    H270179   0.035   4.955   5.702  0.2427 -1.0974 -0.1550
16230TIP3   OH270180   5.313   0.323   4.840 -0.3770 -0.1548  0.5237
16230TIP3    H170181   5.390   0.270   4.860  0.0687  0.9845  1.8826
16230TIP3    H270182   5.301   0.313   4.746  1.8855  0.2568  0.1635
16231TIP3   OH270183   2.851   5.921  17.082 -0.1226 -0.0209  0.3470
16231TIP3    H170184   2.835   5.906  16.989 -3.5607 -2.0739  1.1548
16231TIP3    H270185   2.873   5.835  17.117  0.6181  0.6378  1.5219
16232TIP3   OH270186   1.038   1.735   3.977  0.0553 -0.7194  0.2234
16232TIP3    H170187   0.993   1.772   3.901  1.6378  0.3588 -0.2153
16232TIP3    H270188   1.067   1.649   3.948  0.2563 -0.4960 -0.2465
16233TIP3   OH270189   4.326   1.684  14.573  0.1642 -0.0907 -0.3805
16233TIP3    H170190   4.272   1.709  14.497 -0.9729 -0.2459  0.3634
16233TIP3    H270191   4.324   1.589  14.573  0.6125 -0.1000 -0.4690
16234TIP3   OH270192   1.860   1.509   5.707 -0.3312  0.1743 -0.0178
16234TIP3    H170193   1.785   1.452   5.696 -0.3704  0.5538 -1.9056
16234TIP3    H270194   1.846   1.580   5.643  0.9024  1.0017  0.6039
16235TIP3   OH270195   6.338   3.189   3.670 -0.2780 -0.3051 -0.7944
16235TIP3    H170196   6.325   3.283   3.665  0.7803  0.1107  2.7323
16235TIP3    H270197   6.432   3.176   3.660 -0.1433 -0.7406  0.7627
16236TIP3   OH270198   3.804   0.410   1.651  0.3624 -0.2711  0.7301
16236TIP3    H170199   3.740   0.345   1.680  2.4491 -2.5580  0.2855
16236TIP3    H270200   3.788   0.418   1.557  0.6189 -0.7120  0.6491
16237TIP3   OH270201   0.037   4.534   4.467 -0.1437  0.6820 -0.2125
16237TIP3    H170202   0.046   4.507   4.558  1.7827 -2.1666 -1.1882
16237TIP3    H270203  -0.035   4.480   4.433  0.0013  0.8077 -0.7232
16238TIP3   OH270204   6.514   3.024  17.277  0.0882  1.0543 -0.6419
16238TIP3    H170205   6.559   3.106  17.261 -0.8473  1.6880 -0.0815
16238TIP3    H270206   6.445   3.046  17.339 -2.5067  0.5789 -3.2749
16239TIP3   OH270207   0.795   1.150  13.344 -0.1582  0.1439  0.2981
16239TIP3    H170208   0.740   1.086  13.298 -0.0415  0.6607 -0.5671
16239TIP3    H270209   0.784   1.128  13.436 -0.4695 -0.8529  0.0366
16240TIP3   OH270210   0.731   5.371   5.047  0.6018 -0.3470  0.4529
16240TIP3    H170211   0.733   5.332   5.134  0.6060 -0.8745  0.2198
16240TIP3    H270212   0.653   5.427   5.048  0.7383 -0.1569  0.8706
16241TIP3   OH270213   4.443   4.962  14.072 -0.2696  0.2095 -0.2034
16241TIP3    H170214   4.433   4.978  14.166  0.4269  2.3615 -0.4794
16241TIP3    H270215   4.379   4.893  14.053 -1.5987  0.9264  1.5192
16242TIP3   OH270216   4.049   4.794   4.411 -0.1858 -0.4038 -0.0414
16242TIP3    H170217   4.050   4.864   4.477 -0.3699 -1.1737  0.7959
16242TIP3    H270218   4.082   4.835   4.332 -4.2437  1.7851 -0.7472
16243TIP3   OH270219   5.128   1.999   3.830  0.5788  1.2860  0.4555
16243TIP3    H170220   5.116   1.906   3.810 -0.5086  1.5930 -0.4112
16243TIP3    H270221   5.142   2.003   3.924 -2.9411  0.5452  1.0737
16244TIP3   OH270222   6.008   2.826   2.838  0.9902 -0.2793 -0.5275
16244TIP3    H170223   5.944   2.847   2.770  1.2202 -0.6866 -0.8768
16244TIP3    H270224   5.987   2.736   2.863 -0.3036  0.5095  1.3119
16245TIP3   OH270225   3.310   4.940  16.782  0.1725 -0.4392 -0.4993
16245TIP3    H170226   3.315   4.921  16.876  0.9422 -0.1000 -0.4688
16245TIP3    H270227   3.217   4.953  16.765  0.1478  0.7371  0.4743
16246TIP3   OH270228   5.303   1.132  16.584  0.2226 -0.1692  0.2113
16246TIP3    H170229   5.333   1.079  16.657 -0.9406 -0.0218  0.8035
16246TIP3    H270230   5.235   1.080  16.542 -1.0343  0.8767  0.8883
16247TIP3   OH270231   2.794   6.801  14.285 -0.2852 -0.3564  1.2508
16247TIP3    H170232   2.713   6.821  14.237 -0.4503 -0.4488  1.4909
16247TIP3    H270233   2.818   6.884  14.327  1.1265  0.3490 -0.8604
16248TIP3   OH270234   5.992   6.556   5.099  0.1100  0.5940  0.0470
16248TIP3    H170235   6.060   6.501   5.060  1.4986  1.6552  0.9415
16248TIP3    H270236   5.923   6.494   5.123  0.5070 -0.4305 -1.3802
16249TIP3   OH270237   4.806   5.333  12.329 -0.8307 -0.5002  0.0956
16249TIP3    H170238   4.860   5.300  12.258 -0.4518 -0.9664  0.5992
16249TIP3    H270239   4.838   5.288  12.407 -1.6254 -0.4209  0.4730
16250TIP3   OH270240   0.638   2.706   4.950  0.7602  0.5698  0.1282
16250TIP3    H170241   0.547   2.682   4.933 -0.0529  3.0297  0.7598
16250TIP3    H270242   0.649   2.692   5.044  0.4430  2.0731  0.3996
16251TIP3   OH270243   2.788   4.093  15.265 -0.5157  0.0176  0.3834
16251TIP3    H170244   2.841   4.144  15.326 -0.1787  1.5497 -1.1415
16251TIP3    H270245   2.844   4.081  15.189 -1.6272 -0.1374 -0.4229
16252TIP3   OH270246   4.697   5.960  15.147  0.3309 -0.2647  0.2840
16252TIP3    H170247   4.688   6.049  15.181  0.2706 -0.3336  0.4505
16252TIP3    H270248   4.609   5.922  15.155 -0.0231  0.1954 -1.2932
16253TIP3   OH270249   0.771   3.615  14.505  0.0811  0.1391  0.4892
16253TIP3    H170250   0.801   3.702  14.478 -0.7238  0.9812  2.1617
16253TIP3    H270251   0.838   3.555  14.474  1.2787  1.5092  0.3883
16254TIP3   OH270252   2.753   3.041  11.036 -0.3540  0.2208 -0.5155
16254TIP3    H170253   2.765   3.039  10.941 -0.4516  3.0655 -0.6046
16254TIP3    H270254   2.661   3.064  11.048 -0.9687 -2.4747  0.2977
16255TIP3   OH270255   2.721   5.863  14.127 -0.0390 -0.8759  0.1791
16255TIP3    H170256   2.727   5.821  14.214 -1.6524  0.8840  1.1709
16255TIP3    H270257   2.652   5.814  14.083  0.6342 -1.6353 -0.0509
16256TIP3   OH270258   5.283   5.863  12.661 -0.0565 -0.0778  0.4004
16256TIP3    H170259   5.289   5.896  12.571 -1.9290 -1.6435 -0.3273
16256TIP3    H270260   5.230   5.929  12.707 -0.8670 -0.3132 -0.1786
16257TIP3   OH270261   5.657   1.374  12.500 -0.0861 -0.0280  0.0769
16257TIP3    H170262   5.644   1.305  12.435 -1.4463  1.1126 -0.9138
16257TIP3    H270263   5.605   1.447  12.467  0.5450  1.1392  1.6098
16258TIP3   OH270264   4.864   2.114   1.910  0.1150  0.3020  0.4115
16258TIP3    H170265   4.894   2.077   1.993 -1.5957 -1.8691  0.1164
16258TIP3    H270266   4.774   2.081   1.900  0.4607  0.1407 -2.5270
16259TIP3   OH270267   2.711   5.490  14.171  0.4752  0.4093  0.5127
16259TIP3    H170268   2.736   5.507  14.080 -0.7605  0.5666  0.1856
16259TIP3    H270269   2.631   5.541  14.184  0.2969 -0.1024  1.4919
16260TIP3   OH270270   5.777   6.777  15.873  0.8573 -0.5696  0.0635
16260TIP3    H170271   5.717   6.811  15.939  1.9790  0.5166  0.5440
16260TIP3    H270272   5.864   6.791  15.911  1.4404 -1.3286 -0.9917
16261TIP3   OH270273   2.319   4.828   5.415  0.5215 -0.0293  0.0599
16261TIP3    H170274   2.245   4.843   5.356 -0.9972 -1.0529  1.6739
16261TIP3    H270275   2.311   4.897   5.481  1.3347  0.1930 -0.0774
16262TIP3   OH270276   2.792   5.802   0.150 -0.2797 -0.3483 -0.9008
16262TIP3    H170277   2.814   5.889   0.116 -0.7420 -0.2911 -1.0566
16262TIP3    H270278   2.779   5.749   0.072  0.0964 -0.5863 -0.8046
16263TIP3   OH270279   6.334   6.790   3.707 -0.0586  0.2256 -0.8654
16263TIP3    H170280   6.362   6.862   3.650  0.2792  0.3696 -0.5234
16263TIP3    H270281   6.272   6.740   3.654  0.0248  0.5284 -1.2548
16264TIP3   OH270282   2.967   0.362  16.106 -0.2941  0.6333 -0.2387
16264TIP3    H170283   2.882   0.351  16.064 -0.2055  0.9778 -0.5177
16264TIP3    H270284   2.983   0.456  16.102 -0.8997  0.8492  1.8087
16265TIP3   OH270285   3.757   0.657   1.851 -1.1254  0.2026 -0.3164
16265TIP3    H170286   3.814   0.664   1.928 -1.4680  0.6244 -0.1004
16265TIP3    H270287   3.795   0.585   1.800  0.4271  1.3595 -0.8460
16266TIP3   OH270288   5.003   3.668   5.661  0.4009 -0.4176 -0.1653
16266TIP3    H170289   4.931   3.623   5.705  0.9944  0.9945  2.3243
16266TIP3    H270290   5.076   3.606   5.664  0.4581 -0.3077  0.9556
16267TIP3   OH270291   0.540   3.089   3.644 -0.6707  0.1682  0.4096
16267TIP3    H170292   0.600   3.065   3.715  0.5866  1.3358 -0.2487
16267TIP3    H270293   0.586   3.065   3.564 -0.4958  2.3190 -0.1540
16268TIP3   OH270294   4.236   2.327   3.363  0.0189  0.6601 -0.4678
16268TIP3    H170295   4.143   2.347   3.370  0.5303  3.2703 -0.7134
16268TIP3    H270296   4.280   2.411   3.375  2.3485 -0.5303 -0.3823
16269TIP3   OH270297   1.091   2.786   5.359 -0.1714 -0.1882  0.3305
16269TIP3    H170298   1.050   2.807   5.443 -0.5422  0.7246 -0.0767
16269TIP3    H270299   1.046   2.706   5.331  1.5908 -1.8824  2.1113
16270TIP3   OH270300   6.387   3.657   6.152  0.2096  0.0308 -0.3825
16270TIP3    H170301   6.335   3.658   6.071 -1.1668  1.8975  0.4821
16270TIP3    H270302   6.375   3.745   6.189  1.4056 -0.5679  1.4925
16271TIP3   OH270303   2.273   0.868  13.909 -0.5206 -0.0819  0.4491
16271TIP3    H170304   2.300   0.806  13.840  0.5418 -0.0251  0.8149
16271TIP3    H270305   2.180   0.883  13.892 -0.9478 -2.2671  0.7259
16272TIP3   OH270306   2.271   1.324  14.098 -0.0295  0.6478  0.5249
16272TIP3    H170307   2.330   1.262  14.054 -0.1340  1.2981 -0.5626
16272TIP3    H270308   2.274   1.299  14.190 -0.4656 -1.2896  0.0398
16273TIP3   OH270309   1.777   1.439   0.415 -0.1052  0.3384  0.1224
16273TIP3    H170310   1.793   1.373   0.484 -2.8869  0.9313  1.3999
16273TIP3    H270311   1.767   1.388   0.335 -1.0582 -0.7327  0.9012
16274TIP3   OH270312   1.421   5.753  16.921 -0.5526 -0.9946 -0.5585
16274TIP3    H170313   1.410   5.831  16.975  1.7648 -0.2054 -1.1851
16274TIP3    H270314   1.396   5.681  16.978 -1.4712  0.0919  0.4478
16275TIP3   OH270315   3.650   5.201   3.664  0.0378  0.2616  0.5198
16275TIP3    H170316   3.605   5.273   3.708 -0.1827 -0.3366  1.2870
16275TIP3    H270317   3.580   5.153   3.620 -0.2999 -1.3875  2.7217
16276TIP3   OH270318   3.308   0.171   5.659 -0.2154 -0.1915 -0.6754
16276TIP3    H170319   3.347   0.085   5.644  2.0133  0.3034  1.9556
16276TIP3    H270320   3.316   0.216   5.574  0.5233 -1.8090 -1.4807
16277TIP3   OH270321   6.379   0.354  15.006 -1.2934 -0.4744  0.1171
16277TIP3    H170322   6.380   0.437  14.959  3.8776 -1.1841 -1.3708
16277TIP3    H270323   6.386   0.379  15.098 -0.7177  0.8059 -0.2594
16278TIP3   OH270324   2.880   5.200  13.670  0.2756 -1.0448  0.6190
16278TIP3    H170325   2.842   5.236  13.590  1.1418 -0.8238  0.3084
16278TIP3    H270326   2.952   5.259  13.693  0.1300 -1.1854  1.4835
16279TIP3   OH270327   3.189   4.761  12.404 -0.3756 -0.6077  0.0174
16279TIP3    H170328   3.187   4.831  12.469 -0.7357 -1.3609  0.8370
16279TIP3    H270329   3.181   4.680  12.455  2.3790 -1.3984 -0.7056
16280TIP3   OH270330   5.174   3.892  17.018 -0.0192  0.2451 -0.2059
16280TIP3    H170331   5.123   3.812  17.005 -1.6409  1.0402  1.0590
16280TIP3    H270332   5.255   3.878  16.968 -0.0706 -2.3668  0.3799
16281TIP3   OH270333   3.068   3.944  13.918  0.1332 -0.6665  0.1660
16281TIP3    H170334   3.059   3.852  13.942  1.2990 -0.7744  0.2423
16281TIP3    H270335   3.084   3.942  13.823  0.5342 -0.5786  0.2283
16282TIP3   OH270336   6.559   3.609  12.831  0.5567  0.4438  0.0092
16282TIP3    H170337   6.571   3.563  12.748 -0.1023  0.3164 -0.0106
16282TIP3    H270338   6.518   3.545  12.888  0.8555  0.5870  0.3875
16283TIP3   OH270339   0.957   4.693  12.913 -0.0340  0.0234  0.2058
16283TIP3    H170340   0.960   4.719  13.005  0.5050  0.5164  0.0479
16283TIP3    H270341   1.006   4.760  12.867  1.9495 -1.6011 -0.1356
16284TIP3   OH270342   2.762   5.125   0.060  0.1198  0.1642 -0.1220
16284TIP3    H170343   2.765   5.079  -0.024  0.9451  1.7238 -0.9873
16284TIP3    H270344   2.673   5.159   0.066  0.7345  2.1415 -1.5705
16285TIP3   OH270345   1.979   1.665   2.643  0.4705  0.7107 -0.5873
16285TIP3    H170346   1.899   1.616   2.662 -0.5964  1.7878 -2.1968
16285TIP3    H270347   2.046   1.623   2.697 -1.4163  0.5980  1.7381
16286TIP3   OH270348   5.384   3.515  14.810 -0.0366  0.8059  0.3656
16286TIP3    H170349   5.410   3.499  14.719  0.5478 -0.8833  0.8099
16286TIP3    H270350   5.294   3.482  14.815  0.5514 -0.7939  0.8294
16287TIP3   OH270351   6.726   1.350   3.663  0.2369  0.0273  0.7184
16287TIP3    H170352   6.765   1.433   3.691  1.2283 -0.3486  0.4957
16287TIP3    H270353   6.673   1.322   3.737  1.5752 -0.1686  1.6289
16288TIP3   OH270354   2.845   5.601  12.200  0.7210  0.1612  0.6750
16288TIP3    H170355   2.762   5.556  12.183  1.1299 -0.3881  0.1002
16288TIP3    H270356   2.822   5.694  12.197  0.2588  0.0264 -0.2059
16289TIP3   OH270357   3.385   4.607  13.162  0.6921  0.1748 -0.4118
16289TIP3    H170358   3.440   4.540  13.123 -1.4771 -1.9560  0.0910
16289TIP3    H270359   3.301   4.600  13.116 -0.8493 -0.1953  2.3519
16290TIP3   OH270360   4.423   2.040   3.935  0.0570 -0.0326  0.5747
16290TIP3    H170361   4.516   2.063   3.939 -0.1328  0.8958 -0.0325
16290TIP3    H270362   4.413   1.997   3.850 -0.1594  0.3424  0.4060
16291TIP3   OH270363   5.848   6.775  13.826  0.7457  0.3088 -0.7280
16291TIP3    H170364   5.898   6.696  13.849 -0.1365 -0.5424 -1.6846
16291TIP3    H270365   5.805   6.800  13.908  0.8572 -0.3192 -0.4708
16292TIP3   OH270366   1.306   0.730  12.590  0.1653 -0.5685 -0.4639
16292TIP3    H170367   1.303   0.739  12.685  0.3952  2.2398 -0.6976
16292TIP3    H270368   1.222   0.689  12.568 -0.2989 -0.3542  0.8448
16293TIP3   OH270369   5.771   5.821  14.037  0.3045 -0.1875  0.3078
16293TIP3    H170370   5.794   5.914  14.047  0.4188  0.0029 -1.5320
16293TIP3    H270371   5.771   5.787  14.127 -0.5112  1.7706  1.0887
16294TIP3   OH270372   5.682   3.989  17.059 -0.3002  0.1070 -0.1877
16294TIP3    H170373   5.736   4.037  16.996  0.0207  2.1439  1.5637
16294TIP3    H270374   5.597   4.032  17.055 -0.0691  0.7318  1.2545
16295TIP3   OH270375   4.552   1.516   2.860  0.0589  0.0331 -0.2881
16295TIP3    H170376   4.530   1.608   2.843  1.7198  0.1670 -1.7992
16295TIP3    H270377   4.634   1.520   2.909 -0.3600 -0.6425  0.4873
16296TIP3   OH270378   4.274   6.312  17.239 -0.1502 -0.2854 -0.1278
16296TIP3    H170379   4.300   6.402  17.220  0.2271  0.1054  2.0614
16296TIP3    H270380   4.179   6.318  17.256  0.2484  0.1193  2.1657
16297TIP3   OH270381   2.060   5.542   1.758  0.2873 -0.5035  0.5219
16297TIP3    H170382   2.136   5.515   1.810  1.5276  1.5750 -0.1439
16297TIP3    H270383   2.087   5.528   1.667 -0.8910 -1.6328  0.3255
16298TIP3   OH270384   1.741   3.840   4.632 -0.3618  0.0694  0.7001
16298TIP3    H170385   1.748   3.930   4.665  0.6945  0.1469  0.2935
16298TIP3    H270386   1.762   3.786   4.708 -1.1249  0.1548  0.9786
16299TIP3   OH270387   4.956   1.583  14.626  0.4636  0.5092 -0.0993
16299TIP3    H170388   4.970   1.624  14.541 -0.8021  1.4924  0.1415
16299TIP3    H270389   5.008   1.635  14.687  0.8768  0.1891 -0.1800
16300TIP3   OH270390   5.655   2.890  12.608  0.2544 -0.4753 -0.3438
16300TIP3    H170391   5.699   2.940  12.677 -0.8067  0.0855 -0.0587
16300TIP3    H270392   5.725   2.861  12.550  0.9320  1.1105 -0.3490
16301TIP3   OH270393   5.067   5.754  10.670  0.0655  0.0318  0.1048
16301TIP3    H170394   5.098   5.797  10.590  1.9438 -1.3474  0.0382
16301TIP3    H270395   4.972   5.758  10.665  0.1750  0.9238 -1.6609
16302TIP3   OH270396   3.984   0.576   0.034  0.0237  0.0238  0.2657
16302TIP3    H170397   4.077   0.599   0.029 -0.0534  0.3778  0.4595
16302TIP3    H270398   3.955   0.612   0.117 -0.4125  0.3722 -0.0318
16303TIP3   OH270399   0.990   3.223   3.410 -0.5012 -0.0513 -0.0558
16303TIP3    H170400   1.007   3.297   3.352  0.9712 -0.0780  0.3338
16303TIP3    H270401   1.055   3.232   3.480 -0.2242 -1.7875 -0.0696
16304TIP3   OH270402   1.454   4.191   4.586  0.6813  0.1119  0.0766
16304TIP3    H170403   1.409   4.250   4.526 -1.0344  0.0421  1.2458
16304TIP3    H270404   1.429   4.103   4.558 -0.0479  0.0770  0.7815
16305TIP3   OH270405   5.394   6.325  14.987  0.1878 -0.0286  0.2096
16305TIP3    H170406   5.429   6.277  14.912 -0.0557 -0.7144  0.5327
16305TIP3    H270407   5.335   6.263  15.030 -0.1779  0.5788  0.5953
16306TIP3   OH270408   5.778   0.514  11.664  0.1362  0.3933 -0.0671
16306TIP3    H170409   5.687   0.482  11.662  0.9106 -1.8913 -3.2252
16306TIP3    H270410   5.830   0.437  11.688  1.5033  0.7599 -1.7485
16307TIP3   OH270411   3.949   4.468   0.615 -0.4976  0.4612 -0.3601
16307TIP3    H170412   4.025   4.518   0.645 -0.5315 -0.7876  1.9428
16307TIP3    H270413   3.981   4.416   0.542  0.2886  1.5825 -0.8269
16308TIP3   OH270414   1.297   3.588  16.122 -0.1042  0.3439  0.5803
16308TIP3    H170415   1.304   3.533  16.201 -3.6598  0.4250  1.0020
16308TIP3    H270416   1.277   3.527  16.052 -0.1709  0.6643  0.3232
16309TIP3   OH270417   3.562   6.219  17.122 -0.0959  0.2675 -0.4848
16309TIP3    H170418   3.629   6.268  17.169  0.0694 -0.7688  0.3705
16309TIP3    H270419   3.507   6.286  17.082 -1.5918  1.2797  3.0630
16310TIP3   OH270420   2.043   0.789   5.449  0.2803 -0.2053 -0.0054
16310TIP3    H170421   1.986   0.758   5.519 -0.2941  0.3325 -0.2262
16310TIP3    H270422   2.036   0.884   5.453  1.1795 -0.1394 -0.0280
16311TIP3   OH270423   5.400   1.544   4.718 -0.2996 -0.5663  0.6408
16311TIP3    H170424   5.341   1.541   4.793 -2.2721 -0.9932 -0.8637
16311TIP3    H270425   5.362   1.612   4.661  0.4177 -1.1425 -0.5469
16312TIP3   OH270426   5.160   6.234  10.710 -0.0069  0.3385 -0.1680
16312TIP3    H170427   5.199   6.242  10.623  0.4327  1.4977  0.1290
16312TIP3    H270428   5.072   6.272  10.701 -0.0500  0.2430 -0.1573
16313TIP3   OH270429   5.760   4.197   4.937  0.2406  0.4138  0.5898
16313TIP3    H170430   5.684   4.218   4.992 -0.6689 -1.1309 -0.0734
16313TIP3    H270431   5.790   4.282   4.905 -1.2018  1.0313  0.8605
16314TIP3   OH270432   0.682   1.316  11.972  0.0475 -0.0462 -0.1166
16314TIP3    H170433   0.652   1.229  11.944  1.4361 -0.6043  0.0832
16314TIP3    H270434   0.654   1.375  11.902  1.7261 -1.1208 -1.7411
16315TIP3   OH270435   4.858   6.488   2.342  0.1740 -0.0935 -0.2428
16315TIP3    H170436   4.886   6.462   2.430 -0.7561  0.9469  0.3769
16315TIP3    H270437   4.765   6.466   2.339  0.5616 -1.6378 -1.5622
16316TIP3   OH270438   2.277   0.115  16.200  0.1988  0.4938 -0.0613
16316TIP3    H170439   2.347   0.138  16.260 -0.1017  1.1853  0.0295
16316TIP3    H270440   2.284   0.178  16.129 -0.6499  0.8880  0.1976
16317TIP3   OH270441   3.359   0.161   3.907  0.2550  0.1828  0.2233
16317TIP3    H170442   3.277   0.182   3.862  0.1998  0.6187  0.5255
16317TIP3    H270443   3.339   0.082   3.957  0.0408  0.2439  0.2352
16318TIP3   OH270444   5.551   1.944   2.034 -0.3273  0.5109  0.2399
16318TIP3    H170445   5.614   1.997   2.083  0.7938 -0.5337 -0.0547
16318TIP3    H270446   5.466   1.973   2.067  0.2560  2.3842  0.1919
16319TIP3   OH270447   4.248   0.155   4.145  0.2214  0.4303 -0.0475
16319TIP3    H170448   4.264   0.205   4.225  0.3639 -1.5416  1.1816
16319TIP3    H270449   4.335   0.144   4.107  0.0860  1.9074 -0.8368
16320TIP3   OH270450   5.460   4.348  14.283 -0.7207  1.0075  0.1000
16320TIP3    H170451   5.396   4.286  14.317 -0.3359  0.3113 -0.4209
16320TIP3    H270452   5.423   4.378  14.200 -0.0316  0.0286 -0.5741
16321TIP3   OH270453   3.665   2.703  16.797  0.4852  0.1678  0.3169
16321TIP3    H170454   3.635   2.791  16.819 -0.9836 -0.0408 -0.7430
16321TIP3    H270455   3.647   2.651  16.875  0.1085  0.5238  0.4685
16322TIP3   OH270456   5.135   6.259   1.842  0.2894  0.0930 -0.7917
16322TIP3    H170457   5.046   6.225   1.841  0.9125 -1.6086 -2.3147
16322TIP3    H270458   5.177   6.214   1.916 -0.7394  2.7141  1.4614
16323TIP3   OH270459   0.059   1.099   5.762  0.1803 -0.2491  0.2034
16323TIP3    H170460   0.138   1.120   5.712  1.2673  0.3471  2.0840
16323TIP3    H270461   0.005   1.047   5.703  1.1344  0.9735 -1.7639
16324TIP3   OH270462   2.969   5.008  13.387 -0.7548  0.2651  0.2474
16324TIP3    H170463   3.030   5.081  13.402 -1.0249  0.3881  0.7793
16324TIP3    H270464   2.883   5.050  13.377 -0.8743  0.0372  0.3036
16325TIP3   OH270465   4.167   1.631   6.265 -0.4270 -0.2338  0.0686
16325TIP3    H170466   4.169   1.725   6.284 -0.8540 -0.0694 -0.6868
16325TIP3    H270467   4.159   1.626   6.170 -0.7264 -1.0378  0.1320
16326TIP3   OH270468   4.654   5.145  16.051 -0.1008 -0.0115  0.2955
16326TIP3    H170469   4.654   5.089  16.128  1.5273 -1.8438 -0.9899
16326TIP3    H270470   4.659   5.234  16.086  1.5373 -0.8597  2.2889
16327TIP3   OH270471   0.671   5.157  10.626 -0.2393  0.3255  0.4323
16327TIP3    H170472   0.604   5.208  10.579 -1.7648 -0.0415  2.1821
16327TIP3    H270473   0.624   5.083  10.662  1.6941 -1.5517 -0.7693
16328TIP3   OH270474   0.725   3.019   3.853 -0.2065  0.2911 -0.2331
16328TIP3    H170475   0.811   2.997   3.889  0.7417 -0.0292 -2.5762
16328TIP3    H270476   0.709   3.109   3.882  1.4507  0.7573 -0.7094
16329TIP3   OH270477   4.948   0.065  10.566  0.4481  0.0230 -0.2537
16329TIP3    H170478   4.982   0.097  10.650 -1.1320  0.4902  0.2257
16329TIP3    H270479   4.859   0.035  10.587  1.0349 -2.4236 -1.1943
16330TIP3   OH270480   1.837   1.157  11.855 -0.1345 -0.8750  0.2235
16330TIP3    H170481   1.859   1.169  11.947  0.2953 -0.3359  0.0535
16330TIP3    H270482   1.833   1.245  11.819  0.8820 -1.1277 -0.5375
16331TIP3   OH270483   3.372   0.090   4.459  0.5483  0.2854  0.4002
16331TIP3    H170484   3.358   0.002   4.494  0.8567  0.1993  0.3115
16331TIP3    H270485   3.465   0.106   4.472  0.2110  1.1804  1.7447
16332TIP3   OH270486   1.895   6.663  14.453 -0.2818 -0.9641 -0.3596
16332TIP3    H170487   1.870   6.571  14.445  0.9062 -1.3483  0.2086
16332TIP3    H270488   1.815   6.708  14.480 -0.3538 -2.1730  1.4833
16333TIP3   OH270489   0.756   5.108   3.836  0.2939 -0.2058  0.2467
16333TIP3    H170490   0.694   5.181   3.831 -0.4603 -0.7379  1.6829
16333TIP3    H270491   0.791   5.112   3.925  0.8131 -1.1376  0.0899
16334TIP3   OH270492   0.313   4.320  13.897 -0.3347  0.0996 -0.7556
16334TIP3    H170493   0.298   4.371  13.818 -2.4343 -0.9844 -1.0883
16334TIP3    H270494   0.232   4.271  13.910  0.8436 -1.5255  0.7433
16335TIP3   OH270495   4.324   0.276   0.902  0.4866  0.0182 -0.2284
16335TIP3    H170496   4.266   0.301   0.830  0.0075 -4.1279 -1.4434
16335TIP3    H270497   4.406   0.250   0.859  1.4412  0.9110  1.0345
16336TIP3   OH270498   3.508   2.080   5.013 -0.0446  0.0618  0.7517
16336TIP3    H170499   3.425   2.114   5.045 -1.4292 -0.7425 -1.8423
16336TIP3    H270500   3.568   2.154   5.019 -1.6104  1.4006  0.2017
16337TIP3   OH270501   6.291   0.286   4.865  0.0515 -0.0366  0.2791
16337TIP3    H170502   6.378   0.277   4.824 -0.2090  0.4265 -0.3892
16337TIP3    H270503   6.251   0.199   4.854 -0.1824  0.2014 -0.8508
16338TIP3   OH270504   0.535   3.369  16.001 -0.6258  0.4737 -0.4309
16338TIP3    H170505   0.446   3.348  16.028 -0.6972  1.7473  0.3645
16338TIP3    H270506   0.538   3.465  15.999  0.9089  0.4503  0.1814
16339TIP3   OH270507   1.203   4.336  11.628 -0.7994 -0.4212  0.0481
16339TIP3    H170508   1.201   4.249  11.589 -2.7722 -0.3103 -0.1712
16339TIP3    H270509   1.114   4.349  11.661 -0.3933  1.3198  0.5043
16340TIP3   OH270510   3.736   2.687  11.278 -0.0306  0.1058 -0.3425
16340TIP3    H170511   3.717   2.724  11.364 -0.1820  0.5242 -0.5523
16340TIP3    H270512   3.674   2.731  11.219 -1.0931 -1.4370 -0.3948
16341TIP3   OH270513   3.189   5.570   1.980  0.6474 -0.8978 -0.6518
16341TIP3    H170514   3.194   5.475   1.990 -1.2041 -0.7784  1.9376
16341TIP3    H270515   3.181   5.603   2.069 -1.0847  1.5137 -1.6588
16342TIP3   OH270516   5.969   2.411  12.179 -0.1982 -0.0002  0.3473
16342TIP3    H170517   6.003   2.495  12.208 -0.6772 -0.3325  1.8910
16342TIP3    H270518   5.876   2.426  12.165 -0.7000 -0.7697  2.6463
16343TIP3   OH270519   4.247   1.401   2.911 -0.2007  0.6702  0.1622
16343TIP3    H170520   4.223   1.343   2.838  1.0756 -1.5653  1.4675
16343TIP3    H270521   4.164   1.418   2.956 -0.8204  1.1200 -1.1428
16344TIP3   OH270522   2.766   4.785  16.813 -1.0040 -0.4725  0.4565
16344TIP3    H170523   2.770   4.774  16.908 -1.2661 -0.3146  0.4847
16344TIP3    H270524   2.673   4.779  16.792 -1.0958  1.0596  0.3941
16345TIP3   OH270525   0.249   0.123   4.899  0.1609  0.2125 -1.0564
16345TIP3    H170526   0.332   0.086   4.930 -1.1203 -1.0372  0.9523
16345TIP3    H270527   0.269   0.216   4.886  1.8906 -0.0665 -0.6098
16346TIP3   OH270528   6.693   3.373   0.657 -0.2194  0.1619  0.1836
16346TIP3    H170529   6.711   3.413   0.742  1.0065 -2.2296  1.0910
16346TIP3    H270530   6.742   3.427   0.594 -0.2306  1.2610  1.0994
16347TIP3   OH270531   0.120   0.592  16.761 -0.7461 -0.4561 -0.2785
16347TIP3    H170532   0.176   0.515  16.760  0.6510  0.5356 -1.5050
16347TIP3    H270533   0.116   0.618  16.853  0.0083 -1.1204 -0.0558
16348TIP3   OH270534   2.327   3.251  15.554 -0.5079 -0.3228 -0.1800
16348TIP3    H170535   2.329   3.158  15.531  1.2771 -1.0914  2.7486
16348TIP3    H270536   2.292   3.253  15.643  2.2678  1.5072  0.9413
16349TIP3   OH270537   0.675   2.172  11.065 -0.2995  0.3625  0.3341
16349TIP3    H170538   0.629   2.160  10.981 -0.9760  1.9095  0.4520
16349TIP3    H270539   0.621   2.235  11.113  0.9149  0.7042  1.2937
16350TIP3   OH270540   2.973   5.801  16.087  0.3323  0.3838 -0.0146
16350TIP3    H170541   3.015   5.725  16.048 -1.6619 -0.3213 -0.8413
16350TIP3    H270542   3.022   5.816  16.168  1.4656 -1.0633 -0.4007
16351TIP3   OH270543   4.482   0.510  16.289 -0.2272 -0.0598  0.1967
16351TIP3    H170544   4.462   0.433  16.342 -0.3539 -2.1604 -2.8105
16351TIP3    H270545   4.572   0.496  16.259 -0.1226  1.1662 -0.0866
16352TIP3   OH270546   6.051   0.732  12.450  0.4486  0.0705  0.4785
16352TIP3    H170547   5.985   0.801  12.456  0.4769  0.0982  0.4738
16352TIP3    H270548   6.134   0.776  12.465  0.5032  0.1119  0.0563
16353TIP3   OH270549   6.048   6.583   1.145  0.1720 -0.2007  0.3755
16353TIP3    H170550   6.112   6.645   1.110 -0.6497 -0.4697 -1.6370
16353TIP3    H270551   6.066   6.501   1.100 -0.7975 -0.6103  0.7175
16354TIP3   OH270552   1.966   6.334   5.187 -0.3499 -0.5994  0.2097
16354TIP3    H170553   2.025   6.358   5.258 -0.9518  1.9058 -0.0949
16354TIP3    H270554   1.924   6.253   5.218  1.7406 -1.3199  1.2770
16355TIP3   OH270555   1.889   5.278  15.191  0.3066  0.1149 -0.2132
16355TIP3    H170556   1.808   5.329  15.194 -1.3541 -2.5012  2.6871
16355TIP3    H270557   1.950   5.326  15.247 -0.6887 -0.1613  1.1398
16356TIP3   OH270558   5.528   4.916   0.394 -0.1966 -0.0217  0.0635
16356TIP3    H170559   5.552   4.833   0.353  0.0660  0.7123 -1.2894
16356TIP3    H270560   5.527   4.979   0.322  0.3100  1.2943  1.1920
16357TIP3   OH270561   4.013   5.559   3.538  0.2914 -0.0725 -0.6493
16357TIP3    H170562   3.952   5.548   3.611  1.1287 -0.5285 -0.0129
16357TIP3    H270563   3.964   5.611   3.474  0.5019  2.7361  1.3833
16358TIP3   OH270564   0.025   4.901  11.582 -0.1531 -0.6382 -0.1414
16358TIP3    H170565   0.044   4.995  11.580 -2.0981 -0.2281 -1.5681
16358TIP3    H270566   0.020   4.876  11.490 -1.0998 -1.8096  0.2185
16359TIP3   OH270567   2.635   3.995   3.508  0.5553  0.0817 -0.0831
16359TIP3    H170568   2.573   3.973   3.578  0.5980 -1.8605 -0.6194
16359TIP3    H270569   2.580   4.012   3.432  0.4714  2.9338  0.5872
16360TIP3   OH270570   5.568   3.045  15.977 -0.3887 -0.2325  0.2339
16360TIP3    H170571   5.480   3.081  15.966 -1.2810 -2.8143 -1.6159
16360TIP3    H270572   5.614   3.070  15.897  0.0543 -0.2220  0.4937
16361TIP3   OH270573   0.852   1.820   3.528 -0.4169  0.6832 -0.5892
16361TIP3    H170574   0.891   1.806   3.614  1.3296 -2.9593 -1.8802
16361TIP3    H270575   0.772   1.869   3.546 -0.5335 -0.7471  3.2370
16362TIP3   OH270576   2.430   0.578  12.452  0.2899 -0.3611  0.7478
16362TIP3    H170577   2.478   0.659  12.471  2.4634 -1.5331  0.3376
16362TIP3    H270578   2.469   0.545  12.372 -0.4000 -1.9951  1.0688
16363TIP3   OH270579   1.334   6.660   2.772 -0.0377  0.3395  0.3693
16363TIP3    H170580   1.415   6.609   2.766 -0.0968  0.3685 -0.8627
16363TIP3    H270581   1.274   6.605   2.823  0.4078 -0.1419  0.3768
16364TIP3   OH270582   1.122   5.480   6.715  0.3190  0.2924 -0.4320
16364TIP3    H170583   1.030   5.508   6.720  0.0038 -0.4788 -1.5403
16364TIP3    H270584   1.124   5.398   6.764  0.3849  0.2431 -0.5179
16365TIP3   OH270585   6.109   4.203  10.859  0.0842  0.0090 -0.5084
16365TIP3    H170586   6.196   4.162  10.864 -0.6262 -1.4267  0.5698
16365TIP3    H270587   6.061   4.150  10.796  0.2167  1.2681 -1.6819
16366TIP3   OH270588   5.603   2.850  15.303  0.6673 -0.1790 -0.0250
16366TIP3    H170589   5.631   2.902  15.228  1.0952  0.3002  0.4719
16366TIP3    H270590   5.661   2.774  15.303  0.5657 -0.2592 -0.2626
16367TIP3   OH270591   3.431   5.117  14.613 -0.0560 -0.4345 -0.5006
16367TIP3    H170592   3.398   5.039  14.569 -0.2836 -1.2435  1.0685
16367TIP3    H270593   3.493   5.084  14.678  0.8773  0.7970 -0.7395
16368TIP3   OH270594   1.131   3.526  12.074 -0.4019  0.3425  0.4983
16368TIP3    H170595   1.141   3.525  11.979 -0.7117 -1.6594  0.4597
16368TIP3    H270596   1.178   3.605  12.102  1.1654  0.0477 -1.1687
16369TIP3   OH270597   6.449   1.109   4.815  0.3989 -0.1380  0.3088
16369TIP3    H170598   6.500   1.186   4.843 -1.4437  1.4124 -0.4570
16369TIP3    H270599   6.515   1.043   4.796  1.9919  0.8927  2.0297
16370TIP3   OH270600   4.800   6.457  11.983 -0.2465 -0.4366 -0.6772
16370TIP3    H170601   4.766   6.466  12.072 -2.5413 -2.5369 -1.2801
16370TIP3    H270602   4.751   6.522  11.932  2.5127  2.2011 -0.1004
16371TIP3   OH270603   1.581   5.482  14.945  0.1521  0.1431  0.5078
16371TIP3    H170604   1.671   5.460  14.922 -0.0877 -1.0656  0.7102
16371TIP3    H270605   1.552   5.411  15.002 -0.8310  0.6863  0.7028
16372TIP3   OH270606   3.715   0.612  13.364  0.1636  0.3375  0.1192
16372TIP3    H170607   3.638   0.555  13.361  0.8267 -0.5073 -2.0029
16372TIP3    H270608   3.706   0.660  13.446 -0.5743 -2.6445  1.8802
16373TIP3   OH270609   0.372   4.938  16.440  0.6006  0.0410 -0.2537
16373TIP3    H170610   0.427   4.869  16.402 -0.7430  0.2392 -2.7082
16373TIP3    H270611   0.433   5.006  16.466  1.7606 -1.0804  0.0095
16374TIP3   OH270612   1.331   2.791   4.233  0.4486 -0.0059  0.5055
16374TIP3    H170613   1.321   2.742   4.152  0.3392 -0.9075  1.0529
16374TIP3    H270614   1.411   2.842   4.220 -0.3341  0.9305 -0.7004
16375TIP3   OH270615   3.492   6.446  16.982  0.0275  0.2120  0.2027
16375TIP3    H170616   3.451   6.513  16.927 -0.4821 -1.6705 -1.7607
16375TIP3    H270617   3.573   6.424  16.937 -0.8392 -2.0188 -0.3486
16376TIP3   OH270618   0.426   0.374   5.862  0.5420 -0.3922 -0.8090
16376TIP3    H170619   0.499   0.427   5.829 -0.1553 -1.8339 -5.0178
16376TIP3    H270620   0.348   0.420   5.831 -0.2421 -0.9193  0.3552
16377TIP3   OH270621   6.662   0.562   1.303 -0.2970  0.1836 -0.7268
16377TIP3    H170622   6.703   0.483   1.337 -0.5184 -0.4365 -1.8676
16377TIP3    H270623   6.711   0.634   1.343  0.6825 -0.5334 -0.6181
16378TIP3   OH270624   2.920   6.502   4.758 -0.3538  0.0031 -0.0446
16378TIP3    H170625   2.898   6.410   4.745 -1.2666  0.1487  0.4501
16378TIP3    H270626   2.868   6.529   4.833 -1.5560  1.4394 -1.3661
16379TIP3   OH270627   0.179   3.603   0.550 -0.3355  0.7240 -0.5284
16379TIP3    H170628   0.242   3.554   0.603 -1.4722  3.2448  3.3429
16379TIP3    H270629   0.146   3.539   0.487  2.4151 -1.9219  0.5907
16380TIP3   OH270630   4.440   0.679  11.782 -0.2679  0.1683 -0.5062
16380TIP3    H170631   4.378   0.720  11.721 -0.7136 -0.2791 -0.3614
16380TIP3    H270632   4.395   0.683  11.867  1.2997  2.8643  0.2474
16381TIP3   OH270633   3.398   3.122   1.933  0.4153 -0.0546  0.2343
16381TIP3    H170634   3.418   3.034   1.966  1.4474  0.1143  0.0985
16381TIP3    H270635   3.316   3.146   1.975  1.0193 -0.3939  1.6437
16382TIP3   OH270636   3.213   0.290  12.511  0.1553  0.4173  0.1633
16382TIP3    H170637   3.133   0.286  12.563  0.2050  0.0748  0.2114
16382TIP3    H270638   3.282   0.262  12.570  0.0288 -1.2788 -0.4692
16383TIP3   OH270639   3.250   2.220   4.705 -0.6582  0.6127 -0.0429
16383TIP3    H170640   3.294   2.304   4.715 -0.7066  0.4694  1.6176
16383TIP3    H270641   3.189   2.215   4.780 -2.0521 -0.0546 -1.1906
16384TIP3   OH270642   4.890   5.577  14.970  0.3324 -0.5850 -0.2192
16384TIP3    H170643   4.803   5.607  14.941  1.9426  2.2136 -2.3600
16384TIP3    H270644   4.909   5.502  14.914 -0.0224 -0.1789 -0.8962
16385TIP3   OH270645   4.288   4.962   1.146 -0.3425 -0.6086  0.2116
16385TIP3    H170646   4.208   4.911   1.135 -1.0385  0.6077 -0.5011
16385TIP3    H270647   4.328   4.927   1.226 -1.6508 -1.1267  0.6497
16386TIP3   OH270648   0.090   3.371   3.939  0.0424  0.7302 -0.5766
16386TIP3    H170649   0.023   3.398   4.002 -0.1885  0.2550 -0.6194
16386TIP3    H270650   0.164   3.345   3.992 -0.2371  0.1007 -0.4898
16387TIP3   OH270651   6.725   1.022  16.341 -1.0155  0.2102 -0.2581
16387TIP3    H170652   6.797   0.960  16.324  1.8673  3.2094  0.5268
16387TIP3    H270653   6.724   1.032  16.436 -0.6038  2.2650 -0.4517
16388TIP3   OH270654   0.199   5.521  12.182 -0.3213  0.3303  0.6650
16388TIP3    H170655   0.194   5.544  12.089  0.6485 -0.3404  0.4316
16388TIP3    H270656   0.293   5.522  12.201 -0.4710 -0.2965  1.4389
16389TIP3   OH270657   0.429   5.408  12.636 -0.7532 -0.7795 -0.4387
16389TIP3    H170658   0.342   5.372  12.649  0.0132 -2.3845  0.3601
16389TIP3    H270659   0.488   5.343  12.674  1.0414 -1.4521 -4.2028
16390TIP3   OH270660   3.872   3.932   3.272 -0.2904  0.3452 -0.0238
16390TIP3    H170661   3.781   3.945   3.245 -0.2510 -0.0460 -0.3543
16390TIP3    H270662   3.868   3.865   3.340 -0.2909  0.6273  0.2541
16391TIP3   OH270663   5.569   5.182  15.239  0.1357  0.4064  0.0023
16391TIP3    H170664   5.582   5.238  15.163 -0.1973 -1.4529 -1.4544
16391TIP3    H270665   5.489   5.133  15.219 -0.4718  0.5581  1.9655
16392TIP3   OH270666   1.732   4.091   4.724 -0.4022 -0.2491 -0.1909
16392TIP3    H170667   1.721   4.184   4.701 -1.4520 -0.5438 -0.9031
16392TIP3    H270668   1.673   4.077   4.798 -2.2168 -0.9510 -1.7146
16393TIP3   OH270669   4.511   2.453  11.696  0.1534 -0.1507 -0.0664
16393TIP3    H170670   4.557   2.372  11.719  3.0347  0.9296 -1.7888
16393TIP3    H270671   4.436   2.423  11.644  0.1567 -1.8001  0.8287
16394TIP3   OH270672   3.003   1.834  11.254 -0.2639  0.0055 -0.0623
16394TIP3    H170673   3.015   1.743  11.279  2.4671  0.4509  0.4202
16394TIP3    H270674   3.014   1.835  11.159  4.3221  0.4077  0.3578
16395TIP3   OH270675   6.092   5.396  17.221  0.4969  0.1870 -0.0798
16395TIP3    H170676   6.043   5.320  17.253  1.5281 -0.9818 -1.2262
16395TIP3    H270677   6.027   5.451  17.178 -0.1691 -0.3301  0.2692
16396TIP3   OH270678   1.034   6.454  11.833  0.6813  0.4788  0.5070
16396TIP3    H170679   1.061   6.396  11.762  0.7758  0.2347  0.7424
16396TIP3    H270680   1.068   6.413  11.913 -1.7683 -0.7153  0.9914
16397TIP3   OH270681   5.743   4.571   2.442  0.6351 -0.3433 -0.7376
16397TIP3    H170682   5.769   4.595   2.353  0.2408 -1.9511 -1.3116
16397TIP3    H270683   5.678   4.502   2.429 -0.2199  0.1586  0.7841
16398TIP3   OH270684   2.288   0.349  14.153  0.0848 -0.1433 -0.0121
16398TIP3    H170685   2.338   0.290  14.097 -0.4955 -0.6102 -0.0417
16398TIP3    H270686   2.204   0.359  14.108  0.6719  1.8396 -0.7616
16399TIP3   OH270687   2.124   5.045   2.625  0.5041 -0.0090 -0.1135
16399TIP3    H170688   2.184   5.100   2.574  1.6101 -1.1975 -0.1030
16399TIP3    H270689   2.059   5.107   2.659  1.4031  1.2139 -0.5684
16400TIP3   OH270690   2.045   6.220  12.568  0.3306  0.0907  0.4111
16400TIP3    H170691   2.132   6.224  12.608  0.1151 -0.3646  0.9294
16400TIP3    H270692   2.021   6.312  12.554  1.2206  0.1986 -0.4622
16401TIP3   OH270693   6.803   5.835   5.046 -0.2168 -0.3109 -0.4119
16401TIP3    H170694   6.842   5.910   5.092 -0.4976  0.0393 -0.7393
16401TIP3    H270695   6.862   5.820   4.972 -0.8432  0.3882 -1.0580
16402TIP3   OH270696   1.678   1.358   5.259 -0.0988 -0.6828 -0.0011
16402TIP3    H170697   1.584   1.377   5.251 -0.6708 -1.8430  2.9552
16402TIP3    H270698   1.708   1.345   5.169 -2.9812 -1.1466 -0.9708
16403TIP3   OH270699   3.394   4.454  12.909 -0.4865  0.5058  0.2677
16403TIP3    H170700   3.318   4.442  12.966 -1.1191  0.2058 -0.6267
16403TIP3    H270701   3.375   4.400  12.832 -0.7986  2.8089 -1.3243
16404TIP3   OH270702   3.813   3.920   2.473  0.1755  0.1112  0.0544
16404TIP3    H170703   3.897   3.894   2.435 -1.3216 -0.0132 -3.4269
16404TIP3    H270704   3.802   4.012   2.448 -1.1853 -0.1763 -0.4910
16405TIP3   OH270705   1.084   6.121  14.227 -0.7355 -0.6248 -0.2616
16405TIP3    H170706   1.075   6.036  14.182 -1.4373 -0.8424  0.2832
16405TIP3    H270707   1.137   6.101  14.304 -1.3874 -0.6886  0.1762
16406TIP3   OH270708   3.143   5.436  16.308  0.0758  0.2466 -0.6748
16406TIP3    H170709   3.130   5.524  16.274  0.9830 -0.0777 -1.8899
16406TIP3    H270710   3.073   5.384  16.269 -0.5944  0.4754  0.2175
16407TIP3   OH270711   6.338   5.448  13.132 -0.1659  0.1578 -0.3606
16407TIP3    H170712   6.357   5.386  13.202  2.5561 -0.5108 -1.6104
16407TIP3    H270713   6.282   5.400  13.071 -0.3904 -0.1393  0.0818
16408TIP3   OH270714   0.169   2.180   0.608 -0.5633 -0.8342  0.2858
16408TIP3    H170715   0.182   2.273   0.588 -1.1009 -0.5564  1.1939
16408TIP3    H270716   0.079   2.162   0.582 -0.2606 -1.2679 -0.4821
16409TIP3   OH270717   6.332   5.414  15.362  0.0355  0.2600  0.4413
16409TIP3    H170718   6.384   5.466  15.300 -0.0031 -0.5480 -0.2686
16409TIP3    H270719   6.388   5.406  15.439  1.1941 -1.0660 -0.5209
16410TIP3   OH270720   3.068   0.232   0.419  0.3885 -0.0706 -0.0961
16410TIP3    H170721   2.980   0.196   0.408  0.0540  0.9013 -0.7211
16410TIP3    H270722   3.092   0.212   0.509 -0.6494  0.0204  0.2047
16411TIP3   OH270723   4.651   6.039  14.829 -0.5789 -0.5171 -0.1054
16411TIP3    H170724   4.681   6.129  14.844  0.9691 -0.6613 -2.1843
16411TIP3    H270725   4.727   5.985  14.849 -1.6623 -1.4390  1.6508
16412TIP3   OH270726   1.243   0.547  13.677 -0.5269  0.2337  0.4980
16412TIP3    H170727   1.174   0.531  13.741  1.0622 -0.3421  2.0849
16412TIP3    H270728   1.229   0.638  13.650 -0.8318  0.6909  2.1317
16413TIP3   OH270729   6.325   1.006   0.773  0.4727 -0.2850  0.7159
16413TIP3    H170730   6.354   0.951   0.845  0.6635  0.5331  1.2772
16413TIP3    H270731   6.231   0.992   0.767  0.5402 -0.7482  0.7881
16414TIP3   OH270732   6.307   6.614   3.063  0.2766  0.1831  0.7292
16414TIP3    H170733   6.396   6.614   3.097  1.1921  2.8415 -1.5034
16414TIP3    H270734   6.307   6.549   2.994  0.9639  1.2834 -0.3325
16415TIP3   OH270735   3.301   1.132   4.473  0.3249  0.0080  0.2407
16415TIP3    H170736   3.248   1.053   4.485  1.7396 -1.0301 -0.1897
16415TIP3    H270737   3.247   1.203   4.507 -0.9098 -1.1683  0.7673
16416TIP3   OH270738   1.087   6.036   4.701 -0.3028 -0.0105 -0.2031
16416TIP3    H170739   1.001   5.996   4.718 -0.0556 -0.3276  0.3165
16416TIP3    H270740   1.081   6.123   4.742 -1.0188  0.7006 -1.7785
16417TIP3   OH270741   2.441   6.337  11.121 -0.6829  0.0151  0.6466
16417TIP3    H170742   2.429   6.249  11.158  1.6489 -0.3422  0.6442
16417TIP3    H270743   2.398   6.333  11.036 -2.0657 -0.5856  1.3505
16418TIP3   OH270744   0.200   0.885  11.226  0.3534  0.0569  0.6959
16418TIP3    H170745   0.223   0.799  11.261 -0.5968  0.0498  1.3359
16418TIP3    H270746   0.224   0.881  11.134 -0.5428 -1.2227  0.4973
16419TIP3   OH270747   1.948   2.281  14.694 -0.8234  0.4728  0.5117
16419TIP3    H170748   1.909   2.195  14.679 -0.0411  0.2243 -0.1586
16419TIP3    H270749   2.016   2.266  14.758  0.1180  0.3619 -0.4977
16420TIP3   OH270750   4.895   2.038  12.078 -0.3717 -0.2101  0.0970
16420TIP3    H170751   4.935   2.064  12.161  0.4905  2.0905 -1.0060
16420TIP3    H270752   4.902   2.116  12.022  0.8550 -2.2870 -2.8095
16421TIP3   OH270753   5.058   2.588   0.709  0.6858  0.2628  0.0165
16421TIP3    H170754   5.020   2.606   0.795  3.0211 -1.1632  1.3867
16421TIP3    H270755   5.121   2.517   0.725  2.2988  1.0657 -2.5786
16422TIP3   OH270756   0.850   0.973  12.970  0.2234  0.7233  0.1882
16422TIP3    H170757   0.799   1.051  12.945  0.4551  0.1984 -1.9686
16422TIP3    H270758   0.811   0.902  12.920  2.7912  0.2209 -1.1578
16423TIP3   OH270759   1.260   6.525   3.056  0.0693  0.3128 -0.2868
16423TIP3    H170760   1.277   6.565   3.141  0.0712  0.3399 -0.2999
16423TIP3    H270761   1.346   6.500   3.023 -0.0774 -1.5134  0.6162
16424TIP3   OH270762   3.009   4.445   4.460  0.5017 -0.6723 -0.2301
16424TIP3    H170763   3.033   4.531   4.492  2.7759 -1.3570 -0.0131
16424TIP3    H270764   2.976   4.460   4.371 -3.2251  0.8941  1.3184
16425TIP3   OH270765   4.935   2.804  11.988  0.1059 -0.1311  0.0640
16425TIP3    H170766   4.867   2.741  11.965 -0.0973 -0.1029  0.5832
16425TIP3    H270767   5.017   2.758  11.970 -0.0519  0.1140 -1.3032
16426TIP3   OH270768   5.108   5.616  11.503  0.3326 -0.2494 -0.6040
16426TIP3    H170769   5.164   5.622  11.580  0.0260 -0.2262 -0.3852
16426TIP3    H270770   5.033   5.564  11.531 -0.0778  0.2846 -0.7094
16427TIP3   OH270771   2.321   2.292  13.916  0.3400 -0.6202 -0.5360
16427TIP3    H170772   2.316   2.373  13.864  0.1226  0.2757  0.8488
16427TIP3    H270773   2.230   2.269  13.933  0.3711 -1.8894 -2.0217
16428TIP3   OH270774   3.870   4.345  10.927  0.0452 -0.4330 -0.5060
16428TIP3    H170775   3.942   4.407  10.919 -0.6116  0.5878  1.2479
16428TIP3    H270776   3.793   4.392  10.895 -1.0426  0.8407  3.6463
16429TIP3   OH270777   1.491   2.057  16.231  0.1384  0.2294  0.1446
16429TIP3    H170778   1.409   2.012  16.248 -0.1417  0.6106 -0.1763
16429TIP3    H270779   1.474   2.148  16.256  0.5811  0.2332  0.4376
16430TIP3   OH270780   3.334   6.750  12.434 -0.0226  0.5541 -0.1784
16430TIP3    H170781   3.306   6.800  12.510 -0.8717 -0.0783 -0.0709
16430TIP3    H270782   3.414   6.704  12.462 -1.6550 -1.5698  1.0980
16431TIP3   OH270783   0.966   2.700   3.565 -0.1359  0.3561  0.0366
16431TIP3    H170784   0.878   2.682   3.598  0.4731 -0.3877  1.2807
16431TIP3    H270785   0.965   2.669   3.475 -1.2656  0.7163 -0.0824
16432TIP3   OH270786   1.925   0.606   2.584 -0.2734  0.4029  0.7638
16432TIP3    H170787   1.889   0.679   2.534  1.5051  0.4976 -0.4597
16432TIP3    H270788   1.920   0.634   2.675  0.7949  2.2796  0.2877
16433TIP3   OH270789   0.317   0.654  12.112 -0.1212  0.0362  0.0773
16433TIP3    H170790   0.350   0.629  12.025  0.0881 -2.1243  0.7504
16433TIP3    H270791   0.395   0.685  12.159 -0.2157  1.1054 -0.4506
16434TIP3   OH270792   3.537   2.472  15.598 -0.2263  0.3053 -0.6130
16434TIP3    H170793   3.463   2.515  15.554 -0.7531 -1.2546 -1.2789
16434TIP3    H270794   3.498   2.396  15.640  0.7016  0.4898  0.5992
16435TIP3   OH270795   2.813   0.294  11.391 -0.6072  0.0058 -0.3959
16435TIP3    H170796   2.907   0.305  11.409 -0.8073 -0.7141  1.1395
16435TIP3    H270797   2.781   0.382  11.374  0.2456  0.3181 -0.4073
16436TIP3   OH270798   4.894   2.173   0.467  0.2228 -0.6239  0.4429
16436TIP3    H170799   4.976   2.129   0.488  0.7852  0.8950  1.5423
16436TIP3    H270800   4.914   2.228   0.392  0.2786 -0.0784  0.8541
16437TIP3   OH270801   3.637   4.711   3.353  0.4484 -0.3351  0.5316
16437TIP3    H170802   3.580   4.635   3.364  0.3669 -0.3701 -0.1162
16437TIP3    H270803   3.578   4.786   3.347  0.5084 -0.2731  0.7060
16438TIP3   OH270804   5.258   3.830  12.107  0.0702  0.5861 -0.3563
16438TIP3    H170805   5.184   3.819  12.048 -1.7810  2.6464  1.4663
16438TIP3    H270806   5.255   3.923  12.131  1.0626 -0.0919  2.5610
16439TIP3   OH270807   2.919   2.513  11.812  0.1747 -0.5610  0.7987
16439TIP3    H170808   2.920   2.418  11.797  3.3167 -0.2315 -1.5324
16439TIP3    H270809   2.930   2.551  11.725  0.3503  1.9138  1.8683
16440TIP3   OH270810   4.428   4.122  16.640  0.0592 -0.1093  0.0746
16440TIP3    H170811   4.518   4.129  16.609 -0.0837  0.4288 -0.2342
16440TIP3    H270812   4.430   4.158  16.729  0.0873  0.2118 -0.0535
16441TIP3   OH270813   4.928   4.814   4.843 -0.1205 -0.0129 -0.2038
16441TIP3    H170814   4.951   4.878   4.776 -0.6428  1.8878  1.3741
16441TIP3    H270815   4.834   4.798   4.829 -0.4089  0.9747  0.5322
16442TIP3   OH270816   2.093   3.347  16.092 -0.8431 -0.1762 -0.2659
16442TIP3    H170817   2.133   3.376  16.010 -0.9930 -2.0065 -1.0057
16442TIP3    H270818   2.159   3.366  16.158  0.5934 -1.6124 -1.2519
16443TIP3   OH270819   4.924   3.085  17.145 -0.0975  0.4349  0.2691
16443TIP3    H170820   4.834   3.073  17.115 -0.2184 -0.3058  0.9170
16443TIP3    H270821   4.916   3.104  17.239  0.3243  1.9824  0.0128
16444TIP3   OH270822   6.735   3.605  15.658  0.5884 -0.0139 -0.5469
16444TIP3    H170823   6.819   3.646  15.676  0.6277 -0.1388 -0.4454
16444TIP3    H270824   6.757   3.515  15.634  0.5463  0.1705 -1.3001
16445TIP3   OH270825   1.904   6.638   2.791 -0.3050  0.1637  0.1716
16445TIP3    H170826   1.836   6.682   2.843 -0.7272 -0.6044  0.2800
16445TIP3    H270827   1.888   6.545   2.805  0.8744 -0.0273  0.3221
16446TIP3   OH270828   5.196   6.091  12.069 -0.0225 -0.0717 -0.4794
16446TIP3    H170829   5.280   6.136  12.064  0.5041 -0.9368  0.2948
16446TIP3    H270830   5.184   6.053  11.982  1.2897 -1.5020 -0.0569
16447TIP3   OH270831   3.936   0.551   2.543 -0.1817  0.7067 -0.4364
16447TIP3    H170832   3.847   0.574   2.514  0.2826  2.0882 -0.8004
16447TIP3    H270833   3.930   0.551   2.638 -1.0026 -0.9799 -0.4666
16448TIP3   OH270834   3.468   0.896  11.886  0.6060 -0.3458  0.3919
16448TIP3    H170835   3.533   0.844  11.838  0.3696  0.9632 -1.4089
16448TIP3    H270836   3.383   0.865  11.853  0.4552  0.8741 -0.4007
16449TIP3   OH270837   0.009   5.341   4.180 -0.5300 -0.0337 -0.1099
16449TIP3    H170838   0.040   5.272   4.121 -0.9690  0.8287 -1.3507
16449TIP3    H270839  -0.083   5.319   4.196 -0.2499 -0.6056  0.7451
16450TIP3   OH270840   4.864   1.487   5.960  0.4095 -0.0011  0.3854
16450TIP3    H170841   4.884   1.418   6.024  2.2407 -0.0594 -0.2169
16450TIP3    H270842   4.858   1.567   6.013  0.9369 -0.2045  0.7614
16451TIP3   OH270843   5.557   3.861   1.809  0.3502 -0.0833  0.0605
16451TIP3    H170844   5.614   3.923   1.764  0.5402  1.4047  2.2658
16451TIP3    H270845   5.615   3.818   1.873 -0.7852  0.8767  1.7686
16452TIP3   OH270846   1.071   3.921   4.085 -0.5698 -0.3200  0.4877
16452TIP3    H170847   1.120   3.981   4.029  1.1113 -0.2733  1.9564
16452TIP3    H270848   0.985   3.961   4.095 -0.4784  0.2719 -1.0553
16453TIP3   OH270849   0.327   5.658  13.836 -0.1319  0.2845  0.2044
16453TIP3    H170850   0.380   5.689  13.762  0.5681  0.7569  0.8897
16453TIP3    H270851   0.391   5.638  13.904 -0.7654 -0.2499  0.6516
16454TIP3   OH270852   6.295   2.228  12.409 -0.0146  0.0100 -0.4704
16454TIP3    H170853   6.272   2.220  12.316  0.8177  2.6146 -0.9556
16454TIP3    H270854   6.384   2.263  12.409  0.4161 -1.0108  1.3404
16455TIP3   OH270855   6.759   6.640  17.098  0.6622  0.3098  0.1049
16455TIP3    H170856   6.782   6.610  17.186  1.1810 -2.0164 -0.7904
16455TIP3    H270857   6.840   6.678  17.064  0.1222  2.3838  1.0795
16456TIP3   OH270858   2.312   2.505  16.580 -0.9545  0.1905 -0.0612
16456TIP3    H170859   2.385   2.510  16.518 -1.7216  0.7432 -0.9495
16456TIP3    H270860   2.308   2.413  16.605 -1.6373 -0.3779 -2.1085
16457TIP3   OH270861   1.286   3.748   3.445 -0.1606  0.0124  0.1885
16457TIP3    H170862   1.323   3.673   3.493 -0.7130  0.0736  0.7066
16457TIP3    H270863   1.348   3.819   3.460 -0.5691  0.1609  1.2024
16458TIP3   OH270864   6.225   3.638   4.734  0.0724  0.4104 -0.0443
16458TIP3    H170865   6.261   3.576   4.669  1.7586  0.0904  1.1667
16458TIP3    H270866   6.164   3.585   4.786  1.3286 -0.2059  0.8333
16459TIP3   OH270867   1.920   0.793  16.245 -0.3053 -0.0860  0.1323
16459TIP3    H170868   1.840   0.744  16.223 -1.3736  1.4218  0.5361
16459TIP3    H270869   1.986   0.758  16.186 -0.1517 -4.3119  2.5483
16460TIP3   OH270870   6.118   0.698   2.153 -0.2241  0.0063 -0.3078
16460TIP3    H170871   6.195   0.752   2.174  0.4194 -1.2430  0.6360
16460TIP3    H270872   6.072   0.747   2.085  1.1843  0.9804 -0.5812
16461TIP3   OH270873   6.681   3.754   3.746  0.7255 -0.2464  0.6329
16461TIP3    H170874   6.647   3.676   3.789 -2.4584  0.7102 -0.0083
16461TIP3    H270875   6.638   3.827   3.791  1.8339  1.0393 -0.3367
16462TIP3   OH270876   2.829   0.586  17.082  0.2484  0.7891 -0.2091
16462TIP3    H170877   2.825   0.498  17.045  0.1848  0.4754  0.5240
16462TIP3    H270878   2.754   0.590  17.142  0.4762  1.2031  0.0530
16463TIP3   OH270879   6.526   2.608  16.646 -0.6811  0.2225 -0.3742
16463TIP3    H170880   6.584   2.667  16.598 -0.9163  0.1855 -0.7066
16463TIP3    H270881   6.497   2.544  16.580 -0.1054 -0.5011  0.0764
16464TIP3   OH270882   4.206   0.074  11.191 -0.3698 -0.0213 -0.6105
16464TIP3    H170883   4.226   0.132  11.265 -0.1716 -1.5634  0.5707
16464TIP3    H270884   4.114   0.091  11.171 -0.2327  0.8958 -0.4525
16465TIP3   OH270885   5.416   4.924   2.350  0.3292 -0.2668  0.5715
16465TIP3    H170886   5.466   4.930   2.269 -0.4506 -0.5789  0.0647
16465TIP3    H270887   5.339   4.871   2.328  0.5740 -1.1439  1.7357
16466TIP3   OH270888   2.700   3.302   0.163  0.2632 -0.5512 -0.2377
16466TIP3    H170889   2.669   3.232   0.106 -0.4781  1.8203 -2.8520
16466TIP3    H270890   2.794   3.307   0.147  0.2991 -0.8759 -0.1291
16467TIP3   OH270891   3.016   3.543  16.788  0.0599  0.2703 -0.1019
16467TIP3    H170892   3.060   3.460  16.772 -0.4468  0.1331 -0.7898
16467TIP3    H270893   2.934   3.537  16.739 -0.4028  0.8093  0.5844
16468TIP3   OH270894   1.344   0.515   2.456 -0.0211  0.0367 -0.6882
16468TIP3    H170895   1.250   0.524   2.473  0.5392  2.3322  1.4103
16468TIP3    H270896   1.371   0.441   2.509 -0.8850 -1.5182 -2.3735
16469TIP3   OH270897   3.393   6.724  16.704  0.0944 -0.5563 -0.7102
16469TIP3    H170898   3.346   6.734  16.787  0.1604 -1.5521 -0.5494
16469TIP3    H270899   3.337   6.666  16.651  1.6411 -2.6883 -0.0952
16470TIP3   OH270900   5.071   2.381   4.611 -0.1666 -0.2759 -0.8604
16470TIP3    H170901   5.130   2.371   4.537  0.7612 -2.2562  0.1129
16470TIP3    H270902   4.983   2.377   4.573  0.2987 -0.7951 -1.8824
16471TIP3   OH270903   6.370   6.523   0.827 -0.3880  0.0064 -0.3604
16471TIP3    H170904   6.408   6.596   0.778 -1.1937  1.6746  1.4471
16471TIP3    H270905   6.401   6.536   0.917 -1.7793 -1.0070  0.2737
16472TIP3   OH270906   0.377   5.238   4.587  0.3443 -0.1330  1.0711
16472TIP3    H170907   0.367   5.157   4.636  0.5788 -1.0169 -0.3309
16472TIP3    H270908   0.291   5.253   4.548  0.3183  0.2606  1.2784
16473TIP3   OH270909   3.105   4.976   1.546  0.0870 -0.9066  0.6102
16473TIP3    H170910   3.132   5.064   1.573 -0.4903 -0.4092 -0.4282
16473TIP3    H270911   3.152   4.961   1.464 -0.7695 -1.0862  0.1539
16474TIP3   OH270912   6.096   2.037   3.053  0.1437  0.2526  0.4884
16474TIP3    H170913   6.116   2.021   2.960  1.3517 -1.3629  1.0006
16474TIP3    H270914   6.163   2.099   3.081 -1.4579  2.3454 -0.2120
16475TIP3   OH270915   2.562   6.027   0.478  0.2669 -0.4724 -0.0598
16475TIP3    H170916   2.528   5.979   0.554  1.1673  1.4240  1.5840
16475TIP3    H270917   2.487   6.034   0.419 -0.5490 -1.6759  0.8055
16476TIP3   OH270918   6.168   5.919   0.593 -0.2870 -0.5812  0.0805
16476TIP3    H170919   6.163   5.823   0.601 -0.6890 -0.6552 -0.9055
16476TIP3    H270920   6.214   5.933   0.510  1.6132  0.1002  1.2166
16477TIP3   OH270921   4.718   6.662  15.044  0.2964 -0.2460  0.0377
16477TIP3    H170922   4.685   6.581  15.083  0.0151  0.8604  2.2220
16477TIP3    H270923   4.641   6.717  15.034  0.6318  0.1452 -0.3992
16478TIP3   OH270924   1.870   4.486  12.346 -0.1142 -0.2916  0.4175
16478TIP3    H170925   1.921   4.418  12.390 -0.1203  0.0373  0.9465
16478TIP3    H270926   1.933   4.556  12.328 -0.2357 -0.1759  0.4403
16479TIP3   OH270927   0.964   6.625   3.124  0.5680 -0.1213 -0.0611
16479TIP3    H170928   0.955   6.609   3.030  0.6042 -0.1145 -0.0658
16479TIP3    H270929   1.057   6.642   3.137  0.6528 -0.6606  0.0583
16480TIP3   OH270930   0.017   6.215  12.088 -0.7775 -0.5869  0.7718
16480TIP3    H170931  -0.010   6.289  12.143 -1.7412  0.9513 -1.6778
16480TIP3    H270932  -0.050   6.148  12.104 -0.6378 -0.4434  2.0095
16481TIP3   OH270933   2.154   4.245   3.779 -0.7131  0.0176 -0.6148
16481TIP3    H170934   2.195   4.200   3.706  3.0001  1.1422  0.6880
16481TIP3    H270935   2.185   4.199   3.857 -0.9055  1.6467  0.4697
16482TIP3   OH270936   3.721   0.399   5.740 -0.0546 -0.7185  0.0520
16482TIP3    H170937   3.695   0.487   5.767 -0.1851 -0.3478 -1.2668
16482TIP3    H270938   3.817   0.401   5.745  0.0211 -0.0225 -1.4021
16483TIP3   OH270939   2.964   4.397   0.036 -0.2029  0.5004  0.4470
16483TIP3    H170940   3.046   4.390   0.085  1.6464  0.3115 -2.5850
16483TIP3    H270941   2.984   4.453  -0.039 -2.2934 -1.1655 -1.4464
16484TIP3   OH270942   6.058   0.789   5.628  0.1910  0.0768  0.0144
16484TIP3    H170943   5.994   0.837   5.575 -0.5900  0.0366  0.9110
16484TIP3    H270944   6.009   0.762   5.706  0.9793 -1.0205  0.1358
16485TIP3   OH270945   1.705   1.285   3.790  0.0696 -0.2209  0.0823
16485TIP3    H170946   1.685   1.295   3.883  0.3467 -0.5435  0.1776
16485TIP3    H270947   1.745   1.198   3.784  2.2039  0.7259  0.0396
16486TIP3   OH270948   3.557   1.032  11.087 -0.8612 -0.3269 -0.8569
16486TIP3    H170949   3.559   1.113  11.035 -0.0370  0.0421 -0.2596
16486TIP3    H270950   3.572   0.962  11.023 -1.3548  0.0072 -1.3408
16487TIP3   OH270951   6.739   5.222  14.179  0.3298  0.0049 -0.3730
16487TIP3    H170952   6.808   5.173  14.136  1.8453  2.3011 -0.6293
16487TIP3    H270953   6.666   5.221  14.117  0.3555 -1.8229 -0.3925
16488TIP3   OH270954   4.349   2.661  13.957  0.6350 -0.0337  0.1259
16488TIP3    H170955   4.377   2.594  14.018  1.5560  0.2882  0.0669
16488TIP3    H270956   4.260   2.636  13.932 -0.3442  0.6514  2.7506
16489TIP3   OH270957   6.251   0.657   4.898  0.1298  0.2456 -0.2914
16489TIP3    H170958   6.343   0.684   4.904  0.6993 -1.5915 -0.4803
16489TIP3    H270959   6.222   0.650   4.989 -0.4872  2.9121 -0.2343
16490TIP3   OH270960   5.794   2.531   0.825 -0.6067 -0.6413  0.5287
16490TIP3    H170961   5.804   2.559   0.916 -0.6230  0.3576  0.2297
16490TIP3    H270962   5.752   2.605   0.781 -0.6889 -1.1536 -0.2728
16491TIP3   OH270963   0.192   4.210  12.993  0.3887  0.2091 -0.3353
16491TIP3    H170964   0.226   4.124  13.018 -0.5675  0.1932  0.9179
16491TIP3    H270965   0.100   4.208  13.019 -0.0633  1.0124 -1.8162
16492TIP3   OH270966   0.366   5.430   2.319  0.2362 -0.3861  0.9063
16492TIP3    H170967   0.285   5.381   2.323  0.4046 -0.7505  0.0275
16492TIP3    H270968   0.414   5.391   2.246  0.6089  0.7129  0.5554
16493TIP3   OH270969   2.758   5.686   2.765  0.0072 -0.1317  0.3609
16493TIP3    H170970   2.796   5.638   2.691  0.2416  2.2033 -1.0701
16493TIP3    H270971   2.818   5.671   2.838  2.1670  1.1972 -1.1223
16494TIP3   OH270972   5.820   2.906   3.361 -0.3095  0.3360  0.0887
16494TIP3    H170973   5.821   2.986   3.308  1.3701  0.5571  0.4122
16494TIP3    H270974   5.745   2.857   3.329 -2.4891  2.8818  1.1736
16495TIP3   OH270975   2.512   1.555  14.906 -0.1419  0.2398  0.3838
16495TIP3    H170976   2.503   1.537  14.812 -0.2917  0.9399  0.2586
16495TIP3    H270977   2.577   1.625  14.911 -0.0312  0.1082  0.8130
16496TIP3   OH270978   0.063   6.556   2.945 -0.1769 -0.4339 -0.0626
16496TIP3    H170979   0.044   6.533   2.854 -0.1741 -0.8481  0.0392
16496TIP3    H270980   0.155   6.534   2.957  0.4239  1.6941 -0.5921
16497TIP3   OH270981   5.416   1.046   3.887 -0.0060 -0.0909 -0.0088
16497TIP3    H170982   5.376   0.969   3.927 -0.6451  0.9664  1.4003
16497TIP3    H270983   5.491   1.011   3.839 -1.4587 -1.8387 -1.0747
16498TIP3   OH270984   5.504   6.518   2.296 -0.0231 -0.1985  0.5594
16498TIP3    H170985   5.429   6.570   2.267 -0.4347 -1.2161 -0.2113
16498TIP3    H270986   5.466   6.449   2.350  0.4090 -0.4399  0.5574
16499TIP3   OH270987   4.530   5.116   1.539  0.1615 -0.3700  0.4048
16499TIP3    H170988   4.599   5.165   1.584  0.0019  0.0936  0.1452
16499TIP3    H270989   4.462   5.181   1.522  0.4842 -0.4013 -1.0692
16500TIP3   OH270990   5.824   1.302   2.905 -0.5246 -0.1939 -0.0677
16500TIP3    H170991   5.910   1.344   2.916 -1.0427  1.4558 -1.9928
16500TIP3    H270992   5.843   1.208   2.908  0.7733  0.0993  3.5275
16501TIP3   OH270993   3.143   0.416  14.799  0.0127  0.3261  0.0378
16501TIP3    H170994   3.200   0.392  14.725 -1.7607 -0.4795 -1.0936
16501TIP3    H270995   3.100   0.497  14.770  0.4104  0.8170  0.8075
16502TIP3   OH270996   2.578   0.537   1.272  0.4604 -0.4552 -0.0099
16502TIP3    H170997   2.492   0.508   1.302  0.1940 -0.0313 -0.3498
16502TIP3    H270998   2.560   0.586   1.192  1.1254 -1.2590 -0.6543
16503TIP3   OH270999   5.919   6.021   6.849  0.5744  0.2928 -0.4106
16503TIP3    H171000   5.964   5.936   6.856  0.5355  0.3134  0.0844
16503TIP3    H271001   5.851   6.006   6.783  1.0394  0.1454 -0.8679
16504TIP3   OH271002   1.270   3.742  12.209  0.5671  0.4019 -0.5708
16504TIP3    H171003   1.317   3.684  12.269 -0.4506 -1.1372 -1.2276
16504TIP3    H271004   1.337   3.773  12.148  1.0348 -0.5545 -0.5577
16505TIP3   OH271005   4.182   3.248  16.161 -0.3189 -0.1347  0.3916
16505TIP3    H171006   4.169   3.282  16.072  0.9061 -0.4474  0.0753
16505TIP3    H271007   4.174   3.153  16.151 -1.3301 -0.0955  0.8298
16506TIP3   OH271008   1.541   3.682   2.453  0.2002  0.1933  0.0410
16506TIP3    H171009   1.504   3.694   2.365 -0.0201 -1.7424 -0.1428
16506TIP3    H271010   1.489   3.740   2.509 -0.7335  0.2013 -0.8192
16507TIP3   OH271011   0.127   5.080  14.070 -0.5131 -0.3408  0.3370
16507TIP3    H171012   0.137   4.988  14.095 -1.8969 -0.2938  1.1654
16507TIP3    H271013   0.181   5.090  13.992 -0.8516 -2.0252 -0.1408
16508TIP3   OH271014   6.778   5.192   3.746  0.1896  0.2706  0.0411
16508TIP3    H171015   6.805   5.135   3.818  0.7921  0.5124  0.0109
16508TIP3    H271016   6.842   5.263   3.746  0.7062 -0.1794 -1.2714
16509TIP3   OH271017   0.313   4.125   5.899  0.6457  0.4191  0.2484
16509TIP3    H171018   0.313   4.031   5.882 -1.1674  0.4226  0.1447
16509TIP3    H271019   0.396   4.142   5.942  0.3109 -1.4827  1.6771
16510TIP3   OH271020   4.989   1.105  13.059  0.3227  0.0123  0.1121
16510TIP3    H171021   5.009   1.047  12.985  0.9552 -0.4115  0.6130
16510TIP3    H271022   5.064   1.096  13.117 -0.0324  0.5877  0.6601
16511TIP3   OH271023   2.203   3.037   1.407  0.3495 -0.1270 -0.0318
16511TIP3    H171024   2.200   3.102   1.337 -1.3290  1.1408  1.1756
16511TIP3    H271025   2.180   2.954   1.364  0.7380  0.3881 -1.2421
16512TIP3   OH271026   0.769   6.447  16.735  0.2939 -0.1842  0.8895
16512TIP3    H171027   0.846   6.496  16.765 -0.7257  2.8067 -1.1701
16512TIP3    H271028   0.704   6.464  16.803  0.3233  0.3417  0.7921
16513TIP3   OH271029   2.427   1.083  15.339  0.2903 -0.8272  0.0426
16513TIP3    H171030   2.454   1.125  15.258 -2.0708 -0.1631 -0.4349
16513TIP3    H271031   2.508   1.050  15.378  1.6377  0.3708 -1.7220
16514TIP3   OH271032   6.759   5.668  10.488 -0.2525 -0.2737  0.2638
16514TIP3    H171033   6.825   5.638  10.551 -1.5387 -1.0756  1.2556
16514TIP3    H271034   6.732   5.589  10.441 -0.8240 -0.0351  0.1822
16515TIP3   OH271035   4.258   1.312  14.986 -0.6496  0.4752  0.2237
16515TIP3    H171036   4.205   1.286  15.061  0.9202  1.7390  1.8218
16515TIP3    H271037   4.338   1.260  14.993 -1.0713 -0.4180 -1.3734
16516TIP3   OH271038   3.024   6.498   6.289 -0.0927  0.8110 -0.3182
16516TIP3    H171039   3.095   6.472   6.230 -0.7053 -0.4769 -0.4856
16516TIP3    H271040   3.027   6.435   6.361 -2.2429 -0.3884 -1.2425
16517TIP3   OH271041   0.330   4.127   1.243 -0.2044  0.3078  0.0923
16517TIP3    H171042   0.254   4.069   1.237 -0.2562  0.2619  1.2606
16517TIP3    H271043   0.390   4.082   1.302  0.2190  0.9220  0.1288
16518TIP3   OH271044   5.812   3.528  12.102 -0.4546  0.2739 -0.2010
16518TIP3    H171045   5.863   3.607  12.086 -0.1721  0.3636  1.1396
16518TIP3    H271046   5.790   3.531  12.195 -1.1917 -0.7804 -0.3307
16519TIP3   OH271047   4.130   6.122  13.291  0.0135  0.5313 -0.0164
16519TIP3    H171048   4.109   6.048  13.349 -0.6804 -0.7966 -1.9322
16519TIP3    H271049   4.135   6.197  13.350 -0.1178 -0.8867  1.8543
16520TIP3   OH271050   5.944   1.204  14.817 -0.1426  0.5191  0.1052
16520TIP3    H171051   5.868   1.241  14.773 -0.5560  1.9378  1.9638
16520TIP3    H271052   6.019   1.248  14.777 -0.5541  2.3491  1.3371
16521TIP3   OH271053   2.518   2.839  14.179  0.4907  0.4205  0.4831
16521TIP3    H171054   2.564   2.883  14.108  0.7182 -0.0009  0.3693
16521TIP3    H271055   2.586   2.818  14.243  0.2887  0.7905  0.8207
16522TIP3   OH271056   0.018   5.594   0.981 -0.0701 -0.4831  0.4718
16522TIP3    H171057   0.051   5.657   1.044 -2.1390  0.7442  0.3797
16522TIP3    H271058   0.084   5.525   0.979  0.3331 -0.2510  3.5182
16523TIP3   OH271059   0.460   5.125  14.301 -0.2078 -0.6351 -0.4347
16523TIP3    H171060   0.513   5.172  14.237  1.5268  0.6518  1.8756
16523TIP3    H271061   0.474   5.033  14.280 -1.0800 -0.2510 -2.9590
16524TIP3   OH271062   4.854   6.627   0.416  0.8800  0.4596 -0.6010
16524TIP3    H171063   4.791   6.555   0.423  0.7513  0.5664 -0.6776
16524TIP3    H271064   4.874   6.633   0.323  0.5298  0.8375 -0.6526
16525TIP3   OH271065   3.533   5.554  11.633 -0.4686  0.3474  0.1889
16525TIP3    H171066   3.491   5.586  11.553 -0.4324 -0.2789 -0.0823
16525TIP3    H271067   3.560   5.633  11.679  2.0356  0.6606 -1.7437
16526TIP3   OH271068   2.667   5.658  12.685  0.4164  0.5532 -0.2605
16526TIP3    H171069   2.713   5.738  12.712 -0.2520  0.2796  1.8191
16526TIP3    H271070   2.646   5.614  12.768 -4.7834  1.3667 -0.9714
16527TIP3   OH271071   0.519   3.685  16.391 -0.5685  0.2392 -0.4919
16527TIP3    H171072   0.495   3.605  16.345  1.7154 -2.1976  2.3101
16527TIP3    H271073   0.583   3.727  16.334  1.6116 -2.3015 -0.0430
16528TIP3   OH271074   2.440   6.646   5.302  0.2784 -0.2152 -0.1394
16528TIP3    H171075   2.498   6.721   5.316 -0.2906  0.3314 -0.7237
16528TIP3    H271076   2.363   6.683   5.260  0.2709 -1.2317 -1.0250
16529TIP3   OH271077   6.351   2.523  13.246 -0.0278 -0.0280 -0.7359
16529TIP3    H171078   6.301   2.484  13.174  1.5709 -2.9856 -0.3391
16529TIP3    H271079   6.439   2.534  13.210 -0.0555  1.7751 -0.3047
16530TIP3   OH271080   5.469   1.294   0.783 -0.0875 -0.0303 -0.2506
16530TIP3    H171081   5.411   1.309   0.709  0.5099  0.1730 -0.6793
16530TIP3    H271082   5.437   1.355   0.850 -0.7504 -0.3540 -0.2683
16531TIP3   OH271083   5.435   4.659  10.601  0.8345  0.0208  0.6166
16531TIP3    H171084   5.445   4.669  10.506  0.8966  1.7081  0.7948
16531TIP3    H271085   5.407   4.745  10.631  1.7528 -0.2514  2.2637
16532TIP3   OH271086   2.940   0.087   5.999 -0.5225  0.2445  0.2801
16532TIP3    H171087   2.863   0.143   6.004 -1.5922 -1.2615  1.2036
16532TIP3    H271088   2.993   0.125   5.928  0.0710  3.9362  2.5817
16533TIP3   OH271089   3.687   5.844  13.897 -0.4867 -0.0764 -0.4407
16533TIP3    H171090   3.626   5.805  13.960  0.7074 -0.1345  0.7050
16533TIP3    H271091   3.724   5.769  13.851 -0.4876 -0.1071 -0.3902
16534TIP3   OH271092   3.284   1.027   2.502 -0.1670 -0.1736  0.2420
16534TIP3    H171093   3.189   1.024   2.487 -0.6041  0.9553  2.5756
16534TIP3    H271094   3.313   1.103   2.453 -0.9782  1.2975  2.0078
16535TIP3   OH271095   3.144   5.812  12.564 -0.0451  0.2446  0.7727
16535TIP3    H171096   3.177   5.797  12.476 -1.4818  1.6672 -0.0310
16535TIP3    H271097   3.177   5.900  12.587 -0.2688  0.1744  1.3772
16536TIP3   OH271098   4.896   4.271   5.842 -0.2823 -0.4673 -0.4296
16536TIP3    H171099   4.975   4.234   5.883  0.2984 -0.3348 -1.4236
16536TIP3    H271100   4.853   4.318   5.913  1.1361  0.4498 -0.1549
16537TIP3   OH271101   4.646   2.745  14.856 -0.0205 -0.0099  0.1419
16537TIP3    H171102   4.681   2.663  14.821  1.9706  1.2242 -0.8411
16537TIP3    H271103   4.627   2.798  14.778  1.9214  1.7506  0.8413
16538TIP3   OH271104   5.921   0.298   4.039 -0.1263  0.0130 -0.4722
16538TIP3    H171105   5.988   0.278   3.974  0.8812  1.1160  0.1925
16538TIP3    H271106   5.971   0.330   4.115 -1.1413 -2.8028  1.4761
16539TIP3   OH271107   5.815   4.644   5.358  0.4958 -0.0655  0.1368
16539TIP3    H171108   5.837   4.643   5.265  1.9751  0.6321  0.4601
16539TIP3    H271109   5.896   4.620   5.402  0.0183  0.3713  1.2828
16540TIP3   OH271110   6.032   3.427   4.765 -0.0922 -0.1505 -0.7551
16540TIP3    H171111   6.037   3.345   4.715 -2.0707  0.1532 -1.5000
16540TIP3    H271112   5.975   3.406   4.839  1.0281  0.0247  0.1763
16541TIP3   OH271113   4.992   3.228  14.773  0.0120 -0.0333 -0.0076
16541TIP3    H171114   4.977   3.148  14.824  0.4192 -0.0419  0.0972
16541TIP3    H271115   5.054   3.202  14.705  1.1086  0.4930  0.7789
16542TIP3   OH271116   4.831   4.965  10.839  0.1871  0.3578  0.3702
16542TIP3    H171117   4.904   5.023  10.858  0.2769  0.1409  0.7045
16542TIP3    H271118   4.772   5.016  10.784  0.6011  0.5270  0.0883
16543TIP3   OH271119   3.803   3.865  10.547 -0.0948  0.0236  0.7440
16543TIP3    H171120   3.782   3.771  10.547  0.9429 -0.2683 -1.5403
16543TIP3    H271121   3.884   3.871  10.598  0.3828 -0.5127  0.0825
16544TIP3   OH271122   1.173   3.170   3.136  0.2508  0.3215  0.1502
16544TIP3    H171123   1.219   3.252   3.156  1.6300 -0.0489 -1.3819
16544TIP3    H271124   1.235   3.120   3.084 -1.2381 -0.9733 -0.4227
16545TIP3   OH271125   5.299   4.019  11.008 -0.4607  0.1230 -0.0998
16545TIP3    H171126   5.340   3.986  11.087 -1.2407  0.6625  0.5336
16545TIP3    H271127   5.258   4.101  11.034  0.0222  0.7456 -1.2634
16546TIP3   OH271128   3.778   1.805   2.452  0.1361  0.3611  0.3356
16546TIP3    H171129   3.815   1.842   2.372 -1.2892  0.5184 -0.2604
16546TIP3    H271130   3.850   1.754   2.490  0.2100 -1.5365 -2.1688
16547TIP3   OH271131   1.281   3.615   6.104 -0.0639 -0.1327 -0.4864
16547TIP3    H171132   1.277   3.710   6.116 -1.1466  0.0188 -1.9508
16547TIP3    H271133   1.349   3.586   6.165 -0.9559  1.3608  1.2475
16548TIP3   OH271134   1.048   0.585   2.026  0.1868 -0.3185  0.0794
16548TIP3    H171135   0.983   0.585   1.957 -1.4470  1.0704  1.5459
16548TIP3    H271136   1.087   0.673   2.022 -0.4054  0.0153  1.3286
16549TIP3   OH271137   4.452   2.951   4.213  0.0379  0.0002 -0.0753
16549TIP3    H171138   4.358   2.944   4.228  0.2817  0.7893  1.9589
16549TIP3    H271139   4.460   2.993   4.127 -1.4424 -1.4846 -0.9649
16550TIP3   OH271140   4.457   0.065  16.154  0.2194  0.0465 -0.0246
16550TIP3    H171141   4.530   0.018  16.195  1.4407  1.1099 -0.9438
16550TIP3    H271142   4.483   0.157  16.158 -1.6386  0.5512  0.7421
16551TIP3   OH271143   0.308   4.510   5.862 -0.5419  0.5119  0.6051
16551TIP3    H171144   0.238   4.575   5.871 -0.6940  0.5157 -0.5206
16551TIP3    H271145   0.289   4.444   5.929 -1.7342  0.4028  0.1670
16552TIP3   OH271146   6.810   5.419   0.304  0.4661 -0.6072 -0.3569
16552TIP3    H171147   6.833   5.512   0.301 -1.1059 -0.1774  0.0307
16552TIP3    H271148   6.754   5.406   0.227  0.1590 -1.0790 -0.0548
16553TIP3   OH271149   5.981   1.471  12.485 -0.1687 -0.1410  0.5085
16553TIP3    H171150   5.947   1.522  12.412  0.5112 -0.9869 -0.4139
16553TIP3    H271151   5.921   1.488  12.557 -0.3519  1.3995  0.0100
16554TIP3   OH271152   5.981   1.395   3.984 -0.2282 -0.2809  0.2971
16554TIP3    H171153   5.885   1.397   3.990 -0.3076  0.0191 -1.0124
16554TIP3    H271154   6.011   1.439   4.063 -1.1777 -0.4000  0.7275
16555TIP3   OH271155   5.715   4.687  15.739  0.0384  0.0083 -0.4435
16555TIP3    H171156   5.704   4.592  15.742 -0.9968  0.1440  0.4934
16555TIP3    H271157   5.779   4.706  15.807 -0.1677  0.0228 -0.2495
16556TIP3   OH271158   5.251   0.912   2.590  0.3923  0.4254  0.4098
16556TIP3    H171159   5.286   0.997   2.616  0.5396  0.1571  1.1139
16556TIP3    H271160   5.236   0.866   2.673  0.4026 -0.2687  0.0321
16557TIP3   OH271161   2.243   2.704  15.872  0.2385  0.2965 -0.5072
16557TIP3    H171162   2.298   2.628  15.889  0.2642  0.4026 -0.0990
16557TIP3    H271163   2.173   2.698  15.936  0.0949  0.4729 -0.6470
16558TIP3   OH271164   2.089   6.096   2.661 -0.0805  0.1632  0.3121
16558TIP3    H171165   2.173   6.053   2.673  0.0660  0.6219  0.9233
16558TIP3    H271166   2.032   6.027   2.626 -0.0396 -0.7229  1.9403
16559TIP3   OH271167   2.854   2.622   5.320 -0.2669 -0.2771 -0.2443
16559TIP3    H171168   2.931   2.599   5.371 -0.7002 -1.6414 -0.1692
16559TIP3    H271169   2.791   2.656   5.383 -0.5571 -1.3292  0.0389
16560TIP3   OH271170   0.531   4.254   0.640  0.1240  0.6900  0.3606
16560TIP3    H171171   0.546   4.259   0.546 -0.1267  1.8359  0.3771
16560TIP3    H271172   0.611   4.216   0.675 -0.0748 -0.4554 -0.3881
16561TIP3   OH271173   1.542   5.731  13.902  0.0838 -0.1542 -0.2457
16561TIP3    H171174   1.605   5.785  13.950 -0.3998  0.1272  0.0853
16561TIP3    H271175   1.565   5.641  13.924  1.2856 -0.1162 -1.2872
16562TIP3   OH271176   0.097   4.450   0.781 -0.1619 -0.0412  0.5465
16562TIP3    H171177   0.029   4.426   0.718  0.2970  0.6343 -0.2273
16562TIP3    H271178   0.163   4.495   0.728  1.3403 -1.5037  1.1075
16563TIP3   OH271179   2.865   4.162  17.053  0.3881  0.7423 -0.1679
16563TIP3    H171180   2.890   4.252  17.031 -1.3816  1.1033 -0.7638
16563TIP3    H271181   2.786   4.171  17.105 -1.0870 -0.5623 -2.1314
16564TIP3   OH271182   2.258   5.036  14.688 -0.6499 -0.0944 -0.1258
16564TIP3    H171183   2.183   5.058  14.743  0.0012 -1.5626  1.4011
16564TIP3    H271184   2.262   4.941  14.690  0.6127 -0.0759 -1.0621
16565TIP3   OH271185   4.717   3.513   0.256  0.1625 -0.3967  0.0933
16565TIP3    H171186   4.625   3.495   0.239 -0.1271 -1.9860  2.9467
16565TIP3    H271187   4.719   3.604   0.286 -0.3994 -0.2140 -0.4199
16566TIP3   OH271188   5.196   0.995   0.554  0.3145 -0.8608 -0.3541
16566TIP3    H171189   5.287   1.021   0.540  0.1575  0.7277  1.3780
16566TIP3    H271190   5.146   1.075   0.539 -0.6958 -1.4267 -0.0588
16567TIP3   OH271191   4.195   0.419  10.745 -0.1584 -0.1881 -0.2788
16567TIP3    H171192   4.165   0.480  10.678  1.8457  0.0130 -1.0119
16567TIP3    H271193   4.119   0.363  10.762 -1.3867  1.2281 -1.0359
16568TIP3   OH271194   4.476   0.093  11.533  0.5585  0.0811 -0.1858
16568TIP3    H171195   4.510   0.029  11.470  1.0365  2.5960 -2.5739
16568TIP3    H271196   4.540   0.164  11.531 -0.4532  1.0733  1.7331
16569TIP3   OH271197   0.064   1.661  15.096 -0.0338 -0.1486  0.1120
16569TIP3    H171198   0.054   1.621  15.009 -1.0031 -1.2520  0.7123
16569TIP3    H271199   0.123   1.602  15.142  0.9401  0.7468  0.0295
16570TIP3   OH271200   4.980   5.574   6.418  0.3935 -0.4372 -0.7212
16570TIP3    H171201   5.017   5.657   6.390  0.4060  0.6998  2.4553
16570TIP3    H271202   4.888   5.580   6.392  0.3849  0.5900 -0.4927
16571TIP3   OH271203   4.525   0.146  17.291 -0.3377  0.1891  0.0330
16571TIP3    H171204   4.450   0.179  17.341  0.6324  2.8754 -0.2196
16571TIP3    H271205   4.488   0.118  17.208 -1.6999 -2.6728  1.5336
16572TIP3   OH271206   0.738   4.522   4.984 -0.5863 -0.0469  0.1658
16572TIP3    H171207   0.659   4.575   4.992 -0.5589 -0.0134  0.2173
16572TIP3    H271208   0.740   4.495   4.893 -0.8314 -0.3190  0.2375
16573TIP3   OH271209   5.116   6.756  13.382  0.0370 -0.4219  0.2057
16573TIP3    H171210   5.066   6.739  13.302  1.3407  1.3093 -1.0313
16573TIP3    H271211   5.138   6.670  13.416 -1.2123 -1.1823 -0.8709
16574TIP3   OH271212   2.592   1.336  14.246  0.6462  0.1032 -0.0650
16574TIP3    H171213   2.501   1.345  14.274  1.1309  2.2307  0.9426
16574TIP3    H271214   2.612   1.418  14.202  1.7878 -0.7441 -1.1679
16575TIP3   OH271215   5.855   2.800   4.305  0.3581 -0.1814  0.3738
16575TIP3    H171216   5.873   2.893   4.322 -0.8805  0.1498 -0.0932
16575TIP3    H271217   5.885   2.787   4.215  0.5469 -0.2438  0.4451
16576TIP3   OH271218   2.791   5.177  14.430  0.6784  0.4391 -0.4221
16576TIP3    H171219   2.711   5.163  14.378 -1.0099 -2.0341  2.6733
16576TIP3    H271220   2.842   5.098  14.415  0.4139 -0.0522  1.2453
16577TIP3   OH271221   4.723   1.129  16.132 -0.5836  0.3060 -0.2908
16577TIP3    H171222   4.771   1.143  16.213 -0.3666 -0.1505 -0.3421
16577TIP3    H271223   4.632   1.114  16.160 -0.0151 -2.5739  0.0484
16578TIP3   OH271224   5.420   0.220   6.103 -0.3858  0.2657  0.2326
16578TIP3    H171225   5.439   0.156   6.171  1.0180  0.2745 -0.1232
16578TIP3    H271226   5.496   0.279   6.105 -0.5542  0.5361 -1.0078
16579TIP3   OH271227   0.208   5.654   1.227 -0.6972  0.0430 -0.1493
16579TIP3    H171228   0.225   5.562   1.250  0.0580 -0.2006 -1.6259
16579TIP3    H271229   0.283   5.702   1.262 -0.8532  0.0403  0.1940
16580TIP3   OH271230   4.873   3.374  12.915  0.1037 -0.3759 -0.8789
16580TIP3    H171231   4.934   3.446  12.899 -1.1806  1.3068  1.5091
16580TIP3    H271232   4.825   3.364  12.833  0.3070  1.4748 -1.2396
16581TIP3   OH271233   5.371   3.533   0.035 -0.2627 -0.7188 -0.0096
16581TIP3    H171234   5.422   3.453   0.049 -1.4731 -1.4518  0.2187
16581TIP3    H271235   5.425   3.602   0.073  1.1011 -1.3160 -0.7934
16582TIP3   OH271236   2.175   1.087  10.986 -0.2058  0.5051  0.2921
16582TIP3    H171237   2.242   1.129  11.040 -0.8550  1.6569  0.2269
16582TIP3    H271238   2.093   1.125  11.016 -0.9145 -1.3866  0.8222
16583TIP3   OH271239   1.616   6.574   3.329  0.1540 -0.5786 -0.1532
16583TIP3    H171240   1.679   6.609   3.267  0.6836 -0.2822  0.5430
16583TIP3    H271241   1.550   6.642   3.338 -0.7384 -1.2488 -1.5528
16584TIP3   OH271242   2.023   6.454   0.461 -0.2583 -0.7342  0.1596
16584TIP3    H171243   2.078   6.376   0.464  0.9744  0.1141  0.1876
16584TIP3    H271244   2.004   6.466   0.368  0.2413 -0.5970  0.0747
16585TIP3   OH271245   6.520   5.610  16.129  0.7337  0.3243  0.5254
16585TIP3    H171246   6.457   5.677  16.104 -0.5991 -2.1485 -3.0973
16585TIP3    H271247   6.469   5.544  16.174  1.0711 -0.7919 -0.7146
16586TIP3   OH271248   0.183   4.078   4.416 -0.1755 -0.0031  0.5162
16586TIP3    H171249   0.232   4.155   4.442  0.1167 -0.3295  0.9373
16586TIP3    H271250   0.242   4.004   4.431 -0.5236 -0.3320  0.3172
16587TIP3   OH271251   0.970   3.452   0.264  0.0651 -0.5311 -0.5020
16587TIP3    H171252   0.936   3.532   0.303  1.6999 -0.3093  0.5398
16587TIP3    H271253   0.900   3.420   0.208 -1.3918  0.4952  0.7150
16588TIP3   OH271254   1.550   6.454   2.969 -0.2602  0.3735 -0.3552
16588TIP3    H171255   1.569   6.426   3.058 -1.3887  1.6452  0.3122
16588TIP3    H271256   1.568   6.377   2.915 -1.3254 -0.9979  1.1777
16589TIP3   OH271257   4.142   4.157  12.535  0.2431  0.1298  0.0307
16589TIP3    H171258   4.215   4.183  12.479 -0.0546  0.9167  0.0101
16589TIP3    H271259   4.150   4.061  12.541 -0.0462 -0.0277 -1.7834
16590TIP3   OH271260   6.328   1.196  13.155  0.4857 -0.0516  0.2489
16590TIP3    H171261   6.420   1.171  13.146  0.0766 -1.0812 -1.2874
16590TIP3    H271262   6.279   1.121  13.121 -0.9036  0.6964  0.5576
16591TIP3   OH271263   4.043   4.526   5.979 -0.0541 -0.9044 -0.1352
16591TIP3    H171264   3.965   4.505   6.030 -0.7678  1.3908 -0.2291
16591TIP3    H271265   4.106   4.559   6.043  0.0938 -0.7868 -0.3395
16592TIP3   OH271266   6.771   5.858  15.459 -0.0970  0.2670  0.4343
16592TIP3    H171267   6.762   5.767  15.429  0.7513 -0.9891  3.7798
16592TIP3    H271268   6.779   5.909  15.379  2.1319 -2.9120 -1.4529
16593TIP3   OH271269   0.753   2.790   3.027 -0.3798 -0.4979 -0.0918
16593TIP3    H171270   0.735   2.781   3.121  1.0943  0.2443  0.2822
16593TIP3    H271271   0.707   2.870   3.002  2.0163  1.2193  0.7893
16594TIP3   OH271272   0.045   3.813   1.303  0.1116 -0.0168  0.2168
16594TIP3    H171273   0.106   3.808   1.376  0.7138 -0.9200 -0.3364
16594TIP3    H271274   0.101   3.808   1.225 -0.2966  3.2335 -0.3581
16595TIP3   OH271275   1.438   4.808   2.320 -0.5770 -0.5805 -0.0409
16595TIP3    H171276   1.412   4.895   2.350  0.9457  0.1198 -0.6355
16595TIP3    H271277   1.471   4.764   2.398  0.4411  0.0918 -0.0796
16596TIP3   OH271278   0.800   2.118   4.716 -0.4302 -0.0319 -0.3452
16596TIP3    H171279   0.724   2.112   4.774 -1.1231  0.6033 -1.1926
16596TIP3    H271280   0.772   2.076   4.635  0.6432 -1.1980 -0.1376
16597TIP3   OH271281   6.780   4.814   5.239  0.4675  0.1504  0.3280
16597TIP3    H171282   6.852   4.877   5.228 -0.3700  0.8667 -1.0957
16597TIP3    H271283   6.822   4.729   5.232  1.0984  0.5689 -1.1220
16598TIP3   OH271284   3.501   0.326  12.433  0.0233  0.0354  0.3218
16598TIP3    H171285   3.407   0.312  12.425 -0.2624  0.9532  1.9959
16598TIP3    H271286   3.513   0.420  12.417  0.8001 -0.2770 -1.0248
16599TIP3   OH271287   1.299   5.532  15.292  0.0178  0.6428  0.1492
16599TIP3    H171288   1.289   5.625  15.270 -0.1390  0.4928 -0.4288
16599TIP3    H271289   1.249   5.521  15.373 -0.7929  0.8594 -0.3089
16600TIP3   OH271290   1.658   4.619  16.996 -0.1248  0.1642 -0.2653
16600TIP3    H171291   1.569   4.590  16.973 -0.3468  0.6013  0.0521
16600TIP3    H271292   1.714   4.574  16.932 -0.8204  2.1176 -2.3007
16601TIP3   OH271293   3.436   0.261  17.247 -0.0438  0.1204 -0.6985
16601TIP3    H171294   3.406   0.313  17.173 -1.6771 -1.4012 -1.1452
16601TIP3    H271295   3.521   0.226  17.219  0.5514  1.6353 -0.8120
16602TIP3   OH271296   4.662   4.522  16.451 -0.2399 -0.0567  0.5908
16602TIP3    H171297   4.697   4.558  16.532  0.0660 -0.2138  0.5294
16602TIP3    H271298   4.641   4.599  16.398 -1.0112  0.0525  1.0589
16603TIP3   OH271299   0.885   2.419   5.783 -0.5695 -0.0930 -0.0360
16603TIP3    H171300   0.962   2.466   5.817  1.1841 -1.7889 -1.5294
16603TIP3    H271301   0.868   2.458   5.698 -1.9669  0.8929  0.6734
16604TIP3   OH271302   3.720   3.662  15.333 -0.8753  0.4850 -0.1466
16604TIP3    H171303   3.692   3.590  15.390  0.1369  0.3056  0.1400
16604TIP3    H271304   3.718   3.626  15.245  0.7226 -0.2578  0.1048
16605TIP3   OH271305   4.921   6.153   6.577 -0.0613 -0.3241  0.1251
16605TIP3    H171306   4.970   6.087   6.529 -2.4012 -1.5967 -0.5705
16605TIP3    H271307   4.879   6.205   6.509  1.0147  1.3431  0.6942
16606TIP3   OH271308   1.854   5.813   4.565  0.5716  0.3098 -0.0341
16606TIP3    H171309   1.807   5.732   4.545  0.1304  1.2652 -3.1439
16606TIP3    H271310   1.946   5.788   4.563  0.4222 -0.2117 -0.5204
16607TIP3   OH271311   4.640   4.007   0.066 -0.8220  0.3240  0.2917
16607TIP3    H171312   4.614   3.915   0.061 -1.3464  0.4712  0.2942
16607TIP3    H271313   4.589   4.050  -0.003  0.7852  0.2980 -0.9478
16608TIP3   OH271314   3.074   0.723   3.266  0.4288  0.3279 -0.3121
16608TIP3    H171315   3.011   0.657   3.237  1.6359 -0.3424 -1.4363
16608TIP3    H271316   3.024   0.780   3.324 -0.9903 -0.7219 -0.4870
16609TIP3   OH271317   4.070   0.766  10.834  0.2727 -0.6946 -0.6622
16609TIP3    H171318   4.140   0.734  10.891 -0.4221 -1.1151 -0.0281
16609TIP3    H271319   4.114   0.792  10.754  1.3474  0.4391  0.2794
16610TIP3   OH271320   4.219   4.033  10.858  0.2958 -0.3893  0.5984
16610TIP3    H171321   4.197   4.098  10.925  1.0821  0.3713  0.1257
16610TIP3    H271322   4.135   4.015  10.815  0.0972  0.4645  0.6084
16611TIP3   OH271323   0.672   5.516  13.044  0.7623  0.1900 -0.2773
16611TIP3    H171324   0.704   5.606  13.034 -0.1428  0.4714 -0.6796
16611TIP3    H271325   0.578   5.525  13.055  0.5867 -0.7521 -0.9642
16612TIP3   OH271326   2.611   3.498  16.395  0.0359 -0.1109 -0.2779
16612TIP3    H171327   2.608   3.532  16.306 -1.3494 -0.7404 -0.4832
16612TIP3    H271328   2.519   3.482  16.418  0.4387 -0.7690  0.9452
16613TIP3   OH271329   4.595   3.924   3.486 -0.5353  0.0908  0.5256
16613TIP3    H171330   4.606   3.870   3.564 -0.8932 -0.9826 -0.1456
16613TIP3    H271331   4.500   3.928   3.473 -0.4470 -0.5762 -0.4063
16614TIP3   OH271332   1.251   0.240  12.959 -0.4642  0.1155  0.2444
16614TIP3    H171333   1.248   0.218  13.052 -0.9596 -1.2353 -0.0793
16614TIP3    H271334   1.273   0.333  12.957  0.0056  0.0494  1.6954
16615TIP3   OH271335   5.372   4.490   3.140 -0.2408  0.4276  0.6619
16615TIP3    H171336   5.372   4.448   3.226  0.9907 -1.0233 -0.0183
16615TIP3    H271337   5.442   4.554   3.144  0.1618 -0.0019  0.5902
16616TIP3   OH271338   6.183   3.056  13.226 -0.3160  0.1329 -0.6128
16616TIP3    H171339   6.105   3.031  13.276  1.1622 -1.3275  1.0439
16616TIP3    H271340   6.170   3.016  13.140 -1.1533 -0.5367 -0.1843
16617TIP3   OH271341   5.939   6.467  14.463  0.2014  0.1607  0.9608
16617TIP3    H171342   5.855   6.472  14.418  0.5519 -1.6753  0.0476
16617TIP3    H271343   6.002   6.506  14.402  0.6151 -1.9947 -0.0670
16618TIP3   OH271344   1.663   1.675  15.443 -0.0675 -0.7782 -0.2864
16618TIP3    H171345   1.705   1.726  15.373 -1.4535  1.7604  0.6693
16618TIP3    H271346   1.586   1.637  15.402 -0.5623  0.2307 -0.3183
16619TIP3   OH271347   2.758   6.189  11.281  0.4417  0.7702  0.5370
16619TIP3    H171348   2.783   6.123  11.345  0.1588 -0.0312 -0.1790
16619TIP3    H271349   2.838   6.210  11.234  0.6819  1.4668  1.2353
16620TIP3   OH271350   3.112   2.375   3.424 -0.4138  0.9163 -0.1237
16620TIP3    H171351   3.123   2.339   3.336 -0.6190 -0.4788  0.4010
16620TIP3    H271352   3.094   2.298   3.478  0.5308  1.6729  1.2759
16621TIP3   OH271353   0.071   3.814  12.443 -0.4049  0.2459  0.0827
16621TIP3    H171354   0.120   3.861  12.510 -1.7719  1.3720  0.3339
16621TIP3    H271355   0.125   3.819  12.364 -0.7181  2.6913 -0.0196
16622TIP3   OH271356   5.317   2.569   3.797 -0.1347 -0.3962 -0.7291
16622TIP3    H171357   5.407   2.590   3.774 -1.2060  1.2284 -3.7166
16622TIP3    H271358   5.279   2.532   3.718 -1.6828 -2.5282  0.9545
16623TIP3   OH271359   3.465   2.264  13.611 -0.1274  0.2178  0.0204
16623TIP3    H171360   3.373   2.244  13.595 -0.5788  0.7543  1.8533
16623TIP3    H271361   3.485   2.225  13.696  0.9179  1.3781  0.3410
16624TIP3   OH271362   3.335   3.018   5.957 -0.6827 -0.0319  0.4738
16624TIP3    H171363   3.381   3.083   5.904 -1.7592  0.2773 -0.0930
16624TIP3    H271364   3.309   3.066   6.036 -2.6017  0.5849 -0.5107
16625TIP3   OH271365   3.390   0.553   1.081 -0.1594 -0.6406  0.9154
16625TIP3    H171366   3.410   0.628   1.026  0.1410  0.4787  2.5147
16625TIP3    H271367   3.418   0.477   1.029  1.1705  0.4457 -0.0025
16626TIP3   OH271368   1.268   6.625   0.668 -0.3006 -0.0638  0.1690
16626TIP3    H171369   1.272   6.576   0.587  2.1884  0.2758  0.0463
16626TIP3    H271370   1.196   6.687   0.656 -0.7264 -0.8509 -1.2960
16627TIP3   OH271371   6.749   0.653  11.058 -0.2776  0.1130  0.5212
16627TIP3    H171372   6.841   0.629  11.067 -0.3730  0.0895  1.5105
16627TIP3    H271373   6.711   0.584  11.003  0.5568  0.7953 -0.9504
16628TIP3   OH271374   3.771   0.750   6.225 -0.2758  0.0755  0.4769
16628TIP3    H171375   3.849   0.696   6.241 -0.8624 -0.7008  0.7087
16628TIP3    H271376   3.799   0.839   6.248 -0.1514 -0.5274  2.8198
16629TIP3   OH271377   5.249   0.539  16.366 -0.4079  0.1689 -0.2730
16629TIP3    H171378   5.318   0.480  16.336  0.2484  0.1098  1.3064
16629TIP3    H271379   5.194   0.553  16.289 -0.7325 -2.7073 -0.6084
16630TIP3   OH271380   2.273   2.039   4.890  0.2885  0.2090 -0.4085
16630TIP3    H171381   2.283   2.011   4.981  1.2538 -1.8466 -1.1189
16630TIP3    H271382   2.328   2.117   4.883 -2.1035  2.1440  1.4939
16631TIP3   OH271383   1.874   0.840  12.635  0.0222 -0.0417  0.0814
16631TIP3    H171384   1.966   0.838  12.660 -0.2777 -0.0311  1.2415
16631TIP3    H271385   1.827   0.845  12.718 -0.9895  1.0851 -0.5473
16632TIP3   OH271386   4.239   5.033   3.975  0.5337  0.4274  0.0031
16632TIP3    H171387   4.317   5.037   3.920 -0.6627 -0.0510 -1.7963
16632TIP3    H271388   4.173   4.990   3.920 -1.2813  1.6712  1.1224
16633TIP3   OH271389   5.019   0.400   4.852 -0.3429  0.5647 -1.0683
16633TIP3    H171390   5.049   0.479   4.897  1.8143 -0.3542 -0.8533
16633TIP3    H271391   5.083   0.333   4.875 -3.0774 -1.7350  0.1528
16634TIP3   OH271392   3.765   4.513  15.640 -0.1428  0.3361 -0.0356
16634TIP3    H171393   3.673   4.536  15.640  0.5395  3.2062  0.6021
16634TIP3    H271394   3.785   4.488  15.730 -0.6383 -1.9237 -0.5136
16635TIP3   OH271395   5.237   5.705   2.563 -0.3044 -0.1029  0.5051
16635TIP3    H171396   5.307   5.768   2.545  0.0941 -0.6697  0.0250
16635TIP3    H271397   5.268   5.657   2.640 -1.4975  1.5750  2.0638
16636TIP3   OH271398   2.072   1.311   5.591 -0.0201 -0.0630 -0.2755
16636TIP3    H171399   1.990   1.357   5.609  0.1684  0.6850 -1.2413
16636TIP3    H271400   2.125   1.325   5.669 -0.6584 -0.2056  0.1906
16637TIP3   OH271401   6.550   0.762  16.797 -0.5297 -0.1243  0.0853
16637TIP3    H171402   6.519   0.826  16.861 -1.7607  0.4068 -1.0223
16637TIP3    H271403   6.519   0.678  16.829 -0.2788  0.0200  0.7090
16638TIP3   OH271404   6.746   2.036  14.678  0.3412  0.0807  0.0616
16638TIP3    H171405   6.716   2.115  14.634 -1.0864 -1.4565 -1.7961
16638TIP3    H271406   6.698   2.035  14.761 -3.0609 -1.1126 -1.8520
16639TIP3   OH271407   0.746   2.253   1.239  0.0329 -0.0568 -0.1913
16639TIP3    H171408   0.803   2.330   1.238  1.3015 -0.9891 -1.9632
16639TIP3    H271409   0.685   2.270   1.311  0.4931  2.4465 -0.3333
16640TIP3   OH271410   3.823   0.894  14.798 -0.0882 -0.4188  0.2054
16640TIP3    H171411   3.816   0.969  14.857  0.2665 -0.9091  0.8786
16640TIP3    H271412   3.791   0.926  14.714 -0.4550  0.3298  0.6301
16641TIP3   OH271413   5.791   2.315  16.078 -0.1091 -0.3307 -0.2838
16641TIP3    H171414   5.723   2.311  16.146  1.1729 -1.4682  0.9743
16641TIP3    H271415   5.745   2.300  15.996 -1.3591 -1.2341  0.5691
16642TIP3   OH271416   1.181   1.142  15.100  0.1523  0.2515  0.2619
16642TIP3    H171417   1.196   1.197  15.023 -0.0994 -0.1115 -0.0463
16642TIP3    H271418   1.228   1.187  15.170  2.5510 -0.7339 -0.6496
16643TIP3   OH271419   5.141   2.797  12.336 -0.2351  0.1108  0.7082
16643TIP3    H171420   5.107   2.740  12.267 -0.7262  1.6228 -0.3337
16643TIP3    H271421   5.079   2.786  12.408 -0.0096 -1.0963  0.7300
16644TIP3   OH271422   0.694   1.480   1.382 -0.2262  0.7175  0.3644
16644TIP3    H171423   0.779   1.507   1.347 -0.8975  0.5032 -1.4578
16644TIP3    H271424   0.640   1.558   1.374 -0.6313  0.4118  0.1513
16645TIP3   OH271425   6.497   3.082  16.393  0.1622  0.3758  0.0174
16645TIP3    H171426   6.503   3.139  16.316  1.0946 -2.3935 -2.0150
16645TIP3    H271427   6.403   3.069  16.406  0.0258  0.1442 -1.1883
16646TIP3   OH271428   0.002   3.366  12.414 -0.3865  0.1373 -0.1590
16646TIP3    H171429   0.081   3.401  12.374 -0.2991 -1.7736 -1.7395
16646TIP3    H271430  -0.043   3.442  12.449  1.8335  1.3260  0.2032
16647TIP3   OH271431   5.508   5.038  14.972  0.5571 -0.2767 -0.3749
16647TIP3    H171432   5.443   5.078  14.914 -0.9875  1.2772  2.2846
16647TIP3    H271433   5.592   5.062  14.934 -0.4058  1.6740 -1.3751
16648TIP3   OH271434   6.379   5.849   1.616 -0.4055 -0.3480 -0.0654
16648TIP3    H171435   6.415   5.937   1.600 -3.2043  0.8390 -0.1825
16648TIP3    H271436   6.412   5.796   1.543  0.6521  0.7998 -0.4406
16649TIP3   OH271437   1.921   5.225  11.490 -0.1260  0.2164 -0.1990
16649TIP3    H171438   1.849   5.232  11.427 -1.1845  0.8736  1.0728
16649TIP3    H271439   1.932   5.314  11.524  1.0233  0.0349 -0.0836
16650TIP3   OH271440   1.153   6.502  11.041 -0.7082 -0.1882 -0.1934
16650TIP3    H171441   1.136   6.580  11.093  2.8924 -0.1831  1.0559
16650TIP3    H271442   1.169   6.535  10.952 -0.1553  0.4140  0.1303
16651TIP3   OH271443   4.032   5.751   3.934 -0.1929 -0.2645  0.3592
16651TIP3    H171444   4.094   5.768   3.863  0.7212  0.3692  1.2852
16651TIP3    H271445   4.077   5.688   3.991 -1.2122 -1.3198 -0.0089
16652TIP3   OH271446   1.203   1.063   5.489 -0.1581  0.1248 -0.2111
16652TIP3    H171447   1.200   1.085   5.582 -0.5437 -0.5882 -0.0507
16652TIP3    H271448   1.254   0.983   5.485 -1.6811 -0.8635 -0.3981
16653TIP3   OH271449   4.416   2.000   5.153  0.2152  0.0530  0.1043
16653TIP3    H171450   4.364   1.936   5.202  1.3595 -0.3700  0.7847
16653TIP3    H271451   4.421   2.077   5.210  0.2839  0.1188  0.0116
16654TIP3   OH271452   0.922   1.942  14.939 -0.1324  0.3452 -0.4282
16654TIP3    H171453   0.841   1.904  14.905  0.3442 -1.2932  0.2251
16654TIP3    H271454   0.901   1.968  15.028  0.1337 -0.3779 -0.1482
16655TIP3   OH271455   3.202   2.396   0.439  0.2571 -0.3330 -0.3297
16655TIP3    H171456   3.277   2.456   0.442 -0.5680  0.7511 -0.7152
16655TIP3    H271457   3.125   2.454   0.447 -0.4894 -1.6548  2.8329
16656TIP3   OH271458   0.080   4.152   2.162  0.1248  0.0798 -0.0911
16656TIP3    H171459   0.068   4.134   2.255 -0.1577  0.5184 -0.0412
16656TIP3    H271460   0.010   4.103   2.118  0.7004 -0.7138 -0.1340
16657TIP3   OH271461   4.568   2.278  13.890 -0.3071  0.0224 -0.0202
16657TIP3    H171462   4.612   2.210  13.839  0.5792  0.8850 -0.4092
16657TIP3    H271463   4.636   2.342  13.910 -0.8990  0.2479  1.2918
16658TIP3   OH271464   1.767   2.967  15.494 -0.3161  0.7440  0.2796
16658TIP3    H171465   1.758   2.883  15.449 -2.6447  1.8553 -1.4281
16658TIP3    H271466   1.779   3.030  15.423  1.1734  1.8959  1.5371
16659TIP3   OH271467   1.807   6.462  14.094  0.6351  1.1002 -0.7630
16659TIP3    H171468   1.729   6.499  14.053 -0.2982 -0.1521 -0.1702
16659TIP3    H271469   1.848   6.410  14.025 -0.0541  0.3103 -0.5974
16660TIP3   OH271470   3.675   0.164  17.167  0.3084  0.0857  0.5290
16660TIP3    H171471   3.728   0.231  17.210  0.9102 -0.0315 -0.0219
16660TIP3    H271472   3.682   0.088  17.224  0.4723  0.1689  0.6202
16661TIP3   OH271473   3.725   0.412  13.106  0.1492 -0.3946 -0.0471
16661TIP3    H171474   3.680   0.496  13.111  0.0329 -0.4578 -0.0254
16661TIP3    H271475   3.662   0.349  13.142  0.6627 -0.3224  1.0178
16662TIP3   OH271476   1.435   0.608  11.594 -0.4380  0.1563  0.3741
16662TIP3    H171477   1.448   0.543  11.524 -0.3694  0.9485 -0.3549
16662TIP3    H271478   1.381   0.562  11.659 -0.1327 -0.7344  0.0143
16663TIP3   OH271479   1.807   6.003   5.511 -0.2754 -0.1859 -0.4180
16663TIP3    H171480   1.823   5.998   5.417  1.5624 -0.2781 -0.1195
16663TIP3    H271481   1.843   6.088   5.536 -2.4219  0.6625 -0.0859
16664TIP3   OH271482   2.109   2.338  13.102  0.2780  0.2633  0.2967
16664TIP3    H171483   2.173   2.390  13.053 -0.9115  1.9843  0.5122
16664TIP3    H271484   2.056   2.403  13.148 -1.0802 -1.1731  0.8113
16665TIP3   OH271485   4.320   0.065  17.130  0.3668 -0.0557  0.4211
16665TIP3    H171486   4.231   0.077  17.163  0.3255 -0.3939  0.4348
16665TIP3    H271487   4.311   0.001  17.059  0.7050 -0.6853  0.9435
16666TIP3   OH271488   2.624   1.857   4.486  0.7785  0.1003 -0.4442
16666TIP3    H171489   2.715   1.857   4.516  0.8486 -1.6748 -0.5985
16666TIP3    H271490   2.590   1.771   4.511 -0.6698  0.5042 -0.9494
16667TIP3   OH271491   1.020   3.715   3.402 -0.0664 -0.0422  0.0851
16667TIP3    H171492   1.113   3.719   3.424  0.0716 -0.7997 -0.3419
16667TIP3    H271493   0.978   3.770   3.468  0.7047  0.5004  0.1358
16668TIP3   OH271494   0.601   1.997  16.612  0.0142  0.4450 -0.3753
16668TIP3    H171495   0.636   1.926  16.558  0.4178 -0.0339  0.5066
16668TIP3    H271496   0.509   1.976  16.624  0.2094 -0.1211  0.1730
16669TIP3   OH271497   4.382   3.338  16.661  0.2227  0.7145  0.2798
16669TIP3    H171498   4.299   3.373  16.695 -0.0314 -1.3648  1.9117
16669TIP3    H271499   4.434   3.323  16.740  1.5661  0.5178 -0.6423
16670TIP3   OH271500   6.799   3.890  13.423  0.0648 -0.3773 -0.1938
16670TIP3    H171501   6.820   3.969  13.472 -0.0709 -0.7445  0.4666
16670TIP3    H271502   6.764   3.921  13.339  2.4099  0.2481 -0.9888
16671TIP3   OH271503   2.259   1.230   4.201  0.1806  0.0251 -0.2554
16671TIP3    H171504   2.345   1.270   4.209 -0.5099  1.5800 -0.4263
16671TIP3    H271505   2.208   1.269   4.273 -0.6812 -0.0659 -0.8149
16672TIP3   OH271506   4.595   5.292   2.980 -0.4185  0.6164 -0.7080
16672TIP3    H171507   4.606   5.383   2.953 -0.4761  0.5641 -0.9075
16672TIP3    H271508   4.549   5.297   3.063 -1.1421  0.7427 -1.1103
16673TIP3   OH271509   4.847   0.583   1.709 -0.1254 -0.0538 -0.1729
16673TIP3    H171510   4.938   0.565   1.685 -0.0235  0.2651 -0.0199
16673TIP3    H271511   4.833   0.674   1.685 -0.3275 -0.0252  0.0538
16674TIP3   OH271512   2.705   5.920   6.276  0.3530  0.1308  0.2174
16674TIP3    H171513   2.786   5.940   6.322 -0.2439 -0.8003  1.7310
16674TIP3    H271514   2.718   5.831   6.242 -0.6111 -0.6837  1.8836
16675TIP3   OH271515   1.559   3.749  17.194 -0.1198 -0.3057 -0.0232
16675TIP3    H171516   1.642   3.739  17.147 -0.0092 -0.0240  0.1091
16675TIP3    H271517   1.525   3.660  17.202 -0.2157 -0.3390 -0.7701
16676TIP3   OH271518   3.576   3.359  16.413 -0.3442  0.2975  0.8671
16676TIP3    H171519   3.596   3.453  16.412  2.3289 -0.2452  0.0423
16676TIP3    H271520   3.651   3.319  16.457 -0.5271 -1.6478 -0.5291
16677TIP3   OH271521   6.579   2.756  15.408  0.3370  0.3271 -0.2858
16677TIP3    H171522   6.638   2.827  15.384  1.4245 -0.7107 -0.6862
16677TIP3    H271523   6.554   2.775  15.498  1.4889  0.6196 -0.0255
16678TIP3   OH271524   1.292   5.055   2.322 -0.2023  0.1579 -0.0799
16678TIP3    H171525   1.351   5.126   2.346 -0.0921  0.4609 -1.2299
16678TIP3    H271526   1.257   5.080   2.236 -0.7976 -0.7740 -0.1207
16679TIP3   OH271527   0.477   6.659   5.886 -0.0222 -0.1991 -0.3160
16679TIP3    H171528   0.416   6.688   5.954 -1.9748 -1.4113 -1.4974
16679TIP3    H271529   0.489   6.735   5.830 -0.0129  0.2097  0.2374
16680TIP3   OH271530   3.783   1.968   4.296 -0.5928  0.0858  0.1049
16680TIP3    H171531   3.789   2.050   4.247 -0.0711 -0.2110 -0.3361
16680TIP3    H271532   3.692   1.964   4.324 -0.9799  0.1345 -1.0913
16681TIP3   OH271533   3.482   3.313  15.319 -0.4332 -0.0468 -0.6623
16681TIP3    H171534   3.417   3.342  15.383  0.1861 -1.2388  0.5356
16681TIP3    H271535   3.471   3.218  15.315  2.3351 -0.5020  0.8684
16682TIP3   OH271536   4.381   0.558  14.470  0.5614  0.6150 -0.1900
16682TIP3    H171537   4.322   0.487  14.494  0.4021  1.1678  1.0839
16682TIP3    H271538   4.324   0.635  14.461  1.0371  1.1004  0.8278
16683TIP3   OH271539   6.225   4.219   3.017 -0.1549  0.0095 -0.2046
16683TIP3    H171540   6.299   4.272   3.047 -0.9283  0.8154  0.2942
16683TIP3    H271541   6.264   4.156   2.956  0.9556  0.3675  0.1209
16684TIP3   OH271542   3.157   3.116   5.035  0.1922 -0.4159  0.0160
16684TIP3    H171543   3.102   3.049   5.075 -0.0473 -0.4134 -0.3056
16684TIP3    H271544   3.235   3.120   5.090  0.0215 -0.6626  0.2745
16685TIP3   OH271545   3.152   4.397  13.036 -0.0138  0.2007  0.3502
16685TIP3    H171546   3.093   4.335  12.992  0.9639 -2.1241  2.2027
16685TIP3    H271547   3.098   4.440  13.102  0.2157 -1.6028  1.7431
16686TIP3   OH271548   1.206   1.310   3.678 -0.5199  0.3485  0.0565
16686TIP3    H171549   1.263   1.236   3.697 -0.5954 -0.1654 -1.6903
16686TIP3    H271550   1.156   1.283   3.601 -1.0903  1.9206 -0.1435
16687TIP3   OH271551   0.155   6.775  17.019 -0.6944 -0.1942 -0.0372
16687TIP3    H171552   0.249   6.763  17.031 -0.8556 -2.0819 -0.4596
16687TIP3    H271553   0.142   6.768  16.924 -1.1449  1.0400 -0.0713
16688TIP3   OH271554   3.973   5.764  13.069 -0.5081 -0.6064 -0.4090
16688TIP3    H171555   4.020   5.688  13.036 -0.9522 -1.2289  0.3944
16688TIP3    H271556   3.992   5.833  13.005  0.9013 -1.0512 -0.4694
16689TIP3   OH271557   3.531   0.223   1.956 -0.1238 -0.2927  0.5193
16689TIP3    H171558   3.538   0.242   1.863 -0.0719 -0.4646  0.4879
16689TIP3    H271559   3.440   0.241   1.978 -0.1732 -0.4055  0.4023
16690TIP3   OH271560   2.792   1.538  15.704 -0.1055  0.0198 -0.6874
16690TIP3    H171561   2.754   1.451  15.718  1.4380 -0.5114  0.2664
16690TIP3    H271562   2.885   1.527  15.721 -0.1667  2.2825  1.3350
16691TIP3   OH271563   2.295   2.224   6.693 -0.4820  0.1837  0.3529
16691TIP3    H171564   2.242   2.158   6.648  1.2182  0.0835 -1.5665
16691TIP3    H271565   2.259   2.308   6.665  0.8803  0.1282 -1.6150
16692TIP3   OH271566   6.382   5.138   0.843  0.0444  0.2442 -0.2791
16692TIP3    H171567   6.434   5.101   0.772  0.7351 -0.6219  0.6623
16692TIP3    H271568   6.398   5.080   0.918  0.8050  2.1686  1.1082
16693TIP3   OH271569   2.975   0.631  14.668 -0.5306 -0.0124 -0.0318
16693TIP3    H171570   2.963   0.718  14.706 -1.1927  0.2131 -0.7432
16693TIP3    H271571   3.068   0.628  14.645 -0.1041 -0.1955  1.6981
16694TIP3   OH271572   4.475   4.933   0.070  1.0880 -0.3297  0.1435
16694TIP3    H171573   4.549   4.879   0.041 -0.5845 -1.1126 -2.9124
16694TIP3    H271574   4.489   5.017   0.028  1.1150  0.0754  0.9517
16695TIP3   OH271575   2.183   3.481   6.396  0.3996 -0.0430 -0.3255
16695TIP3    H171576   2.262   3.481   6.450 -0.7977 -0.1110  1.4867
16695TIP3    H271577   2.115   3.446   6.454 -1.8331  3.6984 -0.5762
16696TIP3   OH271578   2.133   1.812   4.393 -0.1564 -0.3150  0.0354
16696TIP3    H171579   2.142   1.903   4.420 -2.8566  0.8839 -2.8628
16696TIP3    H271580   2.194   1.802   4.320 -1.2473 -0.2469 -0.9040
16697TIP3   OH271581   4.693   6.546  11.235  0.2010  0.4524 -0.1135
16697TIP3    H171582   4.674   6.455  11.260 -2.0672  1.2334  1.0698
16697TIP3    H271583   4.780   6.564  11.272 -0.0137 -0.7214  0.9686
16698TIP3   OH271584   3.440   5.507   0.364 -0.2060  0.6396 -0.8933
16698TIP3    H171585   3.384   5.585   0.367  0.9145  1.6213 -3.8145
16698TIP3    H271586   3.380   5.434   0.351 -1.0709  1.2717 -0.4878
16699TIP3   OH271587   0.211   5.889  13.714  0.7636 -0.3583 -0.5107
16699TIP3    H171588   0.248   5.843  13.789  0.2897  0.8176  0.4675
16699TIP3    H271589   0.142   5.832  13.681 -0.4029  0.0234  1.2214
16700TIP3   OH271590   0.095   3.464   3.668  0.0325 -0.1760  0.1667
16700TIP3    H171591   0.168   3.526   3.666 -0.2431  0.1520  0.3997
16700TIP3    H271592   0.114   3.408   3.744 -0.2824  0.2952  0.5892
16701TIP3   OH271593   0.892   3.000   2.574  0.2226  0.3061 -0.2016
16701TIP3    H171594   0.894   3.006   2.479 -0.1141  0.5463 -0.1937
16701TIP3    H271595   0.947   2.923   2.594 -1.0765 -0.7635 -0.6849
16702TIP3   OH271596   0.497   4.618  14.476  0.4565 -0.0324 -0.0781
16702TIP3    H171597   0.510   4.544  14.535 -1.0520  1.0321  1.6395
16702TIP3    H271598   0.582   4.662  14.474  0.3862  0.2141  1.7231
16703TIP3   OH271599   0.623   6.194   2.586 -0.0917  0.2642  0.3976
16703TIP3    H171600   0.528   6.185   2.580  0.2400 -2.9079 -0.9941
16703TIP3    H271601   0.648   6.236   2.504 -0.2874  0.9923  0.7118
16704TIP3   OH271602   5.005   2.469   1.823  0.0698 -0.5033 -0.6162
16704TIP3    H171603   5.062   2.407   1.869  1.1988  1.0791  0.1962
16704TIP3    H271604   4.918   2.452   1.858  0.5859 -0.7376  0.6089
16705TIP3   OH271605   6.466   2.320  13.898 -1.1042 -0.3666  0.4615
16705TIP3    H171606   6.501   2.235  13.873 -1.4117 -0.1238 -0.7945
16705TIP3    H271607   6.540   2.364  13.940 -0.9867 -1.2940  1.2582
16706TIP3   OH271608   3.328   1.895   0.673  0.5985  0.3069 -0.0495
16706TIP3    H171609   3.371   1.978   0.657 -1.4800  1.4508  0.1504
16706TIP3    H271610   3.279   1.908   0.755 -0.9364 -0.6029 -0.7936
16707TIP3   OH271611   2.105   5.174   5.869 -0.0801  0.3891 -0.3987
16707TIP3    H171612   2.027   5.228   5.855  0.0920  0.4874 -0.9808
16707TIP3    H271613   2.173   5.216   5.817 -0.0398 -0.5917 -1.1640
16708TIP3   OH271614   5.650   0.991   6.460 -0.1694  0.0200 -0.6415
16708TIP3    H171615   5.589   1.026   6.524 -1.5611  0.1404 -2.0153
16708TIP3    H271616   5.736   1.018   6.492 -0.9476  1.4015  0.3420
16709TIP3   OH271617   6.599   3.388  14.626  0.0203  0.4204 -0.2308
16709TIP3    H171618   6.543   3.453  14.585 -0.3987  0.2186  0.0082
16709TIP3    H271619   6.610   3.319  14.560  0.0189  0.4804 -0.2935
16710TIP3   OH271620   4.149   4.898   4.964  0.4306  0.6906 -0.1497
16710TIP3    H171621   4.140   4.987   5.000  0.2434  0.5948  0.0431
16710TIP3    H271622   4.139   4.910   4.869 -0.7617  0.7252 -0.0276
16711TIP3   OH271623   1.437   1.133   0.834  0.1288 -0.3269 -0.2479
16711TIP3    H171624   1.386   1.065   0.877 -0.0841  0.1102  0.1959
16711TIP3    H271625   1.515   1.143   0.889 -0.9841  1.4943  1.0761
16712TIP3   OH271626   4.340   1.745  13.389 -0.3469 -0.2410 -0.4887
16712TIP3    H171627   4.316   1.754  13.482  2.6457 -0.7861  0.3960
16712TIP3    H271628   4.310   1.826  13.349  1.4568  1.6387  1.7352
16713TIP3   OH271629   3.396   1.232  12.411 -0.8067  0.0209 -0.3009
16713TIP3    H171630   3.485   1.197  12.416 -0.1586  1.6068 -0.2835
16713TIP3    H271631   3.354   1.202  12.492  0.9558  2.4494  1.6142
16714TIP3   OH271632   5.334   6.540   2.642  0.1479 -0.4734  0.2699
16714TIP3    H171633   5.280   6.590   2.704  0.8483  1.0518 -0.3119
16714TIP3    H271634   5.423   6.544   2.679  1.1536  2.8746 -2.1396
16715TIP3   OH271635   5.257   2.527  14.090 -0.2032  0.6290  0.0639
16715TIP3    H171636   5.337   2.555  14.135  1.0290  0.3690 -1.9019
16715TIP3    H271637   5.251   2.584  14.014 -1.6709  0.3568 -0.0393
16716TIP3   OH271638   1.742   1.164  13.269 -0.0104  0.1001  0.0273
16716TIP3    H171639   1.818   1.106  13.274  2.5233  3.4102  2.0885
16716TIP3    H271640   1.744   1.199  13.180  0.4547 -0.4042 -0.1603
16717TIP3   OH271641   2.146   4.575  16.905  0.1765  0.7057 -0.2056
16717TIP3    H171642   2.202   4.590  16.981  0.5119  1.5921 -0.6158
16717TIP3    H271643   2.207   4.560  16.833 -0.0561  2.7217 -0.8707
16718TIP3   OH271644   2.571   6.640  12.679 -0.1327  0.0863 -0.1194
16718TIP3    H171645   2.564   6.547  12.656  1.0683  0.2395 -1.1364
16718TIP3    H271646   2.507   6.683  12.622 -1.3321 -0.1944  0.9743
16719TIP3   OH271647   1.989   0.018   0.701 -0.4930 -0.0779  0.1237
16719TIP3    H171648   1.962   0.069   0.778 -0.6900  0.2567 -0.1677
16719TIP3    H271649   1.907  -0.002   0.657 -0.3279  0.2325 -0.3210
16720TIP3   OH271650   3.915   0.330  13.677  0.0622  0.2312  0.0260
16720TIP3    H171651   3.961   0.284  13.607  0.0649 -0.5284  0.5236
16720TIP3    H271652   3.946   0.420  13.670  2.1999 -0.4155  0.8179
16721TIP3   OH271653   6.211   4.604  12.155  0.4426 -0.0938 -0.3838
16721TIP3    H171654   6.283   4.663  12.131 -1.3053  2.0988 -0.4728
16721TIP3    H271655   6.138   4.663  12.174 -1.3996 -2.2724 -0.5182
16722TIP3   OH271656   3.284   0.650  13.023  0.4308 -0.1960  0.2353
16722TIP3    H171657   3.336   0.726  12.993  0.2687 -0.5729 -1.0531
16722TIP3    H271658   3.194   0.682  13.024  0.5561  0.1404  1.4202
16723TIP3   OH271659   2.990   1.552   4.764  0.2459 -0.1707 -0.4284
16723TIP3    H171660   2.951   1.545   4.677 -0.0198  0.9426 -0.4057
16723TIP3    H271661   3.084   1.555   4.748  0.2582 -1.2436 -0.5895
16724TIP3   OH271662   5.598   5.405  15.045  0.7805 -0.1646 -0.0795
16724TIP3    H171663   5.677   5.456  15.026  0.6703  0.1636  0.3637
16724TIP3    H271664   5.608   5.326  14.992 -0.5621  1.7120 -3.2837
16725TIP3   OH271665   6.491   1.448  14.132  0.8232 -0.0472 -0.3245
16725TIP3    H171666   6.546   1.395  14.075 -0.7807 -0.3777 -1.6151
16725TIP3    H271667   6.458   1.387  14.198  0.0225 -0.4130 -1.0421
16726TIP3   OH271668   1.256   2.273   6.247  0.0389 -0.0700  0.4812
16726TIP3    H171669   1.223   2.361   6.233 -2.6257 -1.0873  0.0865
16726TIP3    H271670   1.306   2.252   6.168 -0.0490  0.7419  0.2100
16727TIP3   OH271671   1.334   4.841  11.054 -0.2258  0.6371 -0.2533
16727TIP3    H171672   1.266   4.781  11.025  0.8612  0.1489 -1.8636
16727TIP3    H271673   1.342   4.905  10.983  2.5597 -0.6545 -1.1871
16728TIP3   OH271674   5.364   4.272   2.972 -0.1403 -0.4575 -0.2369
16728TIP3    H171675   5.276   4.272   2.935  0.2280 -0.2923 -1.1180
16728TIP3    H271676   5.366   4.348   3.030  0.3592  1.3120 -2.4892
16729TIP3   OH271677   3.826   5.175   4.651  0.7011  0.5940  0.0372
16729TIP3    H171678   3.816   5.249   4.591  0.3776  0.6902  0.2091
16729TIP3    H271679   3.792   5.207   4.735  0.0033  0.0616 -0.0328
16730TIP3   OH271680   4.397   0.875  16.778  0.1219 -0.0401 -0.1733
16730TIP3    H171681   4.331   0.944  16.787  1.0564  0.7866  0.3807
16730TIP3    H271682   4.411   0.867  16.684  0.4165  0.9252 -0.2188
16731TIP3   OH271683   4.076   6.185   0.148  0.2803  0.3901 -0.1448
16731TIP3    H171684   4.070   6.092   0.127  0.0516  0.4074 -0.1570
16731TIP3    H271685   4.170   6.205   0.143  0.0774  0.8869 -3.3593
16732TIP3   OH271686   6.389   2.579   1.020  0.1399 -0.0295 -0.3991
16732TIP3    H171687   6.305   2.588   0.975  0.7196 -0.0402 -1.5199
16732TIP3    H271688   6.432   2.507   0.975  1.1061  0.5451 -0.4106
16733TIP3   OH271689   6.703   5.541   1.327  0.0781 -0.6880 -0.0677
16733TIP3    H171690   6.624   5.497   1.293  0.4672 -0.6193 -1.0769
16733TIP3    H271691   6.763   5.469   1.347 -0.0880 -0.7213  0.3129
16734TIP3   OH271692   3.654   4.622   5.834  0.2520 -0.2250 -0.0078
16734TIP3    H171693   3.621   4.689   5.773 -0.5822 -0.6747 -0.0567
16734TIP3    H271694   3.688   4.672   5.908 -1.0227  0.2477  0.2832
16735TIP3   OH271695   0.308   4.690  13.607  0.0443 -0.4563  0.3354
16735TIP3    H171696   0.346   4.706  13.693 -0.9800  0.4500  0.6349
16735TIP3    H271697   0.377   4.713  13.545 -0.2714  2.0762  0.8441
16736TIP3   OH271698   4.782   4.605  16.701 -0.0385 -0.7744  0.4322
16736TIP3    H171699   4.777   4.534  16.766 -0.6329  0.0920  1.3580
16736TIP3    H271700   4.819   4.679  16.750  0.2796 -0.3574 -0.4388
16737TIP3   OH271701   2.208   1.323  16.049 -0.2645 -0.2969  0.0716
16737TIP3    H171702   2.266   1.399  16.039  0.1449 -0.6748 -0.4752
16737TIP3    H271703   2.179   1.327  16.140  1.6320 -0.8117  0.7128
16738TIP3   OH271704   1.390   3.299   0.052 -0.1034  0.3659  0.6120
16738TIP3    H171705   1.309   3.250   0.043  1.1260 -1.5402 -0.5456
16738TIP3    H271706   1.390   3.361  -0.021  0.8684 -1.7601 -1.2567
16739TIP3   OH271707   6.146   3.602   1.728 -0.0958 -0.2423  0.0843
16739TIP3    H171708   6.232   3.559   1.730 -0.9325 -2.0479 -1.7415
16739TIP3    H271709   6.102   3.570   1.807 -0.0667 -1.4602 -0.3720
16740TIP3   OH271710   0.383   3.903   3.703 -0.4172  0.5508  0.5918
16740TIP3    H171711   0.366   3.941   3.616 -1.7140 -3.3680 -0.9774
16740TIP3    H271712   0.308   3.930   3.756 -0.7625  1.0965 -0.1623
16741TIP3   OH271713   5.252   4.404  13.700  0.4530  0.0541  0.1348
16741TIP3    H171714   5.222   4.366  13.783  0.3041 -0.0392  0.0401
16741TIP3    H271715   5.291   4.330  13.653  0.7166  0.1488  0.2056
16742TIP3   OH271716   0.117   2.576   5.387  0.3657 -0.0207 -0.5471
16742TIP3    H171717   0.196   2.628   5.400 -0.9839  1.3119  3.0061
16742TIP3    H271718   0.084   2.604   5.301  0.9403  3.3492  0.2460
16743TIP3   OH271719   4.523   0.612  12.654 -0.3233 -0.2864 -0.1684
16743TIP3    H171720   4.432   0.583  12.655 -0.0635 -1.1089  1.4254
16743TIP3    H271721   4.519   0.706  12.670 -0.8548 -0.4978  1.0005
16744TIP3   OH271722   0.942   3.273   6.374 -0.1433 -0.1257 -0.2247
16744TIP3    H171723   1.031   3.305   6.385 -0.3793  0.9580 -1.4318
16744TIP3    H271724   0.950   3.178   6.376  0.8183 -0.0378  1.3308
16745TIP3   OH271725   3.777   3.984  11.844  0.1501  0.0311  0.3448
16745TIP3    H171726   3.803   3.949  11.929  0.2608  0.5914  0.5496
16745TIP3    H271727   3.727   3.914  11.803  0.0422 -0.2233  0.9017
16746TIP3   OH271728   1.982   0.113   3.777 -0.6634  0.2460 -0.1082
16746TIP3    H171729   2.019   0.049   3.716 -1.7020  0.7530 -1.2898
16746TIP3    H271730   1.985   0.069   3.862  1.7106 -0.0865 -0.3312
16747TIP3   OH271731   4.608   3.704  14.340  0.1168 -0.6434  0.1312
16747TIP3    H171732   4.579   3.702  14.249  2.9117  1.0825 -0.8707
16747TIP3    H271733   4.554   3.772  14.381  0.7945  0.6113 -1.0033
16748TIP3   OH271734   1.082   3.430   5.531  0.5224 -0.1848  0.3935
16748TIP3    H171735   1.001   3.381   5.545  0.4912  0.3030  2.0898
16748TIP3    H271736   1.148   3.383   5.583  0.9400  0.4155  0.4189
16749TIP3   OH271737   4.417   3.450   3.464  0.1640  0.1959 -0.0503
16749TIP3    H171738   4.333   3.454   3.509 -0.1322  1.6849 -0.6922
16749TIP3    H271739   4.396   3.473   3.373  1.0769 -0.6764 -0.4996
16750TIP3   OH271740   0.912   4.133   4.058  0.2095  0.2747  0.4805
16750TIP3    H171741   0.918   4.193   3.984  2.9910  0.1664  0.5376
16750TIP3    H271742   0.819   4.130   4.080 -0.4998  1.3327 -2.1497
16751TIP3   OH271743   2.575   4.789   6.133 -0.1137 -0.7399 -0.5079
16751TIP3    H171744   2.658   4.811   6.091  0.2092 -0.9093  0.0355
16751TIP3    H271745   2.532   4.874   6.145  1.7623 -0.1479  2.8815
16752TIP3   OH271746   4.888   0.706  10.045  0.3298  0.7997 -0.3929
16752TIP3    H171747   4.914   0.685  10.135  1.1055 -2.4726 -1.3017
16752TIP3    H271748   4.960   0.759  10.011 -0.6565  3.3392  1.3313
16753TIP3   OH271749   0.167   0.629   4.757 -0.4099  0.8385 -0.4755
16753TIP3    H171750   0.096   0.675   4.712 -0.0790 -0.1377 -2.0324
16753TIP3    H271751   0.218   0.699   4.799 -1.0140  1.7207 -1.1908
16754TIP3   OH271752   3.840   4.076   2.825 -0.3525  0.5068  0.1388
16754TIP3    H171753   3.862   4.168   2.836  0.3095  0.5484 -1.3663
16754TIP3    H271754   3.752   4.068   2.861  0.0967  1.4374  1.4985
16755TIP3   OH271755   6.350   0.979   4.201  0.3754  0.0829 -0.2727
16755TIP3    H171756   6.442   0.958   4.180  0.4567  1.1278 -0.9842
16755TIP3    H271757   6.303   0.963   4.119  0.3395  2.0708 -0.6657
16756TIP3   OH271758   5.018   1.381   0.806 -0.1216  0.3707  0.1290
16756TIP3    H171759   5.061   1.419   0.883 -0.5285 -2.4624  1.8584
16756TIP3    H271760   5.078   1.400   0.733  0.8867  2.0349  1.3599
16757TIP3   OH271761   1.237   2.991  12.235 -0.1267 -0.7143 -0.5277
16757TIP3    H171762   1.181   3.053  12.188  1.1424  0.6702 -0.2858
16757TIP3    H271763   1.326   3.017  12.211  0.4493 -2.0487  0.1104
16758TIP3   OH271764   6.607   4.117   0.844  0.5578 -0.4517 -0.2149
16758TIP3    H171765   6.696   4.121   0.809  0.8748 -0.7309  0.5483
16758TIP3    H271766   6.580   4.208   0.852  0.8637 -0.3597 -0.2291
16759TIP3   OH271767   5.060   0.574  12.811  0.5673  0.1361 -0.2529
16759TIP3    H171768   5.045   0.494  12.760  1.5688 -0.4699  0.3709
16759TIP3    H271769   5.155   0.586  12.807  0.5358  0.6427  0.6282
16760TIP3   OH271770   6.405   6.441   2.858 -0.2952 -0.2892  0.1786
16760TIP3    H171771   6.390   6.346   2.868 -0.2169 -0.3397 -0.1841
16760TIP3    H271772   6.437   6.451   2.769 -1.4011  0.2112 -0.1695
16761TIP3   OH271773   6.375   6.035  12.495  0.3548  0.2234 -0.4086
16761TIP3    H171774   6.305   6.038  12.559  1.1016 -0.4505  0.4490
16761TIP3    H271775   6.357   6.109  12.436 -0.9670  0.1469 -0.1058
16762TIP3   OH271776   4.078   0.988   5.249 -0.4080 -0.3258  0.2529
16762TIP3    H171777   4.168   0.965   5.228 -0.6832 -1.8671  0.7141
16762TIP3    H271778   4.077   0.995   5.345 -0.8413 -0.5825  0.2679
16763TIP3   OH271779   1.197   3.895  16.376 -0.1703 -0.4713 -0.9029
16763TIP3    H171780   1.276   3.843  16.389 -0.7562 -1.4099 -0.9903
16763TIP3    H271781   1.141   3.872  16.450 -1.2021 -1.4300 -1.9504
16764TIP3   OH271782   5.268   6.535  17.041 -0.0507  0.3526  0.3406
16764TIP3    H171783   5.336   6.487  16.994  1.1631  3.1304 -0.8331
16764TIP3    H271784   5.294   6.531  17.133 -0.0638 -1.3395  0.2830
16765TIP3   OH271785   4.024   4.083  16.444  0.0228 -0.1776 -0.5064
16765TIP3    H171786   4.110   4.065  16.405 -1.2109 -1.0563 -2.9170
16765TIP3    H271787   4.005   4.173  16.421  0.1334 -0.1007 -0.2945
16766TIP3   OH271788   4.761   0.773  12.163 -0.0452  0.2334 -0.8744
16766TIP3    H171789   4.729   0.730  12.243 -1.7603  2.5307 -0.2718
16766TIP3    H271790   4.761   0.703  12.098 -1.4490 -1.0283  0.4162
16767TIP3   OH271791   3.069   2.707  13.153 -0.4211  0.0371 -0.2344
16767TIP3    H171792   3.090   2.800  13.163  0.9746 -0.1623 -1.1346
16767TIP3    H271793   3.105   2.665  13.230 -0.9998  0.2294  0.1436
16768TIP3   OH271794   0.774   3.209  13.647 -0.1743 -0.4189  0.2031
16768TIP3    H171795   0.701   3.220  13.586 -0.4256  0.7025  0.7107
16768TIP3    H271796   0.816   3.295  13.650  2.7004 -1.6586 -2.0138
16769TIP3   OH271797   1.912   3.479  16.408 -0.3675 -0.2554  0.5881
16769TIP3    H171798   1.951   3.454  16.491 -0.0791  2.0443  1.1736
16769TIP3    H271799   1.951   3.564  16.387  1.3907 -1.8560 -3.1105
16770TIP3   OH271800   0.321   1.119  16.811 -0.3143 -0.3673 -0.0426
16770TIP3    H171801   0.378   1.181  16.855  1.0622 -0.9946 -0.9146
16770TIP3    H271802   0.313   1.152  16.721  1.5284 -2.1450 -0.8905
16771TIP3   OH271803   1.460   1.282  12.986  0.1786  0.1103  0.2177
16771TIP3    H171804   1.420   1.370  12.991 -1.4171 -0.5563 -0.3491
16771TIP3    H271805   1.436   1.250  12.899 -1.1350 -1.7333  1.2087
16772TIP3   OH271806   4.481   3.867  14.629 -0.3415 -0.3821  0.2533
16772TIP3    H171807   4.573   3.849  14.612 -0.0986 -0.3640  1.4959
16772TIP3    H271808   4.435   3.835  14.551  0.5728 -1.7474  0.2662
16773TIP3   OH271809   2.076   5.456   0.872 -0.0634  0.5320 -0.1938
16773TIP3    H171810   2.105   5.545   0.892 -0.7925  0.4217  1.4020
16773TIP3    H271811   2.154   5.402   0.885  0.0529  0.7665  0.0680
16774TIP3   OH271812   5.685   0.435  15.918 -0.2176 -0.3302 -0.0950
16774TIP3    H171813   5.685   0.510  15.859 -1.5817 -0.4037 -0.1961
16774TIP3    H271814   5.662   0.472  16.003  0.3765 -0.4449  0.1197
16775TIP3   OH271815   6.156   3.402  10.647 -0.6491  0.0486 -0.6761
16775TIP3    H171816   6.250   3.405  10.630 -0.4663 -0.1850  0.2404
16775TIP3    H271817   6.120   3.477  10.600  0.1351  0.7346 -0.2010
16776TIP3   OH271818   2.704   4.622   4.731  0.5104 -0.1223 -0.0536
16776TIP3    H171819   2.762   4.548   4.751  1.2040  0.7149  1.1145
16776TIP3    H271820   2.745   4.664   4.655  1.8119  0.8582  1.1814
16777TIP3   OH271821   4.978   2.715  16.893 -0.1281  1.1647  0.2065
16777TIP3    H171822   4.985   2.622  16.913 -0.1761  0.9170 -0.8901
16777TIP3    H271823   4.895   2.742  16.931 -0.5661  0.5415 -0.2893
16778TIP3   OH271824   6.453   1.016  14.207 -0.1452 -0.4212  0.5252
16778TIP3    H171825   6.506   0.972  14.142 -1.5306  0.3789 -1.1803
16778TIP3    H271826   6.494   1.103  14.216  0.5801 -0.8435  1.4094
16779TIP3   OH271827   1.297   4.401  17.051  0.1018  1.0381  0.0768
16779TIP3    H171828   1.237   4.385  16.978  1.3206  1.9587 -1.1566
16779TIP3    H271829   1.283   4.492  17.074  0.8303  1.1803 -0.0373
16780TIP3   OH271830   2.527   0.586  13.544  0.1153 -0.6569 -0.0261
16780TIP3    H171831   2.565   0.503  13.574  1.4790 -0.3874 -0.9657
16780TIP3    H271832   2.577   0.608  13.466 -0.5837  0.8036 -0.0704
16781TIP3   OH271833   0.525   1.283   0.056 -0.0267  0.3123  0.4366
16781TIP3    H171834   0.551   1.375   0.045  0.2589  0.0059 -1.5056
16781TIP3    H271835   0.582   1.251   0.126  1.5578  0.9655 -0.5099
16782TIP3   OH271836   6.337   4.226   2.377 -0.0788 -0.3740  0.2524
16782TIP3    H171837   6.285   4.237   2.457 -1.8747  0.0432 -0.9417
16782TIP3    H271838   6.278   4.251   2.306  0.4602 -3.7504 -1.4815
16783TIP3   OH271839   6.327   1.440   6.614  0.3503 -0.1870  0.2012
16783TIP3    H171840   6.236   1.427   6.642  0.1845 -0.3867 -0.4285
16783TIP3    H271841   6.345   1.365   6.557  1.1590 -0.5565  0.9426
16784TIP3   OH271842   3.512   2.784   1.121 -0.0047  0.3706  0.4880
16784TIP3    H171843   3.554   2.706   1.087  0.4352 -0.1569  2.2012
16784TIP3    H271844   3.418   2.767   1.113  0.0699  0.8055 -1.6449
16785TIP3   OH271845   5.739   5.492  15.918  0.7415 -0.3403 -0.0763
16785TIP3    H171846   5.705   5.410  15.882  0.0486  0.1934 -0.6671
16785TIP3    H271847   5.764   5.471  16.008 -4.5606  0.0679  1.6904
16786TIP3   OH271848   6.040   0.283   0.014 -0.1423  0.4883  0.4974
16786TIP3    H171849   5.992   0.362  -0.013  0.8733  0.7095 -0.7488
16786TIP3    H271850   5.989   0.247   0.086 -1.7214  1.1837 -0.2372
16787TIP3   OH271851   2.619   2.066   1.707 -0.5778 -0.1397  0.1914
16787TIP3    H171852   2.543   2.014   1.731  0.2665 -1.9907 -1.0241
16787TIP3    H271853   2.631   2.051   1.613 -0.2758  2.2492 -0.2020
16788TIP3   OH271854   5.760   3.982   1.670  0.0995 -0.1569  0.5742
16788TIP3    H171855   5.790   3.973   1.579 -1.8713  0.0953 -0.1402
16788TIP3    H271856   5.748   4.076   1.681 -0.9729 -0.2916  0.6337
16789TIP3   OH271857   4.743   6.212   0.522  0.5388  0.0033  0.3818
16789TIP3    H171858   4.652   6.185   0.526  0.2082  1.0580  0.2639
16789TIP3    H271859   4.786   6.146   0.467 -0.5467  0.5302 -1.1269
16790TIP3   OH271860   5.053   2.813  11.190  0.2541 -0.3759 -0.6546
16790TIP3    H171861   5.142   2.840  11.214 -0.2243  1.4472 -0.9072
16790TIP3    H271862   5.028   2.752  11.259  1.2922 -0.0683  0.0196
16791TIP3   OH271863   4.464   5.270   5.549 -0.1129  0.1301 -0.2018
16791TIP3    H171864   4.429   5.202   5.607 -2.9667 -0.2223 -2.2756
16791TIP3    H271865   4.530   5.224   5.496 -1.0547 -0.7011 -0.6647
16792TIP3   OH271866   6.074   4.576   2.771 -0.1974  0.5481 -0.5378
16792TIP3    H171867   6.120   4.633   2.710  2.4540 -2.7942 -1.7763
16792TIP3    H271868   6.131   4.573   2.848 -0.3515 -0.3833 -0.4586
16793TIP3   OH271869   3.919   1.189  11.833  0.3568 -0.0406  0.0087
16793TIP3    H171870   3.865   1.120  11.869  0.3481 -0.3028 -0.5095
16793TIP3    H271871   3.876   1.270  11.860 -0.3384 -0.2472 -0.4790
16794TIP3   OH271872   6.096   3.300   4.318  0.2954 -0.5520  0.4219
16794TIP3    H171873   6.183   3.292   4.279  0.8958  2.1700  1.1139
16794TIP3    H271874   6.046   3.351   4.255 -0.8968 -2.3088 -0.0749
16795TIP3   OH271875   5.755   4.392  16.488 -0.3299 -0.0903 -0.2132
16795TIP3    H171876   5.733   4.482  16.462  0.3585 -0.3883 -1.8732
16795TIP3    H271877   5.688   4.338  16.446  1.7219 -0.7241 -2.7871
16796TIP3   OH271878   5.194   0.109  15.066  0.5092  0.1206  0.0549
16796TIP3    H171879   5.166   0.179  15.125 -0.1905  0.0063 -0.1446
16796TIP3    H271880   5.135   0.036  15.084  0.1705  0.1424 -0.9016
16797TIP3   OH271881   4.135   4.351  10.743  0.1235  0.5275  0.8173
16797TIP3    H171882   4.227   4.378  10.733  0.1386  0.5969  1.1468
16797TIP3    H271883   4.098   4.415  10.803 -0.4994  1.3167 -0.3900
16798TIP3   OH271884   3.390   1.779  16.552 -0.0355 -0.0475 -0.0535
16798TIP3    H171885   3.407   1.718  16.624 -3.1117 -0.4784  0.3870
16798TIP3    H271886   3.333   1.846  16.590  1.0498  1.5996 -1.2430
16799TIP3   OH271887   6.624   6.352   2.291 -0.1309 -0.3921 -0.1458
16799TIP3    H171888   6.586   6.440   2.287  1.3828  0.2237 -0.9528
16799TIP3    H271889   6.658   6.345   2.381  2.3772  0.9696 -0.9427
16800TIP3   OH271890   6.363   3.944   2.523 -0.2234 -0.0431 -0.0717
16800TIP3    H171891   6.329   3.871   2.574 -0.2083  0.0717  0.1028
16800TIP3    H271892   6.309   4.019   2.547 -0.4435 -0.0652 -0.4894
16801TIP3   OH271893   4.840   2.767   3.433 -0.2289  0.1285  0.2326
16801TIP3    H171894   4.927   2.734   3.455 -0.5480 -1.6153 -1.0408
16801TIP3    H271895   4.841   2.777   3.337 -1.1361  0.9472  0.2957
16802TIP3   OH271896   5.265   0.846   5.660  0.2462 -0.0016  0.5528
16802TIP3    H171897   5.303   0.832   5.747 -0.1695 -0.9667  0.5891
16802TIP3    H271898   5.309   0.782   5.604  2.2547  2.2232 -0.4979
16803TIP3   OH271899   4.823   1.590   5.215 -0.3008  0.1844  0.4074
16803TIP3    H171900   4.862   1.519   5.165  0.7071  0.7623  0.3529
16803TIP3    H271901   4.807   1.552   5.302  3.0118  0.6884  1.3266
16804TIP3   OH271902   0.955   0.609  16.993  0.1821  0.0271  0.2098
16804TIP3    H171903   0.889   0.589  16.926 -1.6587 -0.1022  2.0198
16804TIP3    H271904   1.009   0.530  16.997 -0.6060 -0.5292 -0.0752
16805TIP3   OH271905   2.283   5.500  12.676  0.6190 -0.0019 -0.1724
16805TIP3    H171906   2.248   5.452  12.751  1.7394  0.2575  0.5365
16805TIP3    H271907   2.245   5.458  12.600 -0.1202 -0.6108  0.5289
16806TIP3   OH271908   6.244   4.824  12.434  0.1436 -0.4874 -0.7233
16806TIP3    H171909   6.185   4.835  12.360  2.6381  0.4590 -2.6414
16806TIP3    H271910   6.261   4.730  12.438  0.1973 -0.5145 -1.5275
16807TIP3   OH271911   1.649   6.115  17.113  0.2123  0.8201  0.3076
16807TIP3    H171912   1.584   6.053  17.144  0.7516  1.1205  2.1418
16807TIP3    H271913   1.681   6.079  17.030 -2.0595  0.5360 -0.4652
16808TIP3   OH271914   1.985   2.188   4.944  0.7034 -0.1779  0.7975
16808TIP3    H171915   1.930   2.206   4.867  1.3020  2.4722  0.9252
16808TIP3    H271916   2.070   2.162   4.907  0.7629  0.3382  0.5671
16809TIP3   OH271917   6.662   3.214  13.805 -0.3134 -0.4703 -1.2009
16809TIP3    H171918   6.595   3.194  13.741 -1.7515  0.0286  0.1089
16809TIP3    H271919   6.716   3.282  13.764 -0.9707 -0.4529 -2.0291
16810TIP3   OH271920   4.812   3.947  10.562  0.0004 -0.2791 -0.3713
16810TIP3    H171921   4.864   3.891  10.505 -0.0439 -0.3130 -0.3777
16810TIP3    H271922   4.859   4.031  10.562  0.8300 -0.7205  0.7180
16811TIP3   OH271923   4.223   1.118  11.066  0.0763  0.3238 -0.0804
16811TIP3    H171924   4.279   1.079  11.132 -1.5935  0.6015  1.5495
16811TIP3    H271925   4.149   1.058  11.058 -2.0955  2.6392  1.8379
16812TIP3   OH271926   0.371   2.630   0.654  0.3504  0.0553 -0.3554
16812TIP3    H171927   0.363   2.635   0.559 -0.5967 -1.8047 -0.3914
16812TIP3    H271928   0.408   2.544   0.671  1.2078  0.6686  0.9318
16813TIP3   OH271929   4.589   5.133  17.167 -0.5078  0.0358 -0.2180
16813TIP3    H171930   4.512   5.106  17.117 -0.2125 -0.5659 -0.3490
16813TIP3    H271931   4.633   5.198  17.111  0.8617 -2.0275 -1.5915
16814TIP3   OH271932   1.084   4.861   4.594  0.4964 -0.2294 -0.7866
16814TIP3    H171933   1.080   4.914   4.515  0.9279  0.9554 -0.0350
16814TIP3    H271934   1.002   4.881   4.640  0.7885 -0.0016 -0.3657
16815TIP3   OH271935   0.133   0.594   1.681 -0.0127  0.3040 -0.3426
16815TIP3    H171936   0.049   0.560   1.650 -0.7291  1.2224  0.5286
16815TIP3    H271937   0.135   0.684   1.650  1.0877 -0.0048 -1.1709
16816TIP3   OH271938   2.591   0.467   5.305 -0.4401  0.3683  0.9455
16816TIP3    H171939   2.641   0.436   5.229  0.0896  0.6636  1.1698
16816TIP3    H271940   2.619   0.409   5.376  0.8202  1.5523  1.4522
16817TIP3   OH271941   4.600   5.132   5.845  0.4163 -0.3587 -0.4580
16817TIP3    H171942   4.585   5.191   5.919 -0.2211  1.4282 -1.9492
16817TIP3    H271943   4.513   5.099   5.823  0.5234 -0.4431 -0.7593
16818TIP3   OH271944   2.949   3.049   0.979  0.1779 -0.5382 -0.3348
16818TIP3    H171945   2.858   3.059   1.007  0.9258  2.6015  1.1874
16818TIP3    H271946   2.994   3.015   1.056  0.4781 -1.1488 -0.7772
16819TIP3   OH271947   5.883   2.116   2.485 -0.2311 -0.2278 -0.2098
16819TIP3    H171948   5.920   2.088   2.569 -0.8135  1.2243  0.5482
16819TIP3    H271949   5.959   2.142   2.433 -0.1386  3.4865  1.6157
16820TIP3   OH271950   1.656   4.743   4.459 -0.2411  0.0173 -0.2893
16820TIP3    H171951   1.739   4.698   4.479 -0.7190 -1.1773 -0.9447
16820TIP3    H271952   1.669   4.779   4.372 -1.6289 -3.2277 -1.9338
16821TIP3   OH271953   2.380   0.458   0.191  0.1011 -0.4320  0.0201
16821TIP3    H171954   2.439   0.514   0.242  0.0966 -2.0596  1.8382
16821TIP3    H271955   2.334   0.519   0.134  2.5208  1.0436 -0.4451
16822TIP3   OH271956   6.324   5.192   2.716  0.3981  0.3984  0.3057
16822TIP3    H171957   6.357   5.281   2.703 -2.1569  1.2526 -0.5322
16822TIP3    H271958   6.249   5.185   2.656 -0.0803 -1.9509  1.1422
16823TIP3   OH271959   2.957   0.919   0.501 -0.3229  0.9255  0.4462
16823TIP3    H171960   2.879   0.865   0.485 -2.1057  3.0368  1.6923
16823TIP3    H271961   2.998   0.880   0.578  0.8621 -1.2279 -1.2110
16824TIP3   OH271962   1.653   0.408  12.773 -0.0272 -0.1579  0.0511
16824TIP3    H171963   1.682   0.348  12.704 -2.1904 -0.5933 -0.5218
16824TIP3    H271964   1.574   0.449  12.738  1.5646  3.3373  0.2953
16825TIP3   OH271965   3.875   6.482   0.165  0.3704  0.2753  0.3386
16825TIP3    H171966   3.952   6.476   0.107  0.5991  1.1718  0.5494
16825TIP3    H271967   3.909   6.518   0.246  0.4280 -2.7955  1.7673
16826TIP3   OH271968   0.843   1.907  13.361  0.0701  0.1661 -0.1428
16826TIP3    H171969   0.748   1.897  13.365  0.0069  0.9969  0.7523
16826TIP3    H271970   0.876   1.850  13.431  0.2954 -0.8802 -1.0982
16827TIP3   OH271971   2.028   0.813  14.826 -0.2422  0.1510  0.1837
16827TIP3    H171972   1.989   0.739  14.779 -0.5264 -0.6416  1.6013
16827TIP3    H271973   1.963   0.883  14.820 -0.7480 -0.3013  0.2945
16828TIP3   OH271974   6.184   3.008   5.052  0.0755  0.0492  0.1602
16828TIP3    H171975   6.167   3.054   4.970 -0.4772 -0.3956  0.0205
16828TIP3    H271976   6.275   2.979   5.045 -0.2269 -0.7117 -0.6506
16829TIP3   OH271977   3.654   4.680  12.277 -0.2150 -0.0566  0.4255
16829TIP3    H171978   3.656   4.761  12.328 -0.0019 -0.0855  0.4638
16829TIP3    H271979   3.732   4.633  12.304  1.9279  1.5603 -2.6105
16830TIP3   OH271980   1.434   0.560  14.417 -0.2522  0.1311 -0.1254
16830TIP3    H171981   1.526   0.546  14.394 -0.2456  0.5047 -0.3356
16830TIP3    H271982   1.405   0.476  14.452  0.5645  0.4467  1.3132
16831TIP3   OH271983   1.697   5.084   4.525 -0.4009 -0.1517 -0.3864
16831TIP3    H171984   1.730   4.994   4.521  1.1113  0.3659  0.3862
16831TIP3    H271985   1.670   5.095   4.616  2.0045  1.0745  0.2073
16832TIP3   OH271986   3.772   0.101  13.606  0.3046  0.1524 -0.3514
16832TIP3    H171987   3.806   0.161  13.673  0.8990 -0.5225 -0.0487
16832TIP3    H271988   3.686   0.076  13.639 -0.3906  1.6285 -0.9732
16833TIP3   OH271989   3.002   4.438  13.930  0.6025  0.1473  0.5597
16833TIP3    H171990   2.931   4.408  13.873 -1.3592 -0.2722  3.1339
16833TIP3    H271991   3.026   4.524  13.895  0.4988 -0.7312 -1.7751
16834TIP3   OH271992   3.449   6.125  11.656  0.2241 -0.5768 -0.3417
16834TIP3    H171993   3.459   6.136  11.562 -0.6423  2.7379 -0.1150
16834TIP3    H271994   3.539   6.130  11.691  0.6206 -2.5365 -0.9898
16835TIP3   OH271995   1.919   0.706   3.131  0.4843 -0.5605  0.3765
16835TIP3    H171996   1.986   0.748   3.077 -0.9251  0.0565 -0.9219
16835TIP3    H271997   1.852   0.773   3.143 -0.2142 -1.3763  1.1186
16836TIP3   OH271998   3.564   5.513   1.056  0.0372 -0.2904  0.0458
16836TIP3    H171999   3.493   5.570   1.084 -0.8952 -2.0785  1.3973
16836TIP3    H272000   3.566   5.522   0.961 -1.7194  0.1045  0.0353
16837TIP3   OH272001   2.612   2.279   0.373  0.8094 -0.3634  0.3782
16837TIP3    H172002   2.635   2.365   0.337  0.0514 -0.6299 -0.7454
16837TIP3    H272003   2.527   2.292   0.415  0.8832 -0.4692  0.5611
16838TIP3   OH272004   2.147   1.910  11.505  0.0056 -0.3198 -0.0932
16838TIP3    H172005   2.230   1.909  11.457  0.7782 -0.6078  1.1990
16838TIP3    H272006   2.092   1.846  11.460  0.8383 -0.8469 -0.3840
16839TIP3   OH272007   2.473   6.817  12.254 -0.7254 -0.0434  0.1528
16839TIP3    H172008   2.506   6.847  12.339 -0.0434  2.0750 -0.8075
16839TIP3    H272009   2.387   6.858  12.247 -0.5549  0.2302 -0.3887
16840TIP3   OH272010   6.532   0.267  13.068  0.3125  0.5591 -0.1541
16840TIP3    H172011   6.596   0.196  13.069 -0.8006 -0.4507 -0.1536
16840TIP3    H272012   6.550   0.314  12.987  1.2354  0.4460 -0.0198
16841TIP3   OH272013   2.429   2.194   3.525 -0.1840 -0.6095 -0.1300
16841TIP3    H172014   2.352   2.208   3.581  0.0719  0.0248  0.0564
16841TIP3    H272015   2.500   2.238   3.570 -0.2578  1.0741 -1.6368
16842TIP3   OH272016   4.916   1.252  15.246 -0.2884 -0.2009  0.1988
16842TIP3    H172017   4.894   1.165  15.278  0.8053 -1.3116 -1.9277
16842TIP3    H272018   4.845   1.274  15.185  0.7372 -0.7211 -1.2086
16843TIP3   OH272019   1.841   3.319  16.177 -0.4199 -0.0713  0.2310
16843TIP3    H172020   1.841   3.355  16.266  1.3202  0.9604 -0.1526
16843TIP3    H272021   1.921   3.354  16.137 -0.0724 -2.2482 -1.0488
16844TIP3   OH272022   6.364   0.848  12.448 -0.1730  0.1732 -0.0056
16844TIP3    H172023   6.368   0.801  12.365  1.4525 -0.7037  0.5471
16844TIP3    H272024   6.406   0.933  12.429 -3.2697  1.5496 -1.0467
16845TIP3   OH272025   1.449   3.542   3.564 -0.6926  0.7226  0.4131
16845TIP3    H172026   1.539   3.513   3.550 -0.5410  0.5865  1.5811
16845TIP3    H272027   1.442   3.553   3.659 -1.7679  1.1888  0.2875
16846TIP3   OH272028   6.270   0.202  14.781 -0.3009 -0.5413 -0.7772
16846TIP3    H172029   6.298   0.255  14.856 -0.9319  1.5354 -1.9598
16846TIP3    H272030   6.351   0.186  14.732 -0.0935 -0.7462 -0.3679
16847TIP3   OH272031   3.613   1.545   5.560 -0.6264  0.2794 -0.2293
16847TIP3    H172032   3.560   1.548   5.639  1.4260  0.4716  1.1911
16847TIP3    H272033   3.660   1.628   5.559 -1.0755  0.5428 -1.9892
16848TIP3   OH272034   4.288   5.253  16.741  0.4586 -0.0130  0.0145
16848TIP3    H172035   4.242   5.335  16.722  1.4241  0.3864 -0.6552
16848TIP3    H272036   4.220   5.186  16.737 -0.2883  0.7221  0.2724
16849TIP3   OH272037   3.101   4.508   2.080  0.1284 -0.0577 -0.1331
16849TIP3    H172038   3.170   4.560   2.121  0.3708  1.1605 -2.0027
16849TIP3    H272039   3.146   4.439   2.033 -0.0769 -0.7741  0.7242
16850TIP3   OH272040   5.648   4.234   4.483  0.3683  0.1190 -0.4321
16850TIP3    H172041   5.561   4.205   4.511  0.8886 -2.4350 -1.3858
16850TIP3    H272042   5.666   4.184   4.404  3.0005  0.1421  0.1150
16851TIP3   OH272043   1.456   6.284  16.944  0.2342  0.0417 -0.3011
16851TIP3    H172044   1.472   6.240  16.860  0.0820 -1.5278  0.4646
16851TIP3    H272045   1.515   6.240  17.005 -0.7963  0.0883  0.7465
16852TIP3   OH272046   1.118   5.885  11.365  0.8898 -0.3846  0.0191
16852TIP3    H172047   1.208   5.859  11.343  1.7444  0.9086  1.7942
16852TIP3    H272048   1.101   5.841  11.449 -0.2128 -0.7536 -0.3920
16853TIP3   OH272049   1.492   2.216  12.743  0.2395  0.2453 -0.2956
16853TIP3    H172050   1.549   2.206  12.667  1.0402 -0.0465  0.3366
16853TIP3    H272051   1.508   2.306  12.773  1.0763 -0.1552  0.4514
16854TIP3   OH272052   6.815   6.446   5.330 -0.4325  0.1639 -0.1066
16854TIP3    H172053   6.830   6.526   5.380 -0.7704 -0.9142  1.7685
16854TIP3    H272054   6.831   6.471   5.239  2.0526  1.7304  0.7082
16855TIP3   OH272055   6.758   6.451  12.231  0.4907  0.1043 -0.4972
16855TIP3    H172056   6.678   6.438  12.281 -0.2281 -0.4018 -1.7638
16855TIP3    H272057   6.804   6.521  12.278 -0.7365  0.4905  0.1613
16856TIP3   OH272058   4.367   0.720  15.577  0.1858  0.2662 -0.4114
16856TIP3    H172059   4.366   0.814  15.592 -0.1487  0.4522 -1.5263
16856TIP3    H272060   4.410   0.709  15.492 -1.8749 -0.3925 -1.4121
16857TIP3   OH272061   1.262   4.952  14.439  0.2000 -0.3053  0.7424
16857TIP3    H172062   1.235   4.864  14.465  0.0690 -0.0193  1.6110
16857TIP3    H272063   1.213   5.010  14.498 -0.7396  0.4021 -0.7181
16858TIP3   OH272064   2.876   1.226  14.150  0.2327 -0.2935 -0.4178
16858TIP3    H172065   2.782   1.241  14.136 -0.0135 -0.8410  0.6285
16858TIP3    H272066   2.913   1.314  14.155 -0.9487  0.0782  3.8422
16859TIP3   OH272067   4.708   4.168  11.775 -0.1263 -0.7763  0.3409
16859TIP3    H172068   4.789   4.127  11.804  1.3768  0.7577 -1.5383
16859TIP3    H272069   4.706   4.253  11.820 -1.0189 -1.0703  0.8682
16860TIP3   OH272070   5.857   3.893   5.557  0.4618  0.7209 -0.0094
16860TIP3    H172071   5.778   3.862   5.513  1.4124  1.5958 -2.4134
16860TIP3    H272072   5.876   3.826   5.622  0.3751 -1.8753 -2.5750
16861TIP3   OH272073   6.236   5.421  15.731 -0.2900  1.0732 -0.0012
16861TIP3    H172074   6.164   5.359  15.721  0.2021  0.3848  0.7121
16861TIP3    H272075   6.294   5.403  15.657  0.4886 -0.1793  0.9016
16862TIP3   OH272076   0.989   6.595  16.235  0.6465 -0.0474  0.7320
16862TIP3    H172077   0.957   6.566  16.320  0.4226  1.2075  1.0955
16862TIP3    H272078   0.980   6.691  16.238 -2.0771 -0.1503 -1.7642
16863TIP3   OH272079   4.142   5.638  15.984  0.6100  0.6357  0.5156
16863TIP3    H172080   4.150   5.622  15.890 -1.1494  1.6001  0.1842
16863TIP3    H272081   4.230   5.666  16.011  1.1969  0.0847 -0.7682
16864TIP3   OH272082   2.338   6.403   4.107  0.1864  0.1838 -0.3960
16864TIP3    H172083   2.247   6.383   4.083  0.3492 -0.0605 -0.8141
16864TIP3    H272084   2.340   6.392   4.202 -0.0886 -0.3474 -0.4493
16865TIP3   OH272085   3.552   6.613   4.129  0.6874 -0.1574 -0.0133
16865TIP3    H172086   3.617   6.682   4.141 -0.5025  0.9010  0.5122
16865TIP3    H272087   3.571   6.550   4.198  2.0966 -0.6281 -0.8078
16866TIP3   OH272088   6.266   1.641   2.043 -0.5449 -0.3481 -0.0582
16866TIP3    H172089   6.282   1.715   1.985 -0.4391 -0.0211  0.3864
16866TIP3    H272090   6.173   1.622   2.033 -0.7692  0.4142  0.4908
16867TIP3   OH272091   1.089   5.170   3.761  0.2493  0.4923  0.0600
16867TIP3    H172092   1.143   5.151   3.684 -0.2368 -0.6760  0.0003
16867TIP3    H272093   1.107   5.097   3.821 -1.1630  0.1566  0.0869
16868TIP3   OH272094   6.498   2.057   2.060 -0.2673  0.3526 -0.6974
16868TIP3    H172095   6.574   2.060   2.118  0.7707  0.7421 -2.0500
16868TIP3    H272096   6.443   1.987   2.095  0.5343  0.3211  0.5078
16869TIP3   OH272097   1.503   1.279   3.449 -0.2402 -0.2463  0.1463
16869TIP3    H172098   1.542   1.366   3.438  0.0072 -0.5306 -1.2208
16869TIP3    H272099   1.440   1.291   3.521 -0.0584  1.0113  0.1132
16870TIP3   OH272100   1.691   4.953  14.242 -0.2559 -0.2546  0.0452
16870TIP3    H172101   1.619   5.014  14.257  0.6029  0.9484 -0.7333
16870TIP3    H272102   1.662   4.872  14.285 -1.7752  0.4158  0.3204
16871TIP3   OH272103   4.729   3.120  13.440 -0.1905 -0.0696 -1.0006
16871TIP3    H172104   4.713   3.214  13.441  0.9416  0.1265 -0.8738
16871TIP3    H272105   4.781   3.103  13.519 -0.2678 -0.7722 -1.0976
16872TIP3   OH272106   5.772   2.940   6.375  0.1835 -0.3934 -0.0324
16872TIP3    H172107   5.709   2.873   6.348  0.7447 -1.2286  0.7402
16872TIP3    H272108   5.727   3.023   6.356 -0.4552 -0.9761 -1.1114
16873TIP3   OH272109   4.997   5.626  14.232 -0.2684 -0.0176 -0.5005
16873TIP3    H172110   4.979   5.622  14.326 -0.7238 -0.4945 -0.6090
16873TIP3    H272111   5.092   5.610  14.226 -0.1413  0.5549 -0.0830
16874TIP3   OH272112   4.465   4.461   5.032 -0.0488  0.2333 -0.2578
16874TIP3    H172113   4.558   4.439   5.025  0.1296  1.1290 -0.8155
16874TIP3    H272114   4.464   4.542   5.083 -0.5758 -0.1014  0.2767
16875TIP3   OH272115   3.318   5.548   4.988  0.6716  0.3587  0.2878
16875TIP3    H172116   3.232   5.519   4.957  0.5052  0.7790  0.3474
16875TIP3    H272117   3.316   5.643   4.979  1.4547  0.3074 -0.5206
16876TIP3   OH272118   5.636   3.225  16.997 -0.2922 -0.4118 -0.6874
16876TIP3    H172119   5.704   3.175  17.042 -0.4620 -0.9604 -1.0254
16876TIP3    H272120   5.598   3.163  16.935 -0.6558  0.0822 -0.9621
16877TIP3   OH272121   5.576   2.846  14.814 -0.4380  0.0368  0.3825
16877TIP3    H172122   5.629   2.774  14.848  1.5234  1.6713  0.8897
16877TIP3    H272123   5.499   2.850  14.871  0.0094 -0.9066  1.0460
16878TIP3   OH272124   2.178   2.298   1.921  0.0409 -0.0462 -0.6136
16878TIP3    H172125   2.163   2.212   1.882  2.6003 -0.4405 -0.8052
16878TIP3    H272126   2.144   2.360   1.857 -1.6999 -0.8944 -0.5371
16879TIP3   OH272127   3.659   1.265  17.149 -0.3386  0.2835  0.5035
16879TIP3    H172128   3.731   1.247  17.209  1.2471  2.1648 -0.7221
16879TIP3    H272129   3.605   1.330  17.194  1.1350  2.0876 -0.2212
16880TIP3   OH272130   1.808   1.979   4.667  0.9204 -0.0410  0.3925
16880TIP3    H172131   1.764   1.942   4.744 -2.3957 -0.2194 -1.4914
16880TIP3    H272132   1.827   2.070   4.691 -1.7571  0.4375  0.8078
16881TIP3   OH272133   5.870   2.790  17.199  0.3023  0.1031  0.5851
16881TIP3    H172134   5.886   2.850  17.127  1.2285 -0.0235  0.6745
16881TIP3    H272135   5.945   2.730  17.197 -0.9829 -1.5297  0.0149
16882TIP3   OH272136   3.795   2.549  12.929 -0.1337  0.2894 -0.2405
16882TIP3    H172137   3.821   2.631  12.886  1.1631 -0.2198 -0.4253
16882TIP3    H272138   3.790   2.571  13.022  3.2222 -0.1570  0.0893
16883TIP3   OH272139   5.605   1.149   1.852  0.4536 -0.2964  0.2438
16883TIP3    H172140   5.521   1.150   1.898  1.3943  1.9770  1.9691
16883TIP3    H272141   5.599   1.072   1.795 -2.9243 -0.0123  0.0616
16884TIP3   OH272142   6.065   3.310  14.530  0.0289 -0.2938 -0.6806
16884TIP3    H172143   5.977   3.276  14.541  0.4008 -0.4062  2.2404
16884TIP3    H272144   6.116   3.236  14.496 -0.5668 -0.7691 -0.5360
16885TIP3   OH272145   4.278   5.193  13.965 -0.5348  0.5109 -0.4016
16885TIP3    H172146   4.321   5.219  13.884 -0.7105 -1.5035 -1.1871
16885TIP3    H272147   4.345   5.142  14.011 -0.7076  0.9416  0.3281
16886TIP3   OH272148   1.929   5.906   5.247 -0.2145  0.6351 -0.1553
16886TIP3    H172149   1.984   5.979   5.218  0.2983  0.4768  0.4222
16886TIP3    H272150   1.989   5.832   5.256 -0.9682 -0.3144 -2.3193
16887TIP3   OH272151   1.562   3.860  14.544  0.4429 -0.1395  0.8267
16887TIP3    H172152   1.582   3.940  14.593 -0.3322 -0.3079  1.4312
16887TIP3    H272153   1.474   3.874  14.511  0.5609 -0.4741  0.3698
16888TIP3   OH272154   1.767   5.738   3.561 -0.2527  0.0238 -0.1950
16888TIP3    H172155   1.776   5.786   3.479 -0.7907 -1.2677 -1.0189
16888TIP3    H272156   1.857   5.728   3.592  0.2427 -2.0557 -2.1476
16889TIP3   OH272157   4.635   0.525  13.936  0.5454 -0.0458  0.5626
16889TIP3    H172158   4.721   0.515  13.895  0.2086  0.1379 -0.2051
16889TIP3    H272159   4.650   0.507  14.028  1.3405 -0.3822  0.3733
16890TIP3   OH272160   5.650   1.557   4.601 -0.5172 -0.1974 -0.5229
16890TIP3    H172161   5.581   1.552   4.667 -1.3179 -0.4621 -1.3632
16890TIP3    H272162   5.728   1.521   4.644 -0.4799  1.5786  0.9562
16891TIP3   OH272163   6.380   0.576   4.624  0.2102  0.4422  0.2128
16891TIP3    H172164   6.310   0.540   4.570 -0.7326  0.4482  1.4266
16891TIP3    H272165   6.353   0.559   4.714  2.1343 -0.2387  0.6802
16892TIP3   OH272166   6.607   4.983  14.315  0.0406 -0.2358  0.1754
16892TIP3    H172167   6.618   5.059  14.258 -3.1732 -1.4037 -2.1613
16892TIP3    H272168   6.650   4.912  14.268 -0.8751 -0.7996  0.1904
16893TIP3   OH272169   4.912   2.048   3.103  0.3521  0.4061  0.8287
16893TIP3    H172170   4.844   2.115   3.099 -1.0048 -0.8945  1.2473
16893TIP3    H272171   4.928   2.024   3.012 -1.1513 -0.6175  0.8160
16894TIP3   OH272172   3.048   6.142   3.902  0.6548  0.0829  0.6355
16894TIP3    H172173   3.077   6.193   3.826 -0.2494 -0.5364 -0.1477
16894TIP3    H272174   2.952   6.152   3.902  0.7512  1.2906  2.5889
16895TIP3   OH272175   4.964   3.623   5.322 -0.7102  0.1543 -0.1734
16895TIP3    H172176   4.937   3.712   5.344 -0.2677  0.6695 -1.6614
16895TIP3    H272177   5.052   3.614   5.358 -0.7355  0.3305 -0.0700
16896TIP3   OH272178   2.824   1.384  14.575  0.6175 -0.7610  0.1625
16896TIP3    H172179   2.857   1.435  14.649  0.6027 -0.2022 -0.2094
16896TIP3    H272180   2.729   1.386  14.586  0.4989  1.0718 -0.9983
16897TIP3   OH272181   5.903   0.979   4.412 -0.1033  0.1758 -0.1310
16897TIP3    H172182   5.838   0.931   4.361  0.3448 -3.1140  2.2850
16897TIP3    H272183   5.987   0.954   4.373 -0.0006  1.4747 -0.8064
16898TIP3   OH272184   5.894   2.085   4.072 -0.0541 -0.0819 -0.2601
16898TIP3    H172185   5.829   2.016   4.058 -0.2741  0.4858 -2.1713
16898TIP3    H272186   5.971   2.056   4.024  0.5775  0.0123  0.6778
16899TIP3   OH272187   4.073   4.934  14.349  0.1632  0.2072 -0.1909
16899TIP3    H172188   4.077   4.957  14.256 -1.6252 -0.3761 -0.4348
16899TIP3    H272189   3.993   4.882  14.357 -0.1331  0.9305  1.8255
16900TIP3   OH272190   2.140   0.755   2.949  0.5171  0.0608  0.1987
16900TIP3    H172191   2.142   0.708   2.866  2.8487  0.7296 -0.1451
16900TIP3    H272192   2.195   0.704   3.008  0.0247  0.3590  0.9382
16901TIP3   OH272193   3.723   1.979  12.058  0.1505  0.3583 -0.7036
16901TIP3    H172194   3.794   1.918  12.077 -0.3312  0.1497  0.4997
16901TIP3    H272195   3.739   2.008  11.969  0.6550 -1.1676 -1.1237
16902TIP3   OH272196   3.547   0.560  16.862  0.3491  0.4042  0.4324
16902TIP3    H172197   3.578   0.487  16.808 -0.8997 -0.8538  1.3844
16902TIP3    H272198   3.529   0.630  16.799  1.5979 -0.0905 -0.4891
16903TIP3   OH272199   1.488   4.665   3.524 -0.5794 -0.2400  0.7211
16903TIP3    H172200   1.463   4.694   3.437  0.9306  1.4024  0.8008
16903TIP3    H272201   1.414   4.612   3.554 -0.3035 -2.4568 -2.2862
16904TIP3   OH272202   3.789   1.763   1.733 -0.4741  0.3037  0.3194
16904TIP3    H172203   3.779   1.770   1.638  0.4288 -1.1624  0.0963
16904TIP3    H272204   3.791   1.668   1.750 -0.7366  0.5553  1.8107
16905TIP3   OH272205   5.198   1.705  13.387 -0.0217 -0.2775  0.0410
16905TIP3    H172206   5.189   1.703  13.291 -1.9899  0.7705  0.1649
16905TIP3    H272207   5.179   1.796  13.410 -0.8022 -0.8128  1.5433
16906TIP3   OH272208   5.485   6.346  17.040 -0.4036  0.0457 -0.4241
16906TIP3    H172209   5.447   6.263  17.011  3.5270 -1.6678 -1.0796
16906TIP3    H272210   5.517   6.388  16.960 -0.1748  0.9859  0.1553
16907TIP3   OH272211   6.235   2.197   1.495 -0.2150 -0.4810 -0.7896
16907TIP3    H172212   6.328   2.200   1.470 -1.0345  0.2751 -3.9242
16907TIP3    H272213   6.215   2.287   1.520  0.2008 -0.9268  1.2939
16908TIP3   OH272214   1.290   0.164   0.892  0.0108  0.5377  0.1386
16908TIP3    H172215   1.223   0.224   0.862  0.8543  2.1320  1.3809
16908TIP3    H272216   1.309   0.191   0.982 -0.6402 -2.5171  1.2812
16909TIP3   OH272217   4.502   5.897   1.835 -0.1574  0.4018  0.0833
16909TIP3    H172218   4.452   5.815   1.838 -0.1142  0.3120 -1.1412
16909TIP3    H272219   4.580   5.880   1.887  0.5494 -0.8226 -1.3536
16910TIP3   OH272220   1.589   5.161  11.076  0.2251  0.2876 -0.0000
16910TIP3    H172221   1.643   5.206  11.140  0.0377 -0.4250  0.6655
16910TIP3    H272222   1.500   5.192  11.094  0.1931  0.2109 -0.0285
16911TIP3   OH272223   1.346   3.058  11.714  0.0971 -0.4691  0.6793
16911TIP3    H172224   1.350   3.003  11.635 -0.3203  0.2594  0.1465
16911TIP3    H272225   1.388   3.140  11.689  2.8752 -1.3731  2.1979
16912TIP3   OH272226   0.620   3.995   1.280 -0.2783 -0.3868  0.4590
16912TIP3    H172227   0.692   4.000   1.217 -1.4139 -0.3892 -0.8619
16912TIP3    H272228   0.545   3.965   1.229 -1.9654  2.4126  1.1798
16913TIP3   OH272229   2.741   5.334   5.864  0.0868  0.3326 -0.2573
16913TIP3    H172230   2.703   5.375   5.786 -1.5491 -0.1755  0.2656
16913TIP3    H272231   2.743   5.403   5.929  1.7986  0.8617 -0.8257
16914TIP3   OH272232   6.699   2.455  15.348  0.5930  0.6819  0.0602
16914TIP3    H172233   6.675   2.438  15.257  1.4991  1.6443 -0.3790
16914TIP3    H272234   6.656   2.538  15.369  1.3141  1.0531  0.1170
16915TIP3   OH272235   6.478   5.202   0.492 -0.8637  0.1707 -0.3287
16915TIP3    H172236   6.411   5.216   0.426 -0.8490  1.5342 -0.0777
16915TIP3    H272237   6.554   5.172   0.443 -1.0971  0.4000 -0.8390
16916TIP3   OH272238   2.482   3.797   0.963 -0.6668 -0.1488  0.2607
16916TIP3    H172239   2.419   3.863   0.935  0.7384 -0.1223 -3.0694
16916TIP3    H272240   2.564   3.845   0.977 -0.3066 -0.7888  0.4156
16917TIP3   OH272241   2.029   1.239  10.661  0.1061 -0.4289  0.4339
16917TIP3    H172242   1.969   1.287  10.604  0.8211  1.6526  1.3546
16917TIP3    H272243   2.084   1.308  10.700  1.8456 -2.1099  1.0255
16918TIP3   OH272244   4.653   3.171   0.163 -0.2850  0.2048 -0.1838
16918TIP3    H172245   4.595   3.105   0.202 -0.1897  0.9085  1.1815
16918TIP3    H272246   4.739   3.128   0.159 -0.1625  0.3282  0.9476
16919TIP3   OH272247   6.329   5.245  11.860  0.6563 -0.2937  0.1787
16919TIP3    H172248   6.421   5.219  11.862  0.8742  0.6013  2.1887
16919TIP3    H272249   6.329   5.332  11.820  0.6629 -0.3610  0.0315
16920TIP3   OH272250   2.763   4.086  12.634 -0.2452 -0.6424 -0.1066
16920TIP3    H172251   2.834   4.023  12.622 -0.1022 -0.5439  0.2158
16920TIP3    H272252   2.699   4.041  12.689  0.9399  0.3106  2.1325
16921TIP3   OH272253   2.494   6.722   4.325  0.2268 -0.0263  0.6902
16921TIP3    H172254   2.522   6.787   4.389 -0.8661  0.6409  0.4991
16921TIP3    H272255   2.439   6.661   4.374  0.0191  0.0457  0.5467
16922TIP3   OH272256   3.938   6.529  13.101  0.1872  0.0401  0.2170
16922TIP3    H172257   4.030   6.503  13.106  0.2173  0.2996  1.0020
16922TIP3    H272258   3.897   6.491  13.179 -0.3086  0.1784  0.0265
16923TIP3   OH272259   2.597   4.780  13.466  0.2173 -0.1917  0.7867
16923TIP3    H172260   2.625   4.839  13.536  0.8066 -0.1736  0.5372
16923TIP3    H272261   2.621   4.826  13.385 -0.3450 -0.2675  0.5689
16924TIP3   OH272262   1.433   1.460  13.971  0.4618  0.2503 -0.1256
16924TIP3    H172263   1.464   1.550  13.966  1.4612 -0.1711 -1.7809
16924TIP3    H272264   1.374   1.451  13.897 -0.3424 -0.2115  0.5537
16925TIP3   OH272265   6.201   4.427   5.296  0.5626  0.3867 -0.9536
16925TIP3    H172266   6.281   4.464   5.334  0.6688 -0.3931 -0.4235
16925TIP3    H272267   6.209   4.333   5.311 -1.0293  0.4250  0.1918
16926TIP3   OH272268   5.144   3.808   4.111  0.3421  0.2152  0.5872
16926TIP3    H172269   5.142   3.904   4.110  0.3463  0.2066 -0.0905
16926TIP3    H272270   5.068   3.783   4.164 -0.9090  0.5498 -1.0042
16927TIP3   OH272271   2.734   5.354   2.667  0.0796  0.5496 -0.1220
16927TIP3    H172272   2.659   5.387   2.716  0.0137 -2.2242  1.6970
16927TIP3    H272273   2.809   5.366   2.726  0.6359  0.7330 -0.8511
16928TIP3   OH272274   5.986   2.785  15.481  0.1301  0.0673  0.4629
16928TIP3    H172275   6.074   2.750  15.471  0.8145  2.3932 -2.3156
16928TIP3    H272276   5.998   2.870  15.522 -0.7434  0.7049 -0.5787
16929TIP3   OH272277   4.000   3.244  13.882  0.2714 -0.0254 -0.1474
16929TIP3    H172278   3.948   3.222  13.959  0.9738  0.1201  0.3762
16929TIP3    H272279   3.987   3.171  13.822 -0.4210 -0.0549  0.0330
16930TIP3   OH272280   2.916   1.490   1.931  0.1093 -0.3619 -0.0711
16930TIP3    H172281   2.895   1.479   2.024  0.5593 -0.2359  0.0468
16930TIP3    H272282   2.997   1.441   1.919  0.8929  0.8956 -0.0469
16931TIP3   OH272283   2.072   6.731   2.584  0.1465 -0.3038 -0.0049
16931TIP3    H172284   2.046   6.676   2.658 -0.8856 -0.0227 -0.1516
16931TIP3    H272285   1.996   6.788   2.569  1.2419  1.2369  0.2274
16932TIP3   OH272286   4.680   6.591   4.796  0.7771 -0.1676  0.1599
16932TIP3    H172287   4.756   6.612   4.742  0.7158 -0.4557 -0.0436
16932TIP3    H272288   4.711   6.598   4.886  1.1826 -0.7795  0.0747
16933TIP3   OH272289   1.290   4.085  13.120 -0.2134  0.5051  0.7883
16933TIP3    H172290   1.368   4.133  13.149  0.1498  1.2372 -1.3585
16933TIP3    H272291   1.313   4.052  13.033 -1.4589 -1.2882  1.1227
16934TIP3   OH272292   1.811   6.799  16.185 -0.7360  0.2117  0.2018
16934TIP3    H172293   1.765   6.824  16.265 -2.4176 -0.8851 -0.3965
16934TIP3    H272294   1.764   6.846  16.116  0.9771  1.4946 -0.1281
16935TIP3   OH272295   6.007   6.185  16.072  0.3525 -0.3211 -0.0141
16935TIP3    H172296   5.947   6.113  16.054 -0.2243 -0.2388  1.4674
16935TIP3    H272297   5.968   6.260  16.027 -0.1175 -0.4953  0.1009
16936TIP3   OH272298   3.406   1.640   4.401  0.1397  0.1269 -0.1476
16936TIP3    H172299   3.317   1.669   4.425 -0.2589 -0.1203 -1.3134
16936TIP3    H272300   3.425   1.570   4.464 -0.3070  0.4878  0.4036
16937TIP3   OH272301   0.692   4.857  13.338  0.4343  0.9610  0.1097
16937TIP3    H172302   0.783   4.842  13.365  0.1384 -0.1650  0.5183
16937TIP3    H272303   0.685   4.952  13.331  1.1874  1.1566  1.6951
16938TIP3   OH272304   6.722   6.057  10.708  0.4334 -0.0860 -0.4513
16938TIP3    H172305   6.641   6.085  10.664  0.6190 -0.2879 -0.9301
16938TIP3    H272306   6.769   6.139  10.724  1.1399 -0.1220 -2.1761
16939TIP3   OH272307   3.006   2.605  13.723  0.6065  0.1268 -0.5084
16939TIP3    H172308   3.062   2.678  13.696 -2.0584  2.7089  0.6243
16939TIP3    H272309   3.066   2.540  13.758  2.9773  2.3711 -0.2533
16940TIP3   OH272310   1.092   5.548   3.359  0.1935 -0.3390  0.3305
16940TIP3    H172311   1.184   5.566   3.339 -0.7525  2.7848 -1.6086
16940TIP3    H272312   1.071   5.608   3.431 -0.4415 -0.6495  0.4056
16941TIP3   OH272313   4.827   1.590  13.241 -0.3239  0.0214  0.0600
16941TIP3    H172314   4.753   1.565  13.185 -1.1671  2.4013  0.0552
16941TIP3    H272315   4.904   1.560  13.193 -1.1973 -0.8560 -0.8266
16942TIP3   OH272316   4.651   1.139  14.743  0.2367 -0.1421 -0.2018
16942TIP3    H172317   4.739   1.144  14.780  0.7143  1.4108 -1.4847
16942TIP3    H272318   4.640   1.222  14.697 -1.5298 -0.7244 -0.8646
16943TIP3   OH272319   2.425   1.775   5.363  0.4877 -0.0231  0.2735
16943TIP3    H172320   2.348   1.772   5.306 -1.1162 -1.5248  2.4299
16943TIP3    H272321   2.416   1.857   5.412  1.6027  1.0221 -1.2335
16944TIP3   OH272322   5.409   6.495   1.896 -0.0105 -0.4910 -0.7587
16944TIP3    H172323   5.400   6.415   1.946 -1.2173  0.6019  0.8332
16944TIP3    H272324   5.380   6.472   1.808  0.8953 -2.1034 -0.6514
16945TIP3   OH272325   0.875   6.324   5.194 -0.3849 -0.0060  0.3706
16945TIP3    H172326   0.783   6.306   5.212  0.1941 -2.0514  1.3549
16945TIP3    H272327   0.921   6.307   5.276  1.1157 -0.8642 -0.5988
16946TIP3   OH272328   4.454   4.954  14.750  0.7837  0.3074  0.1695
16946TIP3    H172329   4.443   5.006  14.670  1.9611 -0.4866 -0.5193
16946TIP3    H272330   4.368   4.955  14.791  0.0482  0.3468 -1.3418
16947TIP3   OH272331   0.247   3.716   3.323 -0.1998  0.1234  0.4263
16947TIP3    H172332   0.233   3.625   3.350  1.8222  0.3198  2.2487
16947TIP3    H272333   0.182   3.766   3.373 -1.3999 -0.2932 -0.6735
16948TIP3   OH272334   5.246   4.425  11.677  0.0903 -0.6829  0.0697
16948TIP3    H172335   5.159   4.401  11.710 -0.6180  0.1946 -1.1030
16948TIP3    H272336   5.235   4.430  11.582  1.7823 -1.9586 -0.2251
16949TIP3   OH272337   1.113   6.418   4.334 -0.0961 -0.3808  0.7490
16949TIP3    H172338   1.039   6.472   4.304  0.7957  1.0651  1.1237
16949TIP3    H272339   1.161   6.397   4.254  0.4519  0.7417  0.7722
16950TIP3   OH272340   2.656   6.627  11.665  0.1349 -0.1064 -0.0807
16950TIP3    H172341   2.670   6.715  11.630  0.3964  0.2896  0.9893
16950TIP3    H272342   2.619   6.578  11.592 -0.1417  0.9256 -0.6507
16951TIP3   OH272343   5.311   3.816   3.425 -0.7004 -0.1122  0.1925
16951TIP3    H172344   5.306   3.738   3.481 -0.7391  0.8400  1.5623
16951TIP3    H272345   5.227   3.860   3.439 -0.9440 -0.1678 -1.0972
16952TIP3   OH272346   0.227   6.002   4.982  0.3992 -0.2030 -0.0392
16952TIP3    H172347   0.288   5.929   4.990 -0.0821 -0.4820  1.0712
16952TIP3    H272348   0.262   6.070   5.040 -0.7128 -0.6136  1.1123
16953TIP3   OH272349   0.286   1.260   1.045  0.8066 -0.3847 -0.3985
16953TIP3    H172350   0.342   1.209   0.987  1.0522  0.5796 -1.0296
16953TIP3    H272351   0.319   1.241   1.133  1.1350 -1.0072 -0.6525
16954TIP3   OH272352   6.594   4.467  14.402  0.0220 -0.0442 -0.5644
16954TIP3    H172353   6.545   4.397  14.360  0.8023 -0.2772 -1.1019
16954TIP3    H272354   6.528   4.519  14.448 -0.4655 -1.5826  0.4913
16955TIP3   OH272355   3.841   1.516   0.860  1.0719  0.1095 -0.7028
16955TIP3    H172356   3.807   1.550   0.943 -0.8021 -0.4870 -1.1892
16955TIP3    H272357   3.921   1.470   0.883  0.6379  0.0764  0.7556
16956TIP3   OH272358   0.872   6.277   0.017  0.1891 -0.4324 -0.4947
16956TIP3    H172359   0.855   6.281   0.111  1.7390  2.2570 -0.2581
16956TIP3    H272360   0.899   6.187   0.001  1.5382 -0.5118  1.9457
16957TIP3   OH272361   0.734   0.712   6.613 -0.2501 -0.8639  1.4961
16957TIP3    H172362   0.753   0.805   6.599  0.5789 -0.8101  2.8368
16957TIP3    H272363   0.639   0.708   6.623 -0.8286 -0.7872 -2.8565
16958TIP3   OH272364   6.613   3.883  14.960 -0.2973  0.0451 -0.4577
16958TIP3    H172365   6.626   3.966  14.915  1.7406 -0.9085 -1.6689
16958TIP3    H272366   6.698   3.862  14.998 -0.0259 -2.7828 -2.4552
16959TIP3   OH272367   3.212   0.617  14.352 -0.1464 -0.4934  0.6804
16959TIP3    H172368   3.158   0.618  14.273  0.6650  1.5649  0.1140
16959TIP3    H272369   3.156   0.655  14.420  0.3488  1.0460  0.2442
16960TIP3   OH272370   0.762   0.744  12.379 -0.5209 -0.3036  0.0086
16960TIP3    H172371   0.776   0.665  12.431  1.0065  0.2712  0.5175
16960TIP3    H272372   0.787   0.719  12.291 -1.9894 -0.9495 -0.2394
16961TIP3   OH272373   2.881   5.379   5.525 -0.6081  0.3969  0.3571
16961TIP3    H172374   2.910   5.380   5.434 -0.8128  1.5304  0.2972
16961TIP3    H272375   2.883   5.286   5.550  1.8143  0.3028 -0.0415
16962TIP3   OH272376   2.307   3.606   5.295 -0.1227  0.3383  0.4943
16962TIP3    H172377   2.214   3.607   5.319 -0.0804 -0.1868  0.6931
16962TIP3    H272378   2.325   3.515   5.272 -0.1080  0.7753 -1.3596
16963TIP3   OH272379   1.919   5.876  10.719  0.5053  0.3691  0.2388
16963TIP3    H172380   1.909   5.955  10.772 -0.8417  0.4489 -0.1169
16963TIP3    H272381   1.831   5.840  10.712  0.6429  0.3921 -1.9820
16964TIP3   OH272382   0.570   1.032   2.833 -0.0891 -0.2313 -0.2997
16964TIP3    H172383   0.631   1.106   2.826 -1.0949  0.8955  2.3041
16964TIP3    H272384   0.484   1.070   2.820 -0.5862 -1.0057  0.6748
16965TIP3   OH272385   0.122   2.922  14.396 -0.1271 -0.5567 -0.0482
16965TIP3    H172386   0.090   2.899  14.308  0.2968  0.6744 -0.5343
16965TIP3    H272387   0.085   3.008  14.413  0.2818 -0.5382  0.7446
16966TIP3   OH272388   1.327   5.263   2.899 -0.4014 -0.3349 -0.0765
16966TIP3    H172389   1.332   5.315   2.819  0.2704  0.3463  0.3962
16966TIP3    H272390   1.417   5.235   2.915 -0.5523 -0.5688  0.3765
16967TIP3   OH272391   4.869   5.062   4.673  0.0657  0.0713  0.2481
16967TIP3    H172392   4.889   5.059   4.579 -1.6403 -1.5688 -0.1012
16967TIP3    H272393   4.938   5.115   4.711  0.9815  0.4579 -1.9021
16968TIP3   OH272394   5.279   2.773  15.841  0.5196  0.2262  0.4567
16968TIP3    H172395   5.355   2.716  15.855  1.0330  0.4053 -1.4561
16968TIP3    H272396   5.210   2.736  15.896  0.7157 -2.5073 -1.0592
16969TIP3   OH272397   2.866   0.020   1.776  0.0515 -0.5858  0.3371
16969TIP3    H172398   2.872  -0.076   1.776 -1.1300 -0.6974  1.8862
16969TIP3    H272399   2.899   0.047   1.691  1.0284 -2.3347  0.1372
16970TIP3   OH272400   1.606   6.121  11.016 -0.7137 -0.4563 -0.0840
16970TIP3    H172401   1.548   6.151  10.947 -0.2645 -1.5085 -0.9451
16970TIP3    H272402   1.690   6.162  10.997 -1.2770  1.4690  1.4498
16971TIP3   OH272403   1.607   0.185   2.487  0.2903 -0.4137  0.2435
16971TIP3    H172404   1.700   0.165   2.484  0.6377  0.9839  1.1525
16971TIP3    H272405   1.603   0.279   2.506 -1.2888 -0.7062  1.5286
16972TIP3   OH272406   5.889   1.740  12.974 -0.3194 -0.0791  0.3322
16972TIP3    H172407   5.886   1.764  12.881  1.3785 -0.9979  0.0255
16972TIP3    H272408   5.964   1.788  13.008  1.4773 -2.7914  0.3156
16973TIP3   OH272409   5.013   5.560  15.631 -0.9516 -0.0354  0.0737
16973TIP3    H172410   5.108   5.559  15.645 -0.9969 -0.8400  0.3650
16973TIP3    H272411   4.981   5.628  15.690 -0.6690 -0.4881  0.7553
16974TIP3   OH272412   2.986   3.318   3.080  0.4697 -0.1574  0.3471
16974TIP3    H172413   3.009   3.369   3.002 -0.6744 -0.8938 -0.4719
16974TIP3    H272414   2.980   3.384   3.150 -0.0221  0.7058 -0.4940
16975TIP3   OH272415   0.553   4.600   3.467  0.0581 -0.1784  0.2774
16975TIP3    H172416   0.497   4.646   3.530 -0.1203 -1.5207  1.1159
16975TIP3    H272417   0.548   4.653   3.387  0.4262  1.6431  1.4306
16976TIP3   OH272418   4.514   1.962   0.330  0.2383 -0.1521 -0.0079
16976TIP3    H172419   4.466   2.037   0.367 -1.3139 -0.8956 -0.4495
16976TIP3    H272420   4.515   1.979   0.236  0.5546 -0.3188 -0.0332
16977TIP3   OH272421   3.158   1.653  13.330  0.0848  0.1348 -0.1854
16977TIP3    H172422   3.122   1.741  13.324  2.0262  0.8063 -2.7451
16977TIP3    H272423   3.101   1.608  13.393 -1.7104  2.7970  0.1745
16978TIP3   OH272424   0.850   6.752   1.258 -0.8902  0.0844  0.3543
16978TIP3    H172425   0.916   6.780   1.321  0.5706 -0.2053 -1.0088
16978TIP3    H272426   0.897   6.691   1.200 -2.4899 -0.5276 -0.3219
16979TIP3   OH272427   2.749   4.215  16.097  0.3710  0.3207  0.3635
16979TIP3    H172428   2.724   4.152  16.030  0.6886 -0.7246  1.2163
16979TIP3    H272429   2.795   4.284  16.049  0.7740 -0.5129 -0.4612
16980TIP3   OH272430   5.137   3.539   2.338  0.0256 -0.2566  0.3258
16980TIP3    H172431   5.079   3.559   2.264 -0.8094 -0.6967  0.8642
16980TIP3    H272432   5.155   3.446   2.330 -0.4452 -0.3995  0.9545
16981TIP3   OH272433   6.467   1.208  17.105  0.7612 -0.0671  0.2353
16981TIP3    H172434   6.467   1.179  17.196  1.4051  0.2038  0.3238
16981TIP3    H272435   6.378   1.239  17.090  0.4686 -0.7359  0.5721
16982TIP3   OH272436   3.376   0.935  14.815  0.1870  0.1816 -0.6669
16982TIP3    H172437   3.400   0.846  14.841  0.4964  0.4006 -0.1967
16982TIP3    H272438   3.420   0.949  14.731  1.7508  0.5982  0.2041
16983TIP3   OH272439   2.760   1.239   4.116 -0.4654 -0.3992  0.3037
16983TIP3    H172440   2.779   1.230   4.022  0.3849 -0.6701  0.4975
16983TIP3    H272441   2.676   1.285   4.119 -1.9479 -2.9702 -0.6228
16984TIP3   OH272442   0.469   1.776   5.909  0.2069  0.3338  0.0124
16984TIP3    H172443   0.487   1.697   5.857 -1.0067 -0.1992  0.3736
16984TIP3    H272444   0.453   1.742   5.997  1.7341  1.1842  0.6351
16985TIP3   OH272445   5.278   4.810  13.577  0.3202  0.6057  0.2679
16985TIP3    H172446   5.250   4.820  13.486  1.0064 -2.8265 -0.3747
16985TIP3    H272447   5.215   4.749  13.615  0.4469  1.4795  1.9180
16986TIP3   OH272448   3.464   0.603  14.534 -0.0921  0.3240  0.2615
16986TIP3    H172449   3.445   0.614  14.441 -0.5910 -1.2490  0.1655
16986TIP3    H272450   3.552   0.641  14.545  1.3135 -2.2728 -1.5003
16987TIP3   OH272451   1.938   1.049   1.775  0.1622 -0.0871 -0.1027
16987TIP3    H172452   1.872   1.102   1.729  0.0413 -0.8899 -0.8787
16987TIP3    H272453   1.887   0.981   1.820  0.5709 -2.0489 -2.4968
16988TIP3   OH272454   5.448   0.844  15.390 -0.4278  0.4733 -1.1860
16988TIP3    H172455   5.514   0.812  15.452 -1.2258  0.1096 -0.5084
16988TIP3    H272456   5.462   0.793  15.311 -2.5629 -2.6033  0.3113
16989TIP3   OH272457   5.460   6.462   4.458 -0.0363 -0.2449  0.0929
16989TIP3    H172458   5.380   6.489   4.502 -0.0831 -0.6798  0.2783
16989TIP3    H272459   5.526   6.527   4.486 -0.8069  1.4054 -1.7770
16990TIP3   OH272460   4.247   1.031   0.954  0.3537 -0.6211 -0.0629
16990TIP3    H172461   4.339   1.031   0.928  0.3412 -2.7451 -0.1428
16990TIP3    H272462   4.235   0.948   1.000 -0.7864  0.9509  2.5901
16991TIP3   OH272463   2.928   6.240   4.665  0.2816  0.1940 -0.6156
16991TIP3    H172464   2.917   6.276   4.577  1.1140 -1.0582 -1.2382
16991TIP3    H272465   2.843   6.200   4.685  0.3148 -0.1378 -1.1380
16992TIP3   OH272466   3.408   2.679   0.502 -0.3592 -0.0712  0.2345
16992TIP3    H172467   3.463   2.629   0.441 -0.5434  0.1549 -0.1183
16992TIP3    H272468   3.450   2.765   0.507 -0.9419  0.2533 -0.3962
16993TIP3   OH272469   3.052   6.562   0.539  0.2220 -0.7662 -0.3764
16993TIP3    H172470   3.031   6.486   0.484  2.6518 -1.8188  0.0974
16993TIP3    H272471   3.011   6.543   0.623 -0.3515 -0.8818 -0.6767
16994TIP3   OH272472   2.876   4.791   0.674  0.0573  0.4003  0.7752
16994TIP3    H172473   2.881   4.806   0.768  1.6810  1.5518  0.5147
16994TIP3    H272474   2.862   4.878   0.636 -1.7574 -0.1879  0.0129
16995TIP3   OH272475   3.747   4.436  13.785  0.4571  0.3145  0.0184
16995TIP3    H172476   3.699   4.483  13.853  0.4322  0.7282 -0.2810
16995TIP3    H272477   3.822   4.491  13.765  0.9368 -0.2261  0.3260
16996TIP3   OH272478   6.775   6.423  13.376  0.0159 -0.3533  0.6640
16996TIP3    H172479   6.778   6.398  13.284  1.6729 -1.3059  0.9431
16996TIP3    H272480   6.684   6.446  13.393 -0.3390 -0.4032 -1.1505
16997TIP3   OH272481   0.927   0.992   2.652  0.2131  0.0116 -0.2115
16997TIP3    H172482   0.860   0.926   2.670  1.1733 -1.1527 -0.8268
16997TIP3    H272483   0.931   0.996   2.556 -0.5134  1.6712 -0.1900
16998TIP3   OH272484   2.742   3.294   6.427  0.1689  0.2474  0.2209
16998TIP3    H172485   2.682   3.267   6.496 -0.0866  1.5481  0.5186
16998TIP3    H272486   2.693   3.280   6.346  1.2327 -3.3005  0.1290
16999TIP3   OH272487   1.287   6.392  17.258  0.1892 -0.1375  0.8447
16999TIP3    H172488   1.210   6.436  17.220  0.4409  0.1950  0.7162
16999TIP3    H272489   1.277   6.403  17.352 -1.1315 -2.1192  0.9505
17000TIP3   OH272490   5.823   4.980   5.946  0.3115 -0.0819 -0.3641
17000TIP3    H172491   5.739   4.935   5.940  0.0233  0.3709  0.2503
17000TIP3    H272492   5.817   5.032   6.026 -0.6288  3.5511 -2.6906
17001TIP3   OH272493   1.911   5.339   5.290 -0.3531  0.0796  0.2532
17001TIP3    H172494   1.943   5.407   5.349  0.0262 -0.3189  0.5068
17001TIP3    H272495   1.859   5.387   5.225  0.7396  0.7320 -0.1570
17002TIP3   OH272496   5.589   5.131   4.580  0.0741 -0.2803  0.2948
17002TIP3    H172497   5.621   5.126   4.489 -2.9933 -0.3221 -0.8412
17002TIP3    H272498   5.605   5.044   4.616  1.2354 -0.2933 -0.2214
17003TIP3   OH272499   5.593   0.776   0.994  0.3256 -0.6888 -0.1966
17003TIP3    H172500   5.608   0.741   0.906  0.5018  4.1434 -2.2667
17003TIP3    H272501   5.508   0.818   0.989  0.3327 -0.3603  1.9650
17004TIP3   OH272502   1.014   6.470  16.511 -0.1154  0.5176  0.8223
17004TIP3    H172503   1.014   6.466  16.607  2.8821 -0.2499  0.8381
17004TIP3    H272504   1.095   6.516  16.489  0.0760 -0.8024 -1.3739
17005TIP3   OH272505   0.343   3.566   2.181 -0.4482 -0.4748 -0.3579
17005TIP3    H172506   0.294   3.648   2.183  0.4372  0.0815 -0.9157
17005TIP3    H272507   0.329   3.531   2.093 -0.7667 -0.8831 -0.1451
17006TIP3   OH272508   5.065   3.894   3.437 -0.3664 -0.5117  0.2052
17006TIP3    H172509   4.980   3.865   3.404 -0.4067 -0.7548  0.5182
17006TIP3    H272510   5.078   3.980   3.398 -1.3599  0.1011  1.2128
17007TIP3   OH272511   1.677   0.616  17.110 -0.0875 -0.0022 -0.6486
17007TIP3    H172512   1.622   0.540  17.090 -0.4753 -0.1059  0.7400
17007TIP3    H272513   1.731   0.628  17.032  0.0446 -1.7620 -0.8565
17008TIP3   OH272514   3.223   4.538  14.612 -0.2642 -0.2310 -0.1889
17008TIP3    H172515   3.295   4.588  14.649 -0.7352  0.6162 -0.4062
17008TIP3    H272516   3.265   4.473  14.556  0.3749 -0.4701  0.5636
17009TIP3   OH272517   4.923   4.047   0.433 -0.1102 -0.8051 -0.6992
17009TIP3    H172518   4.842   4.099   0.429  0.7879  0.5167 -2.0175
17009TIP3    H272519   4.945   4.046   0.526 -0.9275 -0.0469 -0.4784
17010TIP3   OH272520   0.322   0.251   2.524 -0.1514  0.2696  0.4589
17010TIP3    H172521   0.336   0.346   2.521 -1.3552  0.5318  2.1124
17010TIP3    H272522   0.265   0.238   2.600  2.1770 -2.0468  1.9289
17011TIP3   OH272523   3.997   5.252   3.234  0.5561  0.2577  0.2023
17011TIP3    H172524   4.018   5.250   3.327  0.6125 -0.4293  0.1807
17011TIP3    H272525   4.081   5.265   3.191  0.7787 -1.1660  0.1756
17012TIP3   OH272526   5.634   3.874   0.919 -0.3115 -0.0848  0.8892
17012TIP3    H172527   5.708   3.839   0.869  0.1087  1.7180  0.2210
17012TIP3    H272528   5.631   3.821   0.998  0.5335 -1.3896  0.0597
17013TIP3   OH272529   0.606   4.443  16.275 -0.4411  0.0922 -0.2951
17013TIP3    H172530   0.620   4.447  16.369 -0.2132 -0.6414 -0.2975
17013TIP3    H272531   0.677   4.495  16.237 -0.4561  0.2725 -0.0766
17014TIP3   OH272532   6.396   4.622   2.570  0.3304  0.2017  0.3578
17014TIP3    H172533   6.411   4.696   2.510  1.9025  0.2827  0.8247
17014TIP3    H272534   6.445   4.645   2.649  1.0916 -1.4923  0.3865
17015TIP3   OH272535   6.601   4.044   0.161 -0.9309  0.6918 -0.6505
17015TIP3    H172536   6.600   3.974   0.227  2.4977 -0.4140 -1.6261
17015TIP3    H272537   6.540   4.110   0.194 -0.9218 -0.8052  2.5186
17016TIP3   OH272538   1.493   1.614  13.558  0.1086 -0.3245  0.0959
17016TIP3    H172539   1.554   1.548  13.591  0.1563  0.6681  2.0470
17016TIP3    H272540   1.444   1.642  13.635  0.2904  2.1357 -0.6414
17017TIP3   OH272541   6.396   6.473  15.606 -0.3921 -0.0949  0.1414
17017TIP3    H172542   6.336   6.479  15.681 -0.4060  0.4075  0.0918
17017TIP3    H272543   6.428   6.383  15.608 -0.8393 -0.2509  0.4101
17018TIP3   OH272544   1.202   1.404  15.702  0.5109 -0.1345 -0.1655
17018TIP3    H172545   1.293   1.435  15.704  1.3794 -2.5784 -0.1156
17018TIP3    H272546   1.208   1.316  15.664 -1.7362 -0.6906  0.7152
17019TIP3   OH272547   6.533   5.273  16.153 -0.0066 -0.6898 -0.2305
17019TIP3    H172548   6.532   5.178  16.144  0.8816 -0.7088 -0.1680
17019TIP3    H272549   6.582   5.304  16.076  0.0937 -0.3146 -0.0152
17020TIP3   OH272550   6.577   1.682   0.944 -0.0038 -0.2658 -0.1887
17020TIP3    H172551   6.642   1.616   0.923  0.9038  0.4597  0.3232
17020TIP3    H272552   6.507   1.634   0.989  1.0922 -0.7235  1.0313
17021TIP3   OH272553   2.950   4.127   5.013 -0.3779 -0.3826  0.4234
17021TIP3    H172554   3.015   4.103   4.946 -1.5025 -0.7925 -0.5500
17021TIP3    H272555   2.890   4.053   5.015 -1.6879  0.6526  0.1916
17022TIP3   OH272556   4.844   1.525  16.645 -0.3094 -0.2570  0.1138
17022TIP3    H172557   4.931   1.517  16.607 -0.1651  0.6678  0.2242
17022TIP3    H272558   4.793   1.573  16.579 -0.7305 -0.7656  0.0624
17023TIP3   OH272559   2.235   6.176   5.773  0.1604 -0.2061  0.2540
17023TIP3    H172560   2.258   6.173   5.866  0.8870 -0.7666  0.0627
17023TIP3    H272561   2.208   6.086   5.753 -2.6138  0.5159  0.5642
17024TIP3   OH272562   1.615   0.419  12.112  0.3355 -0.0210  0.5933
17024TIP3    H172563   1.650   0.497  12.070 -1.3374  0.0780 -0.6665
17024TIP3    H272564   1.607   0.355  12.041 -0.8625 -0.4313  1.0817
17025TIP3   OH272565   5.017   0.801   1.479 -0.6882  0.6195  0.1122
17025TIP3    H172566   5.029   0.707   1.495  2.5605  0.8827 -0.4560
17025TIP3    H272567   4.935   0.806   1.429 -0.7966 -1.9322 -0.0521
17026TIP3   OH272568   5.155   4.005  13.090 -0.5223 -0.1883 -0.0919
17026TIP3    H172569   5.187   4.009  13.180 -0.6772  0.1533 -0.0496
17026TIP3    H272570   5.073   4.055  13.092 -0.0961  0.5520 -0.5983
17027TIP3   OH272571   3.056   0.326  11.528  0.2788 -0.1683  0.6871
17027TIP3    H172572   3.053   0.382  11.606  1.1439 -1.2125  1.4964
17027TIP3    H272573   3.094   0.244  11.560  3.7999  0.5310 -1.5057
17028TIP3   OH272574   3.570   0.924   1.926  0.3519  0.3993  0.9075
17028TIP3    H172575   3.511   0.983   1.972  0.1301  1.6112 -0.8578
17028TIP3    H272576   3.646   0.978   1.904  0.3593 -0.0728 -0.3096
17029TIP3   OH272577   1.317   5.292  11.971 -0.0738 -0.5799 -0.2994
17029TIP3    H172578   1.412   5.287  11.957 -0.0816  0.9368 -0.9883
17029TIP3    H272579   1.285   5.345  11.898 -1.3634 -0.5204  0.2968
17030TIP3   OH272580   1.048   4.562   5.951 -0.0168 -0.2641  0.6760
17030TIP3    H172581   1.058   4.637   5.893 -0.3486  0.2394  1.2669
17030TIP3    H272582   1.138   4.535   5.970  0.1235  0.4658  1.0829
17031TIP3   OH272583   1.709   3.395   4.428 -0.0336 -0.1999  0.1099
17031TIP3    H172584   1.740   3.330   4.491  2.1178 -0.8947 -1.6166
17031TIP3    H272585   1.745   3.478   4.460 -0.7356 -0.2039  0.9454
17032TIP3   OH272586   3.762   4.620   0.536 -0.0417 -0.2059  0.0364
17032TIP3    H172587   3.814   4.551   0.577 -1.8744 -1.4205  0.3447
17032TIP3    H272588   3.723   4.579   0.459 -0.2559  0.8061 -0.4073
17033TIP3   OH272589   6.205   1.946  13.392  0.7669  0.0427 -0.3081
17033TIP3    H172590   6.291   1.913  13.369  1.9840  1.0143  2.5418
17033TIP3    H272591   6.214   2.042  13.391 -0.2377  0.1562  0.0763
17034TIP3   OH272592   5.924   1.721   3.392 -0.2593  0.0115  0.6306
17034TIP3    H172593   5.838   1.756   3.412 -0.2806 -0.5682  1.5951
17034TIP3    H272594   5.907   1.641   3.342 -0.2781  0.0193  0.6249
17035TIP3   OH272595   0.083   2.531   1.058  0.4548 -0.4050 -0.1572
17035TIP3    H172596   0.099   2.612   1.010  0.1186 -0.7157 -0.7966
17035TIP3    H272597   0.054   2.560   1.145  1.4065  0.1568 -0.0158
17036TIP3   OH272598   5.207   2.728   4.009 -0.6676  0.3131  0.1735
17036TIP3    H172599   5.276   2.742   4.073 -0.2805 -0.8519  0.0174
17036TIP3    H272600   5.249   2.680   3.938 -1.8890 -1.5310  0.6428
17037TIP3   OH272601   2.838   3.009  15.391  0.5401  0.6262  0.2579
17037TIP3    H172602   2.847   2.933  15.449  0.2629  1.3130  1.2160
17037TIP3    H272603   2.847   2.973  15.303 -0.6643 -0.6806  0.6552
17038TIP3   OH272604   6.654   4.578  16.020 -0.0074  0.3267  0.0429
17038TIP3    H172605   6.639   4.612  15.932  1.7814  2.2896  0.4825
17038TIP3    H272606   6.702   4.496  16.006  1.5132  1.3491 -0.7448
17039TIP3   OH272607   0.245   3.548  17.182  0.0769  0.4511 -0.0131
17039TIP3    H172608   0.189   3.613  17.141 -0.5186  0.5812  0.9816
17039TIP3    H272609   0.265   3.585  17.268  0.8309 -0.0684  0.0408
17040TIP3   OH272610   4.041   5.619   0.868 -0.0345 -0.1132 -0.4811
17040TIP3    H172611   4.131   5.623   0.835  0.6687 -0.3721  1.3403
17040TIP3    H272612   3.988   5.603   0.791  1.3747  1.1969 -1.7517
17041TIP3   OH272613   3.264   3.992   2.591  0.3770 -0.1501 -0.0230
17041TIP3    H172614   3.313   4.042   2.525 -0.5557  1.0496  0.1660
17041TIP3    H272615   3.209   3.932   2.539 -0.1779  0.6230 -0.3427
17042TIP3   OH272616   3.914   4.518  12.305 -0.5520  0.6699  0.0268
17042TIP3    H172617   3.891   4.534  12.396 -1.2432 -1.1824  0.1930
17042TIP3    H272618   3.934   4.424  12.301  1.7055  1.1602 -1.2604
17043TIP3   OH272619   5.945   3.399  12.377 -0.3392  0.1944  0.8535
17043TIP3    H172620   6.001   3.369  12.306 -1.1111  0.1901  0.2490
17043TIP3    H272621   5.857   3.403  12.340 -0.8237 -0.2294  1.9252
17044TIP3   OH272622   6.524   6.735  14.888  0.0018 -0.2900 -0.4009
17044TIP3    H172623   6.560   6.823  14.900  0.1913 -0.1854 -1.7578
17044TIP3    H272624   6.430   6.750  14.875 -0.3737 -0.4750  1.7981
17045TIP3   OH272625   4.348   4.913   2.932  0.1396  0.2028 -0.2311
17045TIP3    H172626   4.331   4.983   2.869 -4.9460  0.0040  0.7278
17045TIP3    H272627   4.384   4.842   2.879 -0.5943  1.3141 -2.2872
17046TIP3   OH272628   2.138   0.744  15.319 -0.0825  0.1018  0.1699
17046TIP3    H172629   2.177   0.826  15.288 -0.8178  0.5322  0.3625
17046TIP3    H272630   2.159   0.680  15.252  1.4684  0.1945  0.5575
17047TIP3   OH272631   4.109   5.406   6.215  0.0579  0.3044 -0.3449
17047TIP3    H172632   4.202   5.391   6.194  0.6953  3.0102  0.2907
17047TIP3    H272633   4.091   5.345   6.286  0.8505 -1.4662 -1.6097
17048TIP3   OH272634   3.071   1.512  15.690 -0.1936  0.0993 -0.1310
17048TIP3    H172635   3.052   1.422  15.718  0.4230  0.1065  0.3252
17048TIP3    H272636   3.143   1.503  15.627 -0.3389  0.2432 -0.3172
17049TIP3   OH272637   1.537   5.990   1.813 -0.2797 -0.3243 -0.0927
17049TIP3    H172638   1.467   6.016   1.753 -0.2682  0.2589  0.1449
17049TIP3    H272639   1.506   5.908   1.852 -0.8146 -0.0839 -0.0080
17050TIP3   OH272640   6.637   4.985  17.181  0.2451  0.1606  0.1086
17050TIP3    H172641   6.631   4.989  17.276 -0.0289 -0.5203  0.1256
17050TIP3    H272642   6.652   5.075  17.154 -1.5007  0.6325  0.6724
17051TIP3   OH272643   1.880   6.110   0.003 -0.4923 -0.6154  0.0199
17051TIP3    H172644   1.787   6.122   0.025 -0.5427 -1.5292  0.3212
17051TIP3    H272645   1.880   6.080  -0.087 -0.4702 -0.3137 -0.0815
17052TIP3   OH272646   4.759   4.096  15.458 -0.4957  0.1500 -0.0067
17052TIP3    H172647   4.764   4.046  15.539 -0.6163  1.0372  0.5567
17052TIP3    H272648   4.839   4.149  15.458 -0.5502  0.2346 -0.4140
17053TIP3   OH272649   4.781   3.184  11.367  0.6374  0.9856 -0.3374
17053TIP3    H172650   4.795   3.211  11.458 -1.7325 -0.0287  0.3646
17053TIP3    H272651   4.763   3.090  11.373  3.0716  0.3673 -2.1405
17054TIP3   OH272652   3.417   0.879  13.364 -0.0526  0.1360  0.6807
17054TIP3    H172653   3.418   0.792  13.405  0.5501 -0.0812  0.2062
17054TIP3    H272654   3.410   0.940  13.438 -0.8967 -0.3208  0.9996
17055TIP3   OH272655   1.936   6.819  15.816 -0.1915  0.1810  0.2584
17055TIP3    H172656   1.871   6.851  15.879 -1.0205 -1.2288  0.1419
17055TIP3    H272657   2.006   6.884  15.820 -0.1229  0.0304  2.8042
17056TIP3   OH272658   0.146   5.251  14.751 -0.1657  0.0905  0.4530
17056TIP3    H172659   0.197   5.252  14.670 -1.1991  0.8883 -0.2107
17056TIP3    H272660   0.208   5.227  14.819  1.1899  1.4896 -0.2627
17057TIP3   OH272661   2.477   0.268  12.816  0.6351 -0.7041 -0.2453
17057TIP3    H172662   2.449   0.306  12.733  0.7992 -0.6384 -0.2694
17057TIP3    H272663   2.414   0.198  12.833  0.2623 -0.3459 -0.1417
17058TIP3   OH272664   3.075   1.015  11.095 -0.2079  0.1739 -0.2525
17058TIP3    H172665   2.997   0.968  11.063 -2.0521 -1.5292  5.9897
17058TIP3    H272666   3.147   0.954  11.079 -1.1821 -0.9952 -0.2998
17059TIP3   OH272667   4.651   2.226  11.753  0.5081  0.1586  0.0675
17059TIP3    H172668   4.675   2.144  11.796  3.1922  0.0661 -1.5135
17059TIP3    H272669   4.734   2.269  11.733 -0.8249  2.6433 -0.3293
17060TIP3   OH272670   3.932   1.467  15.929 -0.3820  0.1638 -0.5902
17060TIP3    H172671   3.890   1.423  16.003 -0.5754  3.2292  1.2370
17060TIP3    H272672   4.024   1.473  15.953 -0.3262  0.5652 -0.8958
17061TIP3   OH272673   6.452   0.597   6.096  0.7083  0.9193 -0.7165
17061TIP3    H172674   6.415   0.510   6.081  2.5889 -0.1081  0.3483
17061TIP3    H272675   6.453   0.637   6.009  0.1895 -0.2853 -1.2975
17062TIP3   OH272676   1.197   5.329   1.084  0.0349 -0.0057  0.1033
17062TIP3    H172677   1.249   5.307   1.006 -0.8498 -0.1946 -0.4342
17062TIP3    H272678   1.180   5.244   1.125 -0.5361 -0.0212 -0.1612
17063TIP3   OH272679   2.618   5.775   4.632  0.2845 -0.4239 -1.4208
17063TIP3    H172680   2.693   5.726   4.599  0.1936 -2.7808  1.5897
17063TIP3    H272681   2.544   5.714   4.624  0.0172 -0.5935  1.6574
17064TIP3   OH272682   5.887   0.750   3.131 -0.3018 -0.7644 -0.7160
17064TIP3    H172683   5.971   0.705   3.122  0.1662 -0.3479  1.2971
17064TIP3    H272684   5.893   0.795   3.215 -2.3886 -0.3786 -0.7436
17065TIP3   OH272685   1.835   1.373   1.978  0.0631 -0.1488  0.2470
17065TIP3    H172686   1.903   1.402   2.039 -0.4527  0.1819  0.6673
17065TIP3    H272687   1.825   1.445   1.916 -0.6270  0.2293  0.7942
17066TIP3   OH272688   1.259   4.356  12.346  0.1988 -0.4957  0.2400
17066TIP3    H172689   1.236   4.446  12.372  0.3341 -0.2210 -0.5783
17066TIP3    H272690   1.243   4.304  12.424 -0.2680  0.1825  0.6029
17067TIP3   OH272691   6.243   4.355  12.568  0.3063 -0.4038 -0.1773
17067TIP3    H172692   6.307   4.426  12.563 -2.0514  1.8917  0.9199
17067TIP3    H272693   6.202   4.353  12.482 -0.0352 -0.0036 -0.0278
17068TIP3   OH272694   5.160   5.293  15.441  0.0535  0.1853 -0.5981
17068TIP3    H172695   5.167   5.363  15.376 -2.2449  0.0154 -1.0708
17068TIP3    H272696   5.066   5.273  15.445  0.5753 -2.2931  0.1421
17069TIP3   OH272697   1.790   5.485  14.639  0.4722  0.2939 -0.3647
17069TIP3    H172698   1.710   5.432  14.647  1.1673 -0.6833  0.2682
17069TIP3    H272699   1.793   5.511  14.547 -1.0224  1.0596 -0.2082
17070TIP3   OH272700   5.593   4.526   2.019 -0.3255 -0.2027 -0.1409
17070TIP3    H172701   5.658   4.472   2.064  1.5787  0.3518 -2.1298
17070TIP3    H272702   5.523   4.464   1.995  1.1922 -1.5514 -1.2120
17071TIP3   OH272703   4.921   4.581   4.084  0.1691  0.2125  0.0456
17071TIP3    H172704   4.945   4.627   4.165  0.7241 -1.9119  1.1093
17071TIP3    H272705   4.834   4.544   4.101  1.3111 -2.3067  0.5953
17072TIP3   OH272706   6.748   3.475   4.196  0.0298 -0.6323 -0.0054
17072TIP3    H172707   6.693   3.548   4.223  0.0295 -0.1038 -1.3751
17072TIP3    H272708   6.826   3.481   4.251 -0.4091 -0.1853  0.5651
17073TIP3   OH272709   1.729   3.909   3.007  0.0443  0.6136 -0.2663
17073TIP3    H172710   1.730   3.926   2.913  1.1791  0.6003 -0.2630
17073TIP3    H272711   1.739   3.995   3.048  1.4023  0.4344 -0.1928
17074TIP3   OH272712   2.719   5.157   3.126 -0.8980  0.1170 -0.0558
17074TIP3    H172713   2.681   5.245   3.125  2.9695  1.8920 -1.7631
17074TIP3    H272714   2.691   5.118   3.043 -1.7408  0.1299  0.2208
17075TIP3   OH272715   0.820   4.307   2.135  0.0485  0.4947  0.0618
17075TIP3    H172716   0.802   4.398   2.160 -0.0975  0.2642  0.7886
17075TIP3    H272717   0.813   4.258   2.216 -0.5368 -0.2741 -0.4506
17076TIP3   OH272718   4.656   5.973  10.821 -0.9233 -0.0552  0.3300
17076TIP3    H172719   4.739   5.943  10.858 -0.3773  0.0734 -0.7650
17076TIP3    H272720   4.677   5.997  10.731 -1.8500  1.3747  0.4762
17077TIP3   OH272721   2.999   6.250  13.813  0.0080 -0.0376  0.0246
17077TIP3    H172722   2.911   6.288  13.808 -0.9392 -2.0428  0.8890
17077TIP3    H272723   3.005   6.215  13.902  1.8809  0.5094  0.1297
17078TIP3   OH272724   0.752   2.257  16.372  0.0127 -0.0147 -0.2655
17078TIP3    H172725   0.738   2.174  16.325  1.8731 -0.6490  0.2491
17078TIP3    H272726   0.736   2.325  16.306 -1.9410 -0.7476 -0.5878
17079TIP3   OH272727   3.189   3.332   3.469 -0.1639  0.8687 -0.1040
17079TIP3    H172728   3.227   3.360   3.386 -1.6961 -0.8785 -1.4463
17079TIP3    H272729   3.232   3.387   3.535  1.0672  2.2997 -2.0333
17080TIP3   OH272730   0.322   3.181   2.395 -0.5238  0.3154  0.4369
17080TIP3    H172731   0.417   3.177   2.401 -0.5295  0.9629  1.0712
17080TIP3    H272732   0.295   3.093   2.372  0.3447  0.5103 -1.3571
17081TIP3   OH272733   0.212   1.691   4.720 -0.1749 -0.1249 -0.7929
17081TIP3    H172734   0.199   1.670   4.628 -1.5173  1.1332 -0.9058
17081TIP3    H272735   0.255   1.613   4.756  1.4059 -0.1830 -2.6984
17082TIP3   OH272736   3.332   2.264  14.652  0.3612  0.3473  0.2677
17082TIP3    H172737   3.317   2.186  14.704  0.3529 -0.2126 -0.5607
17082TIP3    H272738   3.338   2.335  14.716  1.7883 -0.5216  1.1414
17083TIP3   OH272739   3.860   6.162  13.480 -0.3909 -0.3698 -0.1431
17083TIP3    H172740   3.821   6.076  13.464 -0.8403 -0.0052 -1.0371
17083TIP3    H272741   3.891   6.158  13.570 -0.1133 -1.5852 -0.2916
17084TIP3   OH272742   3.884   6.166   5.780  0.1411 -0.0284  0.2290
17084TIP3    H172743   3.969   6.122   5.785  0.3442  0.3878  0.4675
17084TIP3    H272744   3.847   6.137   5.696  0.6314 -0.0057  0.0030
17085TIP3   OH272745   4.375   6.589  10.615  0.5230 -0.4855 -0.5271
17085TIP3    H172746   4.416   6.669  10.582  0.6565  0.4356  1.8053
17085TIP3    H272747   4.446   6.525  10.615  0.7570 -0.2293 -1.1036
17086TIP3   OH272748   2.692   4.217  11.642 -0.5059 -0.3860 -0.8783
17086TIP3    H172749   2.766   4.277  11.639 -0.2767 -0.5798  0.4223
17086TIP3    H272750   2.624   4.264  11.690 -0.8979 -0.5644 -1.2492
17087TIP3   OH272751   0.420   4.565   0.104  0.1122  0.3573  0.2972
17087TIP3    H172752   0.362   4.513   0.160  1.3011 -0.1194  1.0838
17087TIP3    H272753   0.447   4.639   0.158 -2.7433  2.6857 -1.2727
17088TIP3   OH272754   1.691   2.547  17.062 -0.2022  0.2419  0.3855
17088TIP3    H172755   1.701   2.461  17.103 -1.7715 -0.6642 -1.0656
17088TIP3    H272756   1.746   2.543  16.983  1.2555  1.2920  1.2961
17089TIP3   OH272757   2.914   0.264  12.959 -0.5929 -0.3234 -0.5640
17089TIP3    H172758   2.926   0.298  13.047 -1.7541  0.5336 -0.7300
17089TIP3    H272759   2.828   0.222  12.961 -1.1458  0.7480 -1.6178
17090TIP3   OH272760   5.832   5.164   5.418 -0.2431 -0.1193 -0.3020
17090TIP3    H172761   5.802   5.073   5.423 -0.8508  0.0987  0.1167
17090TIP3    H272762   5.905   5.163   5.356 -1.5160 -0.5525 -1.7948
17091TIP3   OH272763   5.448   2.601  15.517 -0.4358  0.2821  0.2437
17091TIP3    H172764   5.373   2.547  15.539  0.2647 -0.3528  1.1215
17091TIP3    H272765   5.412   2.674  15.466 -1.2601 -1.6284 -2.0135
17092TIP3   OH272766   0.866   1.966   2.839  0.4169 -0.1533  0.8040
17092TIP3    H172767   0.935   1.929   2.785 -1.0867 -0.6762 -0.8239
17092TIP3    H272768   0.805   1.893   2.852 -0.4129  0.6035  1.2172
17093TIP3   OH272769   4.498   0.800  11.276  0.4349 -0.0029  0.1557
17093TIP3    H172770   4.508   0.893  11.295  0.7845  0.5042 -2.4537
17093TIP3    H272771   4.588   0.766  11.274  0.2569 -0.6915  2.3718
17094TIP3   OH272772   2.612   5.807   1.870  0.5068 -0.3175  0.1862
17094TIP3    H172773   2.585   5.877   1.812  0.0816 -0.0952  0.6459
17094TIP3    H272774   2.708   5.806   1.865  0.4766 -0.2450 -0.4418
17095TIP3   OH272775   4.762   1.451  12.217 -0.0505 -0.4383  0.2365
17095TIP3    H172776   4.826   1.445  12.288 -1.5367 -2.4632  1.4485
17095TIP3    H272777   4.781   1.375  12.162  1.0338  1.0685 -1.5369
17096TIP3   OH272778   1.677   4.848  14.954  0.2657  0.8527  0.0213
17096TIP3    H172779   1.680   4.813  15.043 -0.4303  1.1331  0.1542
17096TIP3    H272780   1.765   4.831  14.919 -0.0651 -1.0527  0.0764
17097TIP3   OH272781   0.183   2.291  12.421  0.4912  0.2329  0.2944
17097TIP3    H172782   0.136   2.374  12.417 -3.8544 -2.0967  0.4439
17097TIP3    H272783   0.199   2.276  12.514 -0.5034 -0.0244  0.4274
17098TIP3   OH272784   0.413   3.661  11.975  0.3391 -0.2059  1.1333
17098TIP3    H172785   0.418   3.579  11.926 -0.3851  0.7326 -0.5618
17098TIP3    H272786   0.323   3.663  12.009  0.4265 -0.2047  1.3705
17099TIP3   OH272787   4.535   0.812  13.970 -0.1298  0.1795  0.6292
17099TIP3    H172788   4.588   0.863  13.908 -0.5095 -0.9365 -0.6364
17099TIP3    H272789   4.570   0.723  13.964  0.2425  0.1761  2.5089
17100TIP3   OH272790   1.694   1.977  14.452  0.7127 -0.1074  0.2626
17100TIP3    H172791   1.716   1.886  14.468  0.1179 -0.2324  0.3792
17100TIP3    H272792   1.620   1.974  14.391 -1.9051  0.1692  3.2633
17101TIP3   OH272793   2.562   1.703   0.657 -1.0160 -0.2344 -0.4172
17101TIP3    H172794   2.572   1.778   0.598 -0.4129  0.0778  0.0799
17101TIP3    H272795   2.558   1.627   0.599 -0.0889  0.0426 -0.8492
17102TIP3   OH272796   3.526   5.443   3.206 -0.0582  0.1227 -0.1969
17102TIP3    H172797   3.599   5.383   3.220  0.3992  1.0050  1.1835
17102TIP3    H272798   3.566   5.530   3.200 -0.8761  0.4758 -0.7001
17103TIP3   OH272799   1.706   0.349   3.991 -0.0641 -0.3004  0.1023
17103TIP3    H172800   1.721   0.400   3.911 -0.1726 -0.6748 -0.1580
17103TIP3    H272801   1.748   0.265   3.974  0.5766 -0.1160  0.7383
17104TIP3   OH272802   3.423   1.477  14.293 -0.2927 -0.1280 -0.5426
17104TIP3    H172803   3.352   1.427  14.332 -0.3455 -0.0479 -0.5360
17104TIP3    H272804   3.480   1.412  14.252  1.6582 -0.5450  2.7149
17105TIP3   OH272805   6.512   6.455  16.523  0.0192  0.3008  0.1206
17105TIP3    H172806   6.452   6.435  16.451 -1.5245  1.8453  0.9222
17105TIP3    H272807   6.462   6.515  16.579  2.5178  2.0586  0.5473
17106TIP3   OH272808   2.517   6.154   5.690  0.1138  0.4478 -0.4858
17106TIP3    H172809   2.557   6.067   5.700  1.9682  1.5052  1.8245
17106TIP3    H272810   2.432   6.147   5.733  0.8078  0.1224  0.8564
17107TIP3   OH272811   3.334   3.626  16.507 -0.9500 -0.3105  0.2195
17107TIP3    H172812   3.285   3.688  16.453 -1.0222  0.3177  0.9859
17107TIP3    H272813   3.425   3.640  16.483 -0.8512  0.9892  1.2648
17108TIP3   OH272814   4.153   4.483   3.916 -0.0653  0.1068 -0.2917
17108TIP3    H172815   4.206   4.403   3.918 -0.6392 -0.2847 -0.5232
17108TIP3    H272816   4.072   4.458   3.961 -0.5791  0.3159 -1.0883
17109TIP3   OH272817   0.670   4.138  13.968  0.0612 -0.0358 -0.1623
17109TIP3    H172818   0.629   4.188  13.897  0.4718  0.5740  0.0227
17109TIP3    H272819   0.714   4.205  14.021 -2.0932 -0.2175  1.9181
17110TIP3   OH272820   0.826   0.518   1.869  0.2443  0.4872 -0.2415
17110TIP3    H172821   0.766   0.501   1.941  1.4353 -1.0619  0.4266
17110TIP3    H272822   0.770   0.531   1.793 -0.9324 -2.7229 -0.0067
17111TIP3   OH272823   2.694   4.210   3.236  0.2722  0.0960  0.0224
17111TIP3    H172824   2.692   4.244   3.325  0.0401 -0.5876  0.2804
17111TIP3    H272825   2.660   4.121   3.243  1.1908 -0.3165 -0.5951
17112TIP3   OH272826   1.016   4.170  14.120 -0.4646 -0.0668 -0.4274
17112TIP3    H172827   1.066   4.182  14.201 -2.3024  1.3039  0.5494
17112TIP3    H272828   1.069   4.110  14.068  0.8490 -0.8222  1.7060
17113TIP3   OH272829   0.230   3.482   5.454 -0.8221  0.1837  0.5835
17113TIP3    H172830   0.153   3.531   5.423 -1.2111 -0.7016  0.1406
17113TIP3    H272831   0.220   3.395   5.416  1.1060  0.4514 -0.5371
17114TIP3   OH272832   0.127   5.808   3.979 -0.4930 -0.1521  0.0554
17114TIP3    H172833   0.161   5.873   4.040 -0.4273 -0.4057  0.2865
17114TIP3    H272834   0.087   5.860   3.909  0.7366  0.1522 -0.4366
17115TIP3   OH272835   6.801   2.208  16.665 -0.0884  0.1012 -0.1662
17115TIP3    H172836   6.759   2.281  16.711 -0.0283 -0.5890  1.0175
17115TIP3    H272837   6.728   2.159  16.628 -0.1269  0.7791 -1.0079
17116TIP3   OH272838   2.585   6.346   3.014  0.4823 -0.7744  0.1084
17116TIP3    H172839   2.589   6.254   3.039 -0.3125 -1.4655 -2.1696
17116TIP3    H272840   2.644   6.354   2.940  0.2993  0.4722  0.0831
17117TIP3   OH272841   3.779   1.668   2.966  0.0224  0.2218  0.3737
17117TIP3    H172842   3.701   1.613   2.953 -0.1513 -0.0057  2.2853
17117TIP3    H272843   3.798   1.703   2.879 -0.5544 -1.9491 -0.6741
17118TIP3   OH272844   0.372   2.299  16.250 -0.5044 -0.2760  0.1638
17118TIP3    H172845   0.455   2.297  16.202 -0.1323  2.1633  0.6471
17118TIP3    H272846   0.369   2.215  16.296  1.4095 -0.6422 -0.3212
17119TIP3   OH272847   4.158   1.929  12.673 -0.5952  0.0606 -0.0604
17119TIP3    H172848   4.207   2.011  12.674 -0.5344  0.0602  4.2139
17119TIP3    H272849   4.218   1.865  12.710 -2.0655 -1.0612  0.4212
17120TIP3   OH272850   0.438   2.166   3.518 -0.2076 -0.0751  0.5529
17120TIP3    H172851   0.432   2.161   3.422  0.4949 -1.0753  0.5440
17120TIP3    H272852   0.348   2.171   3.548 -0.4120  0.7834 -0.1920
17121TIP3   OH272853   2.299   5.370   1.021 -0.0953 -0.2754 -0.0366
17121TIP3    H172854   2.384   5.334   0.994  0.4688  0.2576  1.0007
17121TIP3    H272855   2.312   5.465   1.021 -0.6560 -0.1970  0.2439
17122TIP3   OH272856   0.194   1.908  13.775  0.0200 -0.0944 -0.5840
17122TIP3    H172857   0.136   1.977  13.741 -0.7412 -1.1221 -1.4074
17122TIP3    H272858   0.258   1.894  13.705 -0.9155 -1.4738 -1.1865
17123TIP3   OH272859   0.813   0.524   0.963 -0.3231  0.3389 -0.3076
17123TIP3    H172860   0.728   0.541   1.003 -0.9862 -1.0480 -1.1070
17123TIP3    H272861   0.794   0.465   0.890  1.4407 -0.7594  0.0911
17124TIP3   OH272862   1.646   2.124  11.584 -0.5492 -0.3802  0.4611
17124TIP3    H172863   1.617   2.213  11.566  1.4135  0.4407  1.2463
17124TIP3    H272864   1.642   2.080  11.499 -1.9087  0.3267  0.1459
17125TIP3   OH272865   2.767   1.157  13.399 -0.3975  0.2639 -0.2314
17125TIP3    H172866   2.733   1.196  13.479 -0.9547 -1.3234  0.3337
17125TIP3    H272867   2.836   1.097  13.429 -0.4236 -0.1427 -0.9621
17126TIP3   OH272868   5.370   4.787  14.987  0.1069  0.3732 -0.6206
17126TIP3    H172869   5.360   4.756  14.897  0.2089 -1.2512 -0.0893
17126TIP3    H272870   5.465   4.791  15.001  0.0956 -1.1842  0.0011
17127TIP3   OH272871   6.589   2.560  10.777 -0.0687 -0.0729 -0.0609
17127TIP3    H172872   6.588   2.572  10.872  1.8908 -1.4439  0.1632
17127TIP3    H272873   6.624   2.642  10.743  0.9541 -0.2634  0.5311
17128TIP3   OH272874   0.956   1.312  16.934  0.1030 -0.4909  0.0767
17128TIP3    H172875   0.880   1.273  16.890 -0.7206  0.8855  0.2161
17128TIP3    H272876   1.010   1.345  16.862  0.2217 -0.8682 -0.0065
17129TIP3   OH272877   2.160   5.315  11.272  0.7034 -0.3203  0.0737
17129TIP3    H172878   2.244   5.278  11.248  0.7485 -0.7007  0.8229
17129TIP3    H272879   2.158   5.313  11.367  0.3261  0.7512  0.1031
17130TIP3   OH272880   3.348   3.446   3.656 -0.4156 -0.4300 -0.2431
17130TIP3    H172881   3.397   3.515   3.701  0.2647 -0.4291 -0.9723
17130TIP3    H272882   3.416   3.387   3.622 -0.9728 -1.1594 -0.0989
17131TIP3   OH272883   0.888   5.536   3.164  0.1928 -0.3230 -0.4305
17131TIP3    H172884   0.924   5.532   3.252  1.0932  0.1877 -0.7669
17131TIP3    H272885   0.964   5.552   3.108 -0.1485 -2.1686 -1.4644
17132TIP3   OH272886   0.362   2.621   3.382 -0.1167 -0.5310  0.0036
17132TIP3    H172887   0.346   2.642   3.474 -2.5270 -1.0305 -0.2578
17132TIP3    H272888   0.447   2.578   3.381  0.9152  1.4183  1.6887
17133TIP3   OH272889   4.385   0.394   0.124 -0.1992 -0.1918 -0.0997
17133TIP3    H172890   4.410   0.485   0.105  0.8845 -0.2759  0.8194
17133TIP3    H272891   4.436   0.371   0.202 -1.6833 -1.0712  0.6332
17134TIP3   OH272892   3.287   5.685   3.197  0.0510 -0.3430 -0.5453
17134TIP3    H172893   3.322   5.640   3.274  0.2917 -2.1708 -1.7006
17134TIP3    H272894   3.209   5.730   3.229  1.1504  0.4367  1.1608
17135TIP3   OH272895   6.614   1.608  12.128  0.1809 -0.1924 -0.0301
17135TIP3    H172896   6.581   1.611  12.218 -1.3722 -2.8903 -0.4602
17135TIP3    H272897   6.700   1.567  12.136  0.4289  0.3893  0.3211
17136TIP3   OH272898   2.724   6.777  15.788 -0.3733 -0.0935 -0.4901
17136TIP3    H172899   2.709   6.860  15.833  0.5697 -0.4853  0.5820
17136TIP3    H272900   2.785   6.799  15.718 -0.8391  0.2937 -0.7692
17137TIP3   OH272901   2.657   4.238   0.797 -0.1883 -0.5592 -0.2117
17137TIP3    H172902   2.647   4.296   0.722 -0.3255 -1.1281 -0.6456
17137TIP3    H272903   2.567   4.212   0.819 -0.0963 -0.9791 -0.3232
17138TIP3   OH272904   3.576   1.043   2.531 -0.0247 -0.1460  0.2545
17138TIP3    H172905   3.529   1.109   2.480 -0.8310  1.7833  3.3636
17138TIP3    H272906   3.507   0.990   2.571  0.5787 -0.7580  0.4879
17139TIP3   OH272907   5.076   4.617  13.697  0.2334  0.1973  0.2919
17139TIP3    H172908   5.169   4.597  13.695 -0.0347 -1.6706  2.7645
17139TIP3    H272909   5.034   4.543  13.653 -0.2373 -0.5957  2.0039
17140TIP3   OH272910   4.560   3.794  16.150  0.4705  0.0224 -0.0303
17140TIP3    H172911   4.538   3.746  16.230 -0.2239 -1.1598 -0.8933
17140TIP3    H272912   4.515   3.878  16.159  0.7541  0.0633  1.0100
17141TIP3   OH272913   3.918   2.771   1.153 -0.0480  0.3662  0.0418
17141TIP3    H172914   3.896   2.744   1.063 -1.3712  0.6440  0.2734
17141TIP3    H272915   3.859   2.719   1.208 -0.9848  2.0078  0.6197
17142TIP3   OH272916   3.080   1.525   2.190  0.5205  0.0360  0.1473
17142TIP3    H172917   3.096   1.619   2.191  0.5772  0.0903 -2.0368
17142TIP3    H272918   3.158   1.488   2.148  0.6769 -1.0367  1.3414
17143TIP3   OH272919   0.989   6.663   5.326  0.0246  0.4816 -0.2523
17143TIP3    H172920   0.950   6.715   5.396  0.6332  1.0919 -0.3642
17143TIP3    H272921   1.049   6.603   5.372 -1.1121 -0.5384 -0.0696
17144TIP3   OH272922   1.165   3.897  13.360  0.3015 -0.6492  0.0391
17144TIP3    H172923   1.229   3.939  13.303 -0.7953  1.9927  0.7165
17144TIP3    H272924   1.121   3.969  13.406 -1.1232 -2.5484  1.7709
17145TIP3   OH272925   1.196   0.733   0.625 -0.1291  0.3364 -0.0183
17145TIP3    H172926   1.184   0.703   0.715 -0.5515  0.1175 -0.1463
17145TIP3    H272927   1.110   0.768   0.600  0.7256  3.0548  0.6426
17146TIP3   OH272928   1.579   4.420   3.737 -0.0539  0.1375  0.3881
17146TIP3    H172929   1.498   4.469   3.724 -0.5441 -0.2010  2.0557
17146TIP3    H272930   1.648   4.480   3.707 -0.7796  1.1323  0.6880
17147TIP3   OH272931   4.596   2.697   2.336  0.3299 -0.3037 -0.2706
17147TIP3    H172932   4.673   2.746   2.309 -0.1054 -0.2806 -1.5102
17147TIP3    H272933   4.591   2.624   2.274 -1.9864  1.0082 -1.7307
17148TIP3   OH272934   4.182   0.304  14.138 -0.1830  0.0919 -0.2225
17148TIP3    H172935   4.174   0.276  14.229 -1.3166  0.6952 -0.1150
17148TIP3    H272936   4.226   0.389  14.143 -0.1981  0.1008 -0.2388
17149TIP3   OH272937   4.555   2.252  11.422 -0.6925  0.1801 -0.4749
17149TIP3    H172938   4.493   2.221  11.356 -1.4679  0.6102  0.0419
17149TIP3    H272939   4.535   2.345  11.432  1.8939  1.0230 -2.3398
17150TIP3   OH272940   2.773   4.837   5.939  0.3407 -0.3958  0.3439
17150TIP3    H172941   2.694   4.837   5.885  0.3981 -2.0407  0.2266
17150TIP3    H272942   2.845   4.826   5.877  0.3425 -3.3069  0.7620
17151TIP3   OH272943   2.156   1.243   0.537 -0.5532 -0.0196  0.0033
17151TIP3    H172944   2.183   1.152   0.530 -1.4205 -0.4016  1.3713
17151TIP3    H272945   2.183   1.270   0.625 -3.1061  0.0653  0.8240
17152TIP3   OH272946   2.398   1.121  15.607  0.0594  0.9422  0.1575
17152TIP3    H172947   2.401   1.127  15.511  0.5892  0.2153  0.1160
17152TIP3    H272948   2.490   1.123  15.633 -0.1040  1.5712  0.6869
17153TIP3   OH272949   2.069   0.054  15.399 -0.2359  0.6259 -0.3750
17153TIP3    H172950   2.160   0.028  15.386 -0.9297 -2.3099  0.0732
17153TIP3    H272951   2.067   0.094  15.486  0.6193  0.5615 -0.3263
17154TIP3   OH272952   1.489   0.620  12.931 -0.6864 -0.5522 -0.0917
17154TIP3    H172953   1.497   0.715  12.928 -1.4822 -0.4325  1.4302
17154TIP3    H272954   1.401   0.602  12.897 -1.2419 -0.6188  1.3652
17155TIP3   OH272955   6.023   0.008  11.086  0.5828  0.2226  0.0719
17155TIP3    H172956   6.012  -0.072  11.138  0.4562  2.7414  4.1566
17155TIP3    H272957   5.934   0.038  11.069  0.6076 -0.8694 -2.1999
17156TIP3   OH272958   2.409   3.589   4.071  0.3701  0.5230  0.3800
17156TIP3    H172959   2.413   3.685   4.068 -1.4054  0.5939 -0.7773
17156TIP3    H272960   2.316   3.569   4.067  0.7204 -1.2579  0.7990
17157TIP3   OH272961   2.922   2.692   2.572 -0.3547 -0.5144  0.3758
17157TIP3    H172962   2.965   2.717   2.654  0.7068  0.3160 -0.4189
17157TIP3    H272963   2.864   2.766   2.552  0.5032 -0.0412 -0.3905
17158TIP3   OH272964   3.628   4.909   0.454 -0.0016  0.1800 -0.7152
17158TIP3    H172965   3.534   4.927   0.463  0.2113  1.7140 -1.4887
17158TIP3    H272966   3.654   4.874   0.539 -1.5064 -1.3143 -0.8554
17159TIP3   OH272967   6.658   0.986   5.649  0.2046  0.4381  0.0134
17159TIP3    H172968   6.612   1.069   5.664  0.8639  0.4150  2.2889
17159TIP3    H272969   6.647   0.937   5.730  1.2337 -1.0378 -0.7083
17160TIP3   OH272970   4.851   5.406  16.571  0.0772  0.2685  0.4715
17160TIP3    H172971   4.876   5.497  16.556 -0.5577  0.5890  1.3045
17160TIP3    H272972   4.786   5.388  16.502  0.5547  0.2909  0.0121
17161TIP3   OH272973   4.818   2.582   0.015 -0.0638 -0.0908  1.2200
17161TIP3    H172974   4.814   2.493  -0.020  1.1333  1.2125 -2.4504
17161TIP3    H272975   4.896   2.582   0.070 -1.2170 -1.8258  2.9173
17162TIP3   OH272976   0.767   1.193  16.404 -0.6103  0.1466  0.3388
17162TIP3    H172977   0.837   1.133  16.379 -0.4724  0.9757 -1.3258
17162TIP3    H272978   0.793   1.225  16.491  1.1350  0.5422 -0.3194
17163TIP3   OH272979   0.786   2.747  16.801  0.0888  0.0306 -0.1344
17163TIP3    H172980   0.714   2.800  16.767 -1.1642 -2.5323 -1.6104
17163TIP3    H272981   0.855   2.810  16.822 -1.3472  2.2233 -1.8597
17164TIP3   OH272982   6.446   3.425  10.581 -0.0035 -0.0735 -0.3717
17164TIP3    H172983   6.525   3.377  10.606 -0.3374  1.3354  3.7240
17164TIP3    H272984   6.460   3.514  10.614 -3.0081  0.3521 -0.0833
17165TIP3   OH272985   0.434   4.546   3.142  0.4385  0.3607 -0.1659
17165TIP3    H172986   0.495   4.594   3.198  0.6464  0.9778 -0.9166
17165TIP3    H272987   0.348   4.559   3.184  0.5491  1.0694 -0.1587
17166TIP3   OH272988   4.089   0.507  11.042 -0.5348 -0.2878  0.3498
17166TIP3    H172989   4.095   0.462  11.126 -2.4448 -0.7402  0.2713
17166TIP3    H272990   4.003   0.482  11.007 -1.1244  2.4003 -0.2833
17167TIP3   OH272991   5.242   5.513  13.916 -0.2796 -0.4221  0.2068
17167TIP3    H172992   5.195   5.497  13.998 -2.4976 -1.4773 -1.2230
17167TIP3    H272993   5.283   5.429  13.895 -0.9459 -0.5837 -0.4930
17168TIP3   OH272994   3.807   1.156  16.955 -0.3119  0.0202 -0.7803
17168TIP3    H172995   3.841   1.102  17.025 -0.2388 -0.3696 -1.1160
17168TIP3    H272996   3.770   1.233  16.999  0.7695  0.3261 -0.4066
17169TIP3   OH272997   0.100   6.085  14.308 -0.2152 -0.9047  0.3319
17169TIP3    H172998   0.171   6.106  14.370  0.7199 -0.8181 -0.7472
17169TIP3    H272999   0.076   6.169  14.270 -0.8431 -0.9479  0.6302
17170TIP3   OH273000   4.441   0.127  10.141  0.2238 -0.0479 -0.7186
17170TIP3    H173001   4.417   0.127  10.234  0.0498 -1.0664 -0.7624
17170TIP3    H273002   4.522   0.076  10.138 -0.1699 -0.6464 -1.2317
17171TIP3   OH273003   6.104   2.353   3.751 -0.3943 -0.0996 -0.0777
17171TIP3    H173004   6.020   2.346   3.797 -1.0308 -2.0585 -1.4768
17171TIP3    H273005   6.088   2.416   3.681  0.3195  2.1898  1.7571
17172TIP3   OH273006   4.172   0.816   3.332 -0.6434 -0.1362 -0.3517
17172TIP3    H173007   4.222   0.821   3.251  1.4644 -1.9803  0.7854
17172TIP3    H273008   4.140   0.726   3.336 -1.2285  0.1061  0.5663
17173TIP3   OH273009   5.024   2.501  11.708 -0.7390 -0.6397 -0.1287
17173TIP3    H173010   4.956   2.563  11.681 -1.2213 -0.4280  1.5116
17173TIP3    H273011   5.082   2.494  11.632 -1.8189  0.2494 -1.0505
17174TIP3   OH273012   5.881   4.188   1.480  0.5331 -0.2272  0.1780
17174TIP3    H173013   5.820   4.174   1.408  1.2562 -0.6584 -0.3515
17174TIP3    H273014   5.844   4.263   1.528 -0.4868 -0.5742 -0.0521
17175TIP3   OH273015   0.495   3.354  11.413  0.5801  0.4291  0.3618
17175TIP3    H173016   0.488   3.363  11.508 -0.9503 -1.0049  0.4062
17175TIP3    H273017   0.589   3.347  11.396  0.7699 -0.9623  1.9302
17176TIP3   OH273018   6.234   1.427  12.800 -0.3996 -0.2025  0.1293
17176TIP3    H173019   6.225   1.438  12.705 -0.5264 -1.9923 -0.0778
17176TIP3    H273020   6.294   1.354  12.811  0.7090  0.8714  1.4632
17177TIP3   OH273021   5.621   3.162   6.334 -0.2619 -0.4296 -0.2353
17177TIP3    H173022   5.593   3.209   6.255 -0.4517 -1.2011 -0.6333
17177TIP3    H273023   5.570   3.201   6.404 -0.1424  0.2187 -0.5075
17178TIP3   OH273024   2.490   2.102   0.754 -0.7453 -0.1643  0.6802
17178TIP3    H173025   2.522   2.045   0.824  1.2895  0.3242  0.1722
17178TIP3    H273026   2.498   2.050   0.675  1.2581  0.8312  0.1925
17179TIP3   OH273027   6.735   2.639  11.909 -0.0036  0.0982 -0.7683
17179TIP3    H173028   6.662   2.580  11.928  0.9284 -0.5871  0.7990
17179TIP3    H273029   6.800   2.584  11.866  0.7182  0.0493  0.3657
17180TIP3   OH273030   4.906   3.642   6.440  0.3354 -0.6172  0.0394
17180TIP3    H173031   4.975   3.701   6.410  1.0966 -2.5280 -2.1546
17180TIP3    H273032   4.946   3.555   6.439 -1.8414 -1.6633 -0.4783
17181TIP3   OH273033   6.418   6.500  12.242 -0.1491 -0.0282  0.3461
17181TIP3    H173034   6.384   6.585  12.269 -2.1591 -0.4300 -0.8287
17181TIP3    H273035   6.477   6.519  12.170  0.4417  0.4779  0.9573
17182TIP3   OH273036   1.943   5.858   0.272  0.0063  0.3057 -0.0209
17182TIP3    H173037   1.878   5.826   0.209 -0.7706  4.1034 -1.2495
17182TIP3    H273038   2.024   5.863   0.222  0.1149  0.3288  0.1565
17183TIP3   OH273039   1.901   5.777   5.695  0.1997 -0.3747 -0.6901
17183TIP3    H173040   1.856   5.832   5.631 -1.2236 -0.6795  0.0374
17183TIP3    H273041   1.878   5.687   5.670 -0.7938 -0.4767  0.5532
17184TIP3   OH273042   4.745   1.936  11.693 -0.3842  0.1733  0.5891
17184TIP3    H173043   4.721   1.909  11.605  1.3087 -0.4810  0.3067
17184TIP3    H273044   4.829   1.981  11.683  0.4859 -1.0620  2.0159
17185TIP3   OH273045   4.268   2.384   1.504 -0.3348 -0.9593  0.3383
17185TIP3    H173046   4.192   2.398   1.561  0.0668  0.2919  0.5807
17185TIP3    H273047   4.248   2.304   1.457 -1.4738 -1.0471  0.9526
17186TIP3   OH273048   3.435   3.609  12.225  0.4298 -0.5377 -0.7231
17186TIP3    H173049   3.503   3.598  12.158 -0.8556  0.2288 -2.1874
17186TIP3    H273050   3.473   3.571  12.304  2.5362 -0.1929 -1.5318
17187TIP3   OH273051   4.369   1.849  13.032 -0.1946 -0.2860  0.2366
17187TIP3    H173052   4.296   1.880  13.086  1.1098  0.1622  1.8110
17187TIP3    H273053   4.329   1.819  12.951 -2.2540 -1.1492  1.5317
17188TIP3   OH273054   0.931   3.428   2.547  0.2956  0.0081  0.5604
17188TIP3    H173055   0.863   3.363   2.565  0.9208 -0.5652  0.8624
17188TIP3    H273056   0.960   3.457   2.633  1.0140 -0.3539  0.4404
17189TIP3   OH273057   5.731   4.392   5.965  0.1454 -0.6960  0.3938
17189TIP3    H173058   5.662   4.434   6.015  0.9593  0.9582  0.1577
17189TIP3    H273059   5.693   4.309   5.936 -2.8262  1.4381 -2.2008
17190TIP3   OH273060   4.877   5.902  10.979  0.2415 -0.0592  0.3611
17190TIP3    H173061   4.972   5.908  10.993  0.2123 -0.2984  0.6796
17190TIP3    H273062   4.862   5.810  10.959  0.0525 -0.0583  0.4982
17191TIP3   OH273063   2.704   1.752  14.938 -0.1657 -0.0262  0.5869
17191TIP3    H173064   2.779   1.759  14.998  2.0370  1.0149 -2.1475
17191TIP3    H273065   2.663   1.839  14.941 -0.3116 -0.1069  0.9107
17192TIP3   OH273066   4.241   3.579   0.759 -0.4377 -0.3925  0.1759
17192TIP3    H173067   4.146   3.592   0.759 -0.4516 -0.3665 -1.8324
17192TIP3    H273068   4.275   3.659   0.719  0.4854 -0.1807  1.3547
17193TIP3   OH273069   4.115   3.647  12.940 -0.5245 -0.1207 -0.1078
17193TIP3    H173070   4.186   3.625  12.879 -1.3317 -1.3002 -0.6592
17193TIP3    H273071   4.146   3.725  12.986  1.3470 -0.9177  0.0362
17194TIP3   OH273072   3.815   2.583  17.024  0.0251 -0.3988  0.1544
17194TIP3    H173073   3.820   2.493  16.990 -0.5379 -0.8144  1.1623
17194TIP3    H273074   3.726   2.591  17.058 -0.0293  0.6578 -0.2446
17195TIP3   OH273075   4.342   6.053   5.345 -0.1863 -0.6802 -0.4770
17195TIP3    H173076   4.307   6.142   5.354 -3.1021 -1.7846 -0.3443
17195TIP3    H273077   4.341   6.037   5.250 -0.6681 -0.9601 -0.4236
17196TIP3   OH273078   5.768   6.076  13.086 -0.1953 -0.0129  0.3140
17196TIP3    H173079   5.803   6.131  13.016 -1.3791 -0.7254 -0.8365
17196TIP3    H273080   5.807   6.113  13.166  1.9925  0.1554 -0.7915
17197TIP3   OH273081   3.243   0.001  11.388 -0.4790  0.6849 -0.2908
17197TIP3    H173082   3.154  -0.007  11.354 -0.0434  1.1170 -1.5986
17197TIP3    H273083   3.233   0.019  11.481 -1.6988 -1.4826 -0.0005
17198TIP3   OH273084   1.953   5.390  15.714  0.0539  0.2225  0.4894
17198TIP3    H173085   1.880   5.438  15.753 -0.1847  0.1918  0.0799
17198TIP3    H273086   2.030   5.416  15.766  0.3338  2.8254 -1.1578
17199TIP3   OH273087   6.656   3.864  12.941  0.7335  0.2718  0.2458
17199TIP3    H173088   6.628   3.782  12.902  0.1123 -0.8302  2.9243
17199TIP3    H273089   6.679   3.920  12.866  1.3029 -2.3547 -1.5976
17200TIP3   OH273090   3.101   1.069  15.213 -0.3986  0.2331 -0.0652
17200TIP3    H173091   3.023   1.120  15.193  0.1070  1.3850  0.8491
17200TIP3    H273092   3.147   1.062  15.129 -1.2664 -0.0743 -0.5120
17201TIP3   OH273093   1.516   3.060   4.308 -0.5699  0.4761 -0.6882
17201TIP3    H173094   1.545   3.093   4.222 -0.2259  2.4498  0.1431
17201TIP3    H273095   1.444   3.118   4.332 -0.9135 -0.3099  0.1744
17202TIP3   OH273096   6.262   3.956  16.687  0.4039 -0.4722  0.3849
17202TIP3    H173097   6.216   3.963  16.770 -1.4770  3.6813 -0.8880
17202TIP3    H273098   6.236   3.872  16.652 -3.0062  0.0295  1.5854
17203TIP3   OH273099   2.511   0.101   5.650  0.1156 -0.3741 -0.1170
17203TIP3    H173100   2.421   0.075   5.629 -0.5714  2.3745 -0.7852
17203TIP3    H273101   2.514   0.102   5.745 -0.5939 -0.3675 -0.0911
17204TIP3   OH273102   0.607   5.007  15.682 -0.1357 -0.2952  0.5659
17204TIP3    H173103   0.576   5.003  15.773 -0.7291 -1.1232  0.3367
17204TIP3    H273104   0.547   4.949  15.634 -0.5289  1.0146 -0.5497
17205TIP3   OH273105   1.607   0.302  16.581  0.1926  0.2621  0.4428
17205TIP3    H173106   1.549   0.277  16.509  0.1256 -1.9943  1.2574
17205TIP3    H273107   1.553   0.362  16.634 -0.8545 -0.5570  0.3254
17206TIP3   OH273108   2.196   5.455   4.569  0.1240 -0.1696 -0.2063
17206TIP3    H173109   2.227   5.472   4.659 -0.0457 -1.7991  0.1687
17206TIP3    H273110   2.199   5.360   4.560 -1.0092 -0.0924 -1.5298
17207TIP3   OH273111   0.182   6.756   2.247  0.4931  0.1852  0.6311
17207TIP3    H173112   0.149   6.839   2.282  0.6227  1.3725 -1.9353
17207TIP3    H273113   0.162   6.692   2.315 -2.0643  1.8474  1.5423
17208TIP3   OH273114   3.965   2.097   0.964  0.7231  0.1371  0.3178
17208TIP3    H173115   3.912   2.020   0.984  2.0299 -1.0369 -0.5911
17208TIP3    H273116   3.932   2.165   1.022 -0.8636 -0.9426  0.7087
17209TIP3   OH273117   5.814   2.520   2.808 -0.0478  0.2601  0.3775
17209TIP3    H173118   5.788   2.458   2.741 -1.1491 -0.9256  1.8738
17209TIP3    H273119   5.880   2.474   2.860 -2.6624 -0.6409  3.0089
17210TIP3   OH273120   1.106   5.707   3.605 -0.0521 -0.7565 -0.3354
17210TIP3    H173121   1.028   5.729   3.655  0.0698 -0.5507 -0.2388
17210TIP3    H273122   1.158   5.651   3.664 -0.4610 -1.4841 -0.6555
17211TIP3   OH273123   1.074   0.151   6.298  0.2478  0.2067 -0.2194
17211TIP3    H173124   1.094   0.066   6.260 -0.5410 -1.5794  3.1950
17211TIP3    H273125   0.978   0.154   6.301  0.2467 -0.5693  3.2658
17212TIP3   OH273126   4.669   1.935   5.290 -0.2963 -0.5472 -0.9188
17212TIP3    H173127   4.645   1.873   5.359 -2.6683  1.9142  0.5946
17212TIP3    H273128   4.601   1.924   5.223 -0.8011  0.4020 -0.5908
17213TIP3   OH273129   3.375   6.392  15.420 -0.2037 -0.2058  0.3508
17213TIP3    H173130   3.361   6.418  15.512  0.6179 -0.3406  0.5148
17213TIP3    H273131   3.288   6.367  15.389 -0.3505 -0.9496  1.3423
17214TIP3   OH273132   6.208   1.786  15.826  0.6395 -0.6508 -0.1221
17214TIP3    H173133   6.122   1.781  15.783  0.3756 -1.5467  0.5027
17214TIP3    H273134   6.191   1.837  15.905  0.7573 -0.5269 -0.1773
17215TIP3   OH273135   2.837   2.076  12.913 -0.1015  0.2752 -0.9346
17215TIP3    H173136   2.891   2.029  12.850  0.7272 -1.4044  0.9885
17215TIP3    H273137   2.899   2.112  12.977 -1.0963 -0.3517  0.4173
17216TIP3   OH273138   5.966   3.212   0.534  0.3423 -0.1488  0.0960
17216TIP3    H173139   6.018   3.193   0.456  0.2756 -1.0960  0.2816
17216TIP3    H273140   5.911   3.286   0.508  1.1184  0.2579 -0.3967
17217TIP3   OH273141   6.719   5.136   0.329 -0.1896  0.3955  0.4935
17217TIP3    H173142   6.747   5.224   0.355 -0.6268  0.7763 -0.2896
17217TIP3    H273143   6.696   5.145   0.236 -1.3900 -0.2749  0.7185
17218TIP3   OH273144   3.104   0.907  11.405  0.8505 -0.0145 -0.3182
17218TIP3    H173145   3.128   0.979  11.347  0.2151  0.6373  0.2173
17218TIP3    H273146   3.009   0.900  11.397  0.9505 -1.0361 -0.6443
17219TIP3   OH273147   2.627   4.577   4.213  0.0743 -0.2496  0.1175
17219TIP3    H173148   2.598   4.511   4.276  2.5513 -1.2633  0.2221
17219TIP3    H273149   2.595   4.660   4.249 -2.4209 -1.2536  0.3611
17220TIP3   OH273150   4.282   0.309   5.021  0.3987  0.0347 -0.4433
17220TIP3    H173151   4.217   0.349   5.079  0.9834  0.3756 -0.0236
17220TIP3    H273152   4.345   0.378   5.003 -0.3461  0.2287 -2.3453
17221TIP3   OH273153   3.933   5.634  14.050  0.4574 -0.6520  0.4068
17221TIP3    H173154   3.854   5.608  14.003  0.0005  1.9110 -0.3402
17221TIP3    H273155   3.980   5.552  14.066 -1.4890 -2.0203 -0.6879
17222TIP3   OH273156   5.048   5.842   4.766 -0.3985  0.4147 -0.0976
17222TIP3    H173157   5.139   5.857   4.791  0.4041 -1.6703 -1.6106
17222TIP3    H273158   5.003   5.819   4.847  1.1715 -1.8257  0.1657
17223TIP3   OH273159   2.356   6.141  12.842  0.6659 -0.5359 -0.0473
17223TIP3    H173160   2.375   6.095  12.924 -0.2281  0.9505  1.0111
17223TIP3    H273161   2.414   6.099  12.777  0.2175 -2.7933  0.9809
17224TIP3   OH273162   5.466   0.726   4.395 -0.8490 -0.1300 -0.2655
17224TIP3    H173163   5.443   0.645   4.441  0.4236  0.5508  1.6363
17224TIP3    H273164   5.490   0.787   4.465 -1.6624  1.8561 -1.6828
17225TIP3   OH273165   4.827   4.788   1.312  0.1959  0.3680  0.2657
17225TIP3    H173166   4.761   4.858   1.303  0.7038  1.0556  1.6805
17225TIP3    H273167   4.864   4.779   1.225  0.5081  2.2663  0.1737
17226TIP3   OH273168   2.864   3.655  15.475  0.0723 -0.0074 -0.1167
17226TIP3    H173169   2.793   3.667  15.538  0.0121 -0.6920 -0.0489
17226TIP3    H273170   2.865   3.737  15.425  0.0459  0.4996  0.6906
17227TIP3   OH273171   4.087   3.703   2.124 -0.0329  0.6329  0.0538
17227TIP3    H173172   4.055   3.625   2.080 -0.3890  1.1351 -0.5866
17227TIP3    H273173   4.181   3.689   2.134 -0.0603  0.2223 -0.2547
17228TIP3   OH273174   4.359   1.329  16.845  0.3274 -0.2836 -0.4291
17228TIP3    H173175   4.445   1.334  16.803 -0.1909 -0.1394 -1.4952
17228TIP3    H273176   4.306   1.392  16.797 -0.6281 -1.0461 -0.3855
17229TIP3   OH273177   1.078   3.156   4.178 -0.6184  0.3614  0.4535
17229TIP3    H173178   1.080   3.063   4.198 -0.4211  0.5124  1.1599
17229TIP3    H273179   1.011   3.192   4.237 -1.5540  0.4791 -0.6455
17230TIP3   OH273180   3.233   1.815   3.329  0.5922 -0.4142 -0.7996
17230TIP3    H173181   3.162   1.752   3.327  0.7521 -0.5728 -1.7540
17230TIP3    H273182   3.191   1.900   3.342  0.3326 -0.6508 -0.1045
17231TIP3   OH273183   3.436   4.465   5.920  0.2890  0.5395  0.7402
17231TIP3    H173184   3.507   4.516   5.880 -0.6316  3.0272  2.2264
17231TIP3    H273185   3.467   4.447   6.009 -0.1013 -0.0820  0.7504
17232TIP3   OH273186   2.219   6.167  17.134  0.9040 -0.0256 -0.1944
17232TIP3    H173187   2.174   6.101  17.081 -1.4187  0.7526  0.7237
17232TIP3    H273188   2.235   6.239  17.074 -0.3140  0.2240 -0.2406
17233TIP3   OH273189   2.037   2.810  14.873  0.2047 -0.5868 -0.1411
17233TIP3    H173190   1.998   2.857  14.799  0.8214  0.6774  0.3267
17233TIP3    H273191   2.084   2.737  14.832 -1.7020 -1.4982 -0.7894
17234TIP3   OH273192   6.718   1.277  11.392  0.2878  0.4044 -0.2382
17234TIP3    H173193   6.674   1.239  11.468 -1.1112  0.1152 -1.1653
17234TIP3    H273194   6.722   1.205  11.329 -0.2332  1.1325 -1.1155
17235TIP3   OH273195   4.840   6.027  15.572 -0.4882 -0.6488  0.3037
17235TIP3    H173196   4.871   5.959  15.512 -0.5074 -1.1642  0.8737
17235TIP3    H273197   4.920   6.074  15.597 -0.7678  1.1682 -2.0525
17236TIP3   OH273198   0.998   5.924  14.812 -0.5212 -0.1997 -0.3184
17236TIP3    H173199   1.000   6.019  14.803 -0.8913 -0.0905  0.6490
17236TIP3    H273200   0.906   5.901  14.800 -0.6513 -0.2844  0.7632
17237TIP3   OH273201   0.544   5.959   3.270 -0.0337 -0.3575 -0.5372
17237TIP3    H173202   0.455   5.969   3.305  0.1777  1.8075 -0.5311
17237TIP3    H273203   0.591   5.909   3.336 -0.4645  1.0684  0.8670
17238TIP3   OH273204   6.073   1.469   3.716 -0.1899  0.0784 -0.1824
17238TIP3    H173205   6.166   1.485   3.735  0.0017 -0.4689 -0.6667
17238TIP3    H273206   6.043   1.417   3.791  0.4032 -1.5087 -1.0382
17239TIP3   OH273207   0.978   6.182  16.589 -0.3182  0.5835  0.3155
17239TIP3    H173208   0.957   6.271  16.558 -0.1643  0.6943  0.5337
17239TIP3    H273209   0.965   6.186  16.683  2.2379  1.0908  0.6823
17240TIP3   OH273210   0.878   2.778   6.041  0.1711  0.1738  0.2084
17240TIP3    H173211   0.939   2.813   6.107  1.7893 -0.9907 -0.6227
17240TIP3    H273212   0.827   2.713   6.089 -0.1329  0.8541  0.8194
17241TIP3   OH273213   6.601   3.568  16.084  0.5708 -0.6503  0.0920
17241TIP3    H173214   6.551   3.602  16.158 -1.4680 -0.6072 -1.2744
17241TIP3    H273215   6.657   3.642  16.057 -1.1265  0.4402 -0.5145
17242TIP3   OH273216   3.019   1.491  13.533  0.7168 -0.2695  0.1169
17242TIP3    H173217   3.053   1.418  13.585  0.4161 -0.4611  0.0454
17242TIP3    H273218   2.964   1.539  13.593 -0.1741 -0.8763 -0.2030
17243TIP3   OH273219   4.416   0.572   1.720  0.4188  0.1303 -0.1487
17243TIP3    H173220   4.345   0.556   1.782 -0.9141  0.4900 -1.5795
17243TIP3    H273221   4.468   0.492   1.722  1.0272  0.5500  2.2587
17244TIP3   OH273222   0.268   1.240   4.088 -0.0688 -0.5174  0.2289
17244TIP3    H173223   0.289   1.210   4.176 -1.1966  1.1641  1.0748
17244TIP3    H273224   0.340   1.298   4.064  0.6539 -1.6119 -0.2938
17245TIP3   OH273225   4.472   6.028  12.924 -0.1808  0.1957 -0.6831
17245TIP3    H173226   4.494   6.062  12.838  1.4544  0.2160 -0.2622
17245TIP3    H273227   4.403   5.963  12.908 -0.6275  0.9619 -1.8766
17246TIP3   OH273228   3.581   1.871  14.071 -0.0609  0.2491 -0.1301
17246TIP3    H173229   3.553   1.780  14.065 -1.3527  0.5999  0.4652
17246TIP3    H273230   3.534   1.915  14.000  0.8367  0.3918 -0.6452
17247TIP3   OH273231   5.990   5.370  16.594 -0.4431  0.3347 -0.1996
17247TIP3    H173232   5.998   5.276  16.613 -0.9055  0.3794  0.2459
17247TIP3    H273233   6.069   5.392  16.545 -0.0865 -0.1792  0.1459
17248TIP3   OH273234   4.274   5.798   2.223  0.2591  0.0182  0.0781
17248TIP3    H173235   4.183   5.787   2.248  0.1150  1.6503  0.2611
17248TIP3    H273236   4.271   5.842   2.138  0.8894  0.4708  0.2893
17249TIP3   OH273237   3.752   0.450   5.308 -0.3355  0.2513 -0.7223
17249TIP3    H173238   3.690   0.400   5.361 -0.4484 -0.2460 -1.3195
17249TIP3    H273239   3.763   0.398   5.228 -0.7140  1.3396 -1.4921
17250TIP3   OH273240   5.703   1.227   0.128  0.4387 -0.2357 -0.1676
17250TIP3    H173241   5.693   1.288   0.056 -0.1668  0.9130  0.8654
17250TIP3    H273242   5.750   1.276   0.195 -2.7359  0.1522  1.8800
17251TIP3   OH273243   5.923   6.470  11.901  0.1544  0.1526  0.0452
17251TIP3    H173244   5.885   6.468  11.988  0.9001 -0.9206  0.3612
17251TIP3    H273245   5.850   6.455  11.842 -0.1701 -0.2841  0.5576
17252TIP3   OH273246   1.942   1.961  13.746  0.0662 -0.0767  0.5463
17252TIP3    H173247   1.976   1.872  13.751 -0.6521 -0.4120 -0.4203
17252TIP3    H273248   2.015   2.013  13.712 -0.3088 -0.7826 -1.4535
17253TIP3   OH273249   2.173   4.230  11.482  0.2121 -0.3172  0.1549
17253TIP3    H173250   2.196   4.261  11.395  0.6145 -0.5845  0.1679
17253TIP3    H273251   2.180   4.308  11.537 -1.9744  0.3064 -0.3956
17254TIP3   OH273252   2.516   2.841   1.317 -0.2390  0.1036 -0.3140
17254TIP3    H173253   2.554   2.908   1.374  0.5766  0.1600 -0.9189
17254TIP3    H273254   2.486   2.773   1.377  0.7978  0.0734  0.1920
17255TIP3   OH273255   5.501   6.288   2.057  0.3008  0.1331 -0.6329
17255TIP3    H173256   5.542   6.205   2.033  1.0077 -0.1981  1.5794
17255TIP3    H273257   5.468   6.273   2.145  0.7515  2.3128 -0.0791
17256TIP3   OH273258   5.318   6.812  15.401  0.3213  0.2960  0.5334
17256TIP3    H173259   5.379   6.864  15.349 -0.4276  0.4208 -0.2273
17256TIP3    H273260   5.252   6.782  15.339  0.0119 -0.4561  1.2113
17257TIP3   OH273261   1.590   5.063   0.144  0.5415  1.2996  0.0136
17257TIP3    H173262   1.670   5.019   0.114  0.0016  1.3722 -1.6208
17257TIP3    H273263   1.594   5.058   0.239  1.9642  0.3447 -0.0728
17258TIP3   OH273264   6.457   3.813  12.625 -0.0250 -0.0226 -0.0320
17258TIP3    H173265   6.514   3.792  12.699  0.1825  0.3464 -0.0855
17258TIP3    H273266   6.368   3.807  12.660  0.0560 -0.3276  0.1222
17259TIP3   OH273267   2.391   4.526   3.617  0.4785 -0.4950 -0.2667
17259TIP3    H173268   2.454   4.599   3.618 -0.7920  0.6102 -0.1791
17259TIP3    H273269   2.388   4.499   3.525 -1.0021  1.3122 -0.7950
17260TIP3   OH273270   1.754   3.214   3.081  0.3195 -0.3076  0.0398
17260TIP3    H173271   1.745   3.291   3.024 -0.4470 -0.9377 -0.7096
17260TIP3    H273272   1.833   3.232   3.133  0.2955  0.8666 -0.3021
17261TIP3   OH273273   1.523   5.529   4.202 -0.3693 -0.7199 -0.1097
17261TIP3    H173274   1.527   5.437   4.178  2.0550 -0.8250  0.5605
17261TIP3    H273275   1.607   5.546   4.245 -1.3727  1.4292  1.0822
17262TIP3   OH273276   0.716   4.112   1.510 -0.1700 -0.1246 -0.1904
17262TIP3    H173277   0.654   4.079   1.575  0.4901 -0.3347  0.3477
17262TIP3    H273278   0.700   4.059   1.432  0.9246 -1.8120  0.6897
17263TIP3   OH273279   0.270   4.563   1.547 -1.0255  0.0034  0.2954
17263TIP3    H173280   0.198   4.517   1.503 -0.1505 -1.8194  0.7088
17263TIP3    H273281   0.349   4.532   1.503 -0.4503  1.7415  0.0611
17264TIP3   OH273282   5.657   3.799   6.222 -0.0878 -0.8628 -0.1218
17264TIP3    H173283   5.650   3.705   6.204  0.2086 -1.2133  1.4861
17264TIP3    H273284   5.724   3.805   6.291  2.0866  0.7782 -2.2965
17265TIP3   OH273285   2.483   2.691   5.247  0.0572 -0.6259  0.0618
17265TIP3    H173286   2.546   2.624   5.221  0.3811 -0.3651  0.1649
17265TIP3    H273287   2.533   2.773   5.246  0.0753 -0.6038  1.4850
17266TIP3   OH273288   3.496   6.325   2.497 -0.5168 -0.2406  0.3780
17266TIP3    H173289   3.521   6.241   2.459  1.7612 -0.4179  2.1748
17266TIP3    H273290   3.405   6.313   2.524 -1.2123 -1.0615 -2.2835
17267TIP3   OH273291   0.642   4.490  15.081 -0.0573  0.2024  0.0440
17267TIP3    H173292   0.579   4.481  15.153  0.8041  0.3960  0.8353
17267TIP3    H273293   0.727   4.474  15.122  0.2109 -3.1019 -1.5945
17268TIP3   OH273294   2.486   0.325  15.736 -0.5836 -0.3178  0.7992
17268TIP3    H173295   2.408   0.299  15.688  0.6276 -0.5752 -1.0607
17268TIP3    H273296   2.493   0.420  15.722 -0.0831 -0.4349  0.2254
17269TIP3   OH273297   6.321   0.434  13.138 -0.2303 -0.0834  0.0617
17269TIP3    H173298   6.382   0.364  13.111  1.0735  1.6140 -1.5177
17269TIP3    H273299   6.256   0.437  13.068  0.1894  0.8353 -0.2928
17270TIP3   OH273300   2.950   0.911   3.435  0.0784  0.1438  0.5134
17270TIP3    H173301   2.972   0.992   3.482  1.9754  0.1570 -0.3109
17270TIP3    H273302   2.867   0.931   3.391  1.0490  2.0767 -0.5611
17271TIP3   OH273303   0.388   1.985  14.782  0.5609  0.2125 -0.2732
17271TIP3    H173304   0.319   2.050  14.766  1.8305  2.0111  1.3441
17271TIP3    H273305   0.348   1.922  14.841  0.3521  1.3732  0.8419
17272TIP3   OH273306   0.948   3.087  12.443 -0.3058 -0.1823 -0.1294
17272TIP3    H173307   0.962   3.079  12.537  0.5511  1.6176 -0.0832
17272TIP3    H273308   0.889   3.015  12.421  1.8271 -2.4334  1.2673
17273TIP3   OH273309   6.353   4.176   6.024  0.3111  0.1923 -0.5461
17273TIP3    H173310   6.389   4.261   5.999  1.3200 -0.1710 -0.3278
17273TIP3    H273311   6.291   4.196   6.094  0.4031  0.7669 -0.6271
17274TIP3   OH273312   0.648   3.026   0.237  0.1965 -0.4570 -0.6957
17274TIP3    H173313   0.712   2.968   0.196  1.6770  1.1605 -0.7103
17274TIP3    H273314   0.620   3.085   0.167  0.7792  0.6216 -0.0407
17275TIP3   OH273315   2.662   1.025   0.075 -0.3168  0.2889 -0.1182
17275TIP3    H173316   2.684   1.057  -0.012 -0.8558 -0.1721 -0.4379
17275TIP3    H273317   2.583   1.073   0.099 -0.9590 -0.5585 -0.4758
17276TIP3   OH273318   6.811   0.724   4.594  1.0875  0.5520 -0.8782
17276TIP3    H173319   6.875   0.771   4.541  1.0089  1.5834 -0.0923
17276TIP3    H273320   6.736   0.712   4.535  1.5641  0.3712 -1.4499
17277TIP3   OH273321   5.884   1.837  14.062 -0.0813  0.0521 -0.0194
17277TIP3    H173322   5.927   1.762  14.021 -0.5682 -0.7827  0.9939
17277TIP3    H273323   5.936   1.913  14.032  0.9693 -0.7633 -0.3045
17278TIP3   OH273324   6.654   6.322  11.847  0.5727 -0.2340  0.0550
17278TIP3    H173325   6.664   6.407  11.889 -1.2290 -0.1044  0.2621
17278TIP3    H273326   6.721   6.267  11.887  2.0973  1.2200 -0.4570
17279TIP3   OH273327   0.094   4.668  13.104  0.4831  0.2126 -0.0838
17279TIP3    H173328   0.113   4.601  13.038  1.0988 -1.2724  1.5577
17279TIP3    H273329   0.174   4.674  13.156 -0.5181  0.2035  1.4954
17280TIP3   OH273330   2.497   3.917  15.132  0.4983  0.4127 -0.6490
17280TIP3    H173331   2.513   3.873  15.215 -0.7502  0.9073 -0.1452
17280TIP3    H273332   2.413   3.961  15.143  1.3404  2.2844 -1.4082
17281TIP3   OH273333   6.391   6.354   1.867  0.3127 -0.1064  0.5173
17281TIP3    H173334   6.334   6.367   1.791  0.6825  1.4414  0.4931
17281TIP3    H273335   6.474   6.393   1.842  0.5685  0.0403  1.5623
17282TIP3   OH273336   5.854   3.299  15.960  0.4527 -0.2682  0.0267
17282TIP3    H173337   5.851   3.262  15.871 -0.7885 -1.6093  0.5959
17282TIP3    H273338   5.875   3.224  16.016 -0.2154  0.2760  1.0153
17283TIP3   OH273339   2.152   2.909  15.663  0.0586 -0.2756  0.4249
17283TIP3    H173340   2.156   2.818  15.633  1.0507 -0.8983  2.3424
17283TIP3    H273341   2.241   2.943  15.646 -0.3379  0.3798 -0.3814
17284TIP3   OH273342   1.474   0.473   0.218 -0.2916  0.1035  0.2012
17284TIP3    H173343   1.414   0.458   0.291  0.4397  0.3789  0.8738
17284TIP3    H273344   1.421   0.518   0.152 -0.6539  1.0025  1.0818
17285TIP3   OH273345   3.482   2.880  10.897  0.2927  0.5308  0.5448
17285TIP3    H173346   3.536   2.824  10.842  0.0708  0.3654  0.4970
17285TIP3    H273347   3.456   2.953  10.841 -2.4422 -1.1505 -0.4858
17286TIP3   OH273348   6.594   4.341   1.695 -0.0815 -0.4820 -0.1884
17286TIP3    H173349   6.644   4.259   1.694 -0.3025 -0.6144 -0.4155
17286TIP3    H273350   6.504   4.314   1.673 -0.5282 -0.4371  1.5042
17287TIP3   OH273351   3.694   3.512  16.768 -0.7229  0.6846  0.0144
17287TIP3    H173352   3.702   3.606  16.749 -0.7033  0.8651  0.9068
17287TIP3    H273353   3.779   3.476  16.745 -0.6911  0.9056 -0.2228
17288TIP3   OH273354   4.285   5.131   0.941  0.0613 -0.2384 -0.2699
17288TIP3    H173355   4.295   5.084   1.024  1.3796 -0.5544 -0.5966
17288TIP3    H273356   4.216   5.195   0.958  0.1605 -0.4565  1.0041
17289TIP3   OH273357   4.760   6.039   2.947  0.2481 -0.1856  0.1576
17289TIP3    H173358   4.752   6.076   2.859 -1.8263  0.9230  0.7642
17289TIP3    H273359   4.700   6.092   3.000 -0.5954 -2.5764  1.6746
17290TIP3   OH273360   1.440   3.479  12.332  0.0941  0.2978 -0.1001
17290TIP3    H173361   1.509   3.502  12.269  0.4402 -1.9525 -0.5697
17290TIP3    H273362   1.483   3.420  12.393 -0.9550  0.3444  0.6922
17291TIP3   OH273363   1.144   5.749   4.808  0.2142 -0.2421 -0.9201
17291TIP3    H173364   1.107   5.665   4.836 -0.2256  0.0353 -0.6624
17291TIP3    H273365   1.132   5.750   4.714 -1.1223  0.1716 -0.7513
17292TIP3   OH273366   6.603   6.111   0.772 -0.0225 -0.0380  0.4539
17292TIP3    H173367   6.684   6.130   0.820 -1.1071 -0.1579  2.3959
17292TIP3    H273368   6.575   6.196   0.739  0.3116  0.1867  0.7369
17293TIP3   OH273369   4.819   2.272  13.035  0.1666  0.0016 -0.1239
17293TIP3    H173370   4.815   2.342  13.100  1.5643 -1.3460  1.4822
17293TIP3    H273371   4.731   2.236  13.033 -0.2367  0.9708 -0.0111
17294TIP3   OH273372   1.540   1.784  16.624 -0.0694  0.5609 -0.0993
17294TIP3    H173373   1.551   1.845  16.697 -1.8894  0.3959  0.3392
17294TIP3    H273374   1.522   1.700  16.666  0.2754  0.1673 -0.7312
17295TIP3   OH273375   0.136   2.381   0.347 -0.0020  0.3035  0.0112
17295TIP3    H173376   0.071   2.370   0.278  0.2400  0.5340 -0.2573
17295TIP3    H273377   0.212   2.332   0.316 -0.6322 -1.4201  1.1224
17296TIP3   OH273378   3.526   5.198  13.930  0.2018  0.1279  0.3512
17296TIP3    H173379   3.463   5.253  13.882  1.3518  1.6931  0.6193
17296TIP3    H273380   3.540   5.122  13.872  0.3006  1.1896 -1.0422
17297TIP3   OH273381   6.744   4.301   7.093  0.1504  0.4312 -0.1260
17297TIP3    H173382   6.741   4.217   7.047  0.5620  0.5236 -0.3209
17297TIP3    H273383   6.758   4.365   7.023  0.4596  0.6039  0.0937
17298TIP3   OH273384   1.894   0.430   5.377  0.0860 -0.2511  0.0781
17298TIP3    H173385   1.933   0.438   5.465  0.3741 -0.6867 -0.0095
17298TIP3    H273386   1.967   0.445   5.317 -0.0844 -0.0846 -0.0868
17299TIP3   OH273387   1.784   4.462  14.558  0.5115 -0.7398  0.2443
17299TIP3    H173388   1.833   4.380  14.553  0.4171 -0.7717 -0.1478
17299TIP3    H273389   1.815   4.514  14.484  0.6944 -0.3507  0.5909
17300TIP3   OH273390   0.829   1.105  15.613  0.3397  0.3869 -0.1987
17300TIP3    H173391   0.823   1.163  15.537 -0.4109 -1.0841 -1.2975
17300TIP3    H273392   0.917   1.068  15.608 -0.2592 -0.9765 -1.3554
17301TIP3   OH273393   3.284   5.695   5.333  0.0524 -0.1142 -0.0976
17301TIP3    H173394   3.293   5.665   5.242  0.1703 -0.9271  0.1779
17301TIP3    H273395   3.205   5.749   5.332  0.5820  0.6691 -0.8840
17302TIP3   OH273396   0.697   0.612   1.657 -0.6426  0.0922 -0.1660
17302TIP3    H173397   0.608   0.636   1.683 -0.5285  0.2370  0.1004
17302TIP3    H273398   0.687   0.534   1.603 -0.8676 -0.3585  0.5190
17303TIP3   OH273399   6.599   3.104   0.309  0.1790  0.2637 -0.0714
17303TIP3    H173400   6.675   3.073   0.261  0.3064  0.8240 -0.2333
17303TIP3    H273401   6.615   3.077   0.400  0.0067 -0.6615 -0.3101
17304TIP3   OH273402   1.132   3.472  11.814  0.9066 -0.2429 -0.0266
17304TIP3    H173403   1.150   3.380  11.829 -0.2103 -0.7489 -1.6358
17304TIP3    H273404   1.100   3.476  11.724 -0.5214  1.5073  0.5246
17305TIP3   OH273405   5.922   4.382   2.662  0.0461  0.6427  0.0219
17305TIP3    H173406   5.862   4.454   2.644 -0.0772  0.7700  0.9032
17305TIP3    H273407   5.993   4.423   2.713  0.6419  0.4009 -0.5968
17306TIP3   OH273408   5.458   4.061  12.072 -0.7725 -0.1838  0.0626
17306TIP3    H173409   5.404   4.112  12.011 -0.0198 -0.2564 -0.6717
17306TIP3    H273410   5.450   3.970  12.040  0.9063 -0.0085 -0.9109
17307TIP3   OH273411   0.398   6.560   3.804  0.2713  0.3044 -0.4954
17307TIP3    H173412   0.413   6.486   3.746 -0.6679 -0.0513 -0.2936
17307TIP3    H273413   0.378   6.633   3.746 -0.6246 -0.0420 -0.6337
17308TIP3   OH273414   2.611   4.799   4.924 -0.6273  0.1473  0.1888
17308TIP3    H173415   2.644   4.748   4.850  0.9405 -1.1697  1.7364
17308TIP3    H273416   2.567   4.735   4.979  1.7028  0.3140  2.3486
17309TIP3   OH273417   3.643   2.917   6.065 -1.0115 -0.4741  0.1484
17309TIP3    H173418   3.556   2.946   6.090 -1.3395  0.1327 -1.6514
17309TIP3    H273419   3.702   2.980   6.105 -1.4928  0.1731 -0.1651
17310TIP3   OH273420   2.198   3.125  16.872 -0.3306  0.1110 -0.2009
17310TIP3    H173421   2.152   3.207  16.892  2.1063  1.1852  1.1652
17310TIP3    H273422   2.275   3.151  16.822  1.3695 -1.1269  1.6745
17311TIP3   OH273423   1.931   5.846   2.023  0.4549  0.4014  0.1963
17311TIP3    H173424   1.877   5.768   2.010 -1.7232  2.0123 -0.7666
17311TIP3    H273425   2.004   5.834   1.963 -0.7966 -0.0793 -1.2816
17312TIP3   OH273426   4.001   2.872  13.125  0.1261 -0.3967 -0.2792
17312TIP3    H173427   3.927   2.931  13.141  0.4639  0.1936 -0.8547
17312TIP3    H273428   3.969   2.811  13.059  0.7587  1.0654 -1.9995
17313TIP3   OH273429   4.504   1.434   1.240 -0.4630  0.0694  0.1134
17313TIP3    H173430   4.599   1.438   1.229 -0.1870 -0.1563  2.1551
17313TIP3    H273431   4.489   1.349   1.281 -1.4170  0.5896  0.8513
17314TIP3   OH273432   1.882   6.151   4.913 -0.3090  0.2859  0.4891
17314TIP3    H173433   1.868   6.199   4.995 -0.0388  1.1345  0.0468
17314TIP3    H273434   1.898   6.219   4.848  0.5520 -0.4228 -0.0605
17315TIP3   OH273435   2.915   5.498  13.487 -0.0841  0.4295 -0.3153
17315TIP3    H173436   2.933   5.581  13.443  0.7471  0.2253 -0.3817
17315TIP3    H273437   2.907   5.434  13.417  1.2870  0.0965 -0.1896
17316TIP3   OH273438   2.017   2.660   5.556  0.3243  0.3164 -0.0756
17316TIP3    H173439   2.104   2.662   5.517  0.7307  2.1313  0.8671
17316TIP3    H273440   1.968   2.728   5.508  0.2935  1.2957  1.3068
17317TIP3   OH273441   2.745   4.593  17.100 -0.4518  0.2765 -0.1718
17317TIP3    H173442   2.701   4.559  17.177 -1.0441 -2.0328 -1.4809
17317TIP3    H273443   2.827   4.545  17.095 -0.1991  0.7475 -0.7283
17318TIP3   OH273444   6.113   1.000  12.717  0.4805  0.3220  0.0878
17318TIP3    H173445   6.030   1.000  12.764  0.8539  0.9257  0.7577
17318TIP3    H273446   6.118   1.086  12.676 -1.2640 -1.2588 -3.6608
17319TIP3   OH273447   6.768   4.693   0.271  0.0114 -0.1256 -0.5003
17319TIP3    H173448   6.823   4.698   0.193 -1.1967 -2.0507 -1.5259
17319TIP3    H273449   6.749   4.599   0.280 -1.0126  0.2378  1.2912
17320TIP3   OH273450   6.736   4.555   1.795  0.6354 -0.1559  0.0259
17320TIP3    H173451   6.692   4.597   1.869  3.5040  0.5712  1.4048
17320TIP3    H273452   6.691   4.472   1.784 -0.1337 -0.0692  2.3192
17321TIP3   OH273453   5.811   0.675   2.887 -0.2026 -0.6971 -0.5822
17321TIP3    H173454   5.817   0.583   2.864 -0.0067 -0.8251 -0.0201
17321TIP3    H273455   5.817   0.677   2.983 -0.5208 -0.1292 -0.5692
17322TIP3   OH273456   2.386   5.729   0.757  0.2484 -0.5575  0.3567
17322TIP3    H173457   2.480   5.718   0.743  0.5101 -0.5278  1.9850
17322TIP3    H273458   2.348   5.728   0.669  1.7122 -1.0993 -0.2807
17323TIP3   OH273459   3.022   5.762   0.374 -0.1308 -0.1593 -0.3788
17323TIP3    H173460   2.928   5.751   0.357  0.0396 -0.5142 -1.0852
17323TIP3    H273461   3.033   5.735   0.465 -1.1726  2.4682  0.5743
17324TIP3   OH273462   6.686   5.390   2.652 -0.1655 -0.1631 -0.7050
17324TIP3    H173463   6.599   5.423   2.678  0.0146  0.3715 -0.7680
17324TIP3    H273464   6.733   5.468   2.624  0.9343 -0.1719  1.0181
17325TIP3   OH273465   1.452   5.932  17.116  0.1371 -0.2622 -0.1481
17325TIP3    H173466   1.368   5.975  17.128  1.4532  1.9479  1.6000
17325TIP3    H273467   1.459   5.872  17.191  0.1476 -0.3580 -0.2241
17326TIP3   OH273468   0.548   2.663  15.316 -0.1273  0.1007  0.9058
17326TIP3    H173469   0.612   2.598  15.285 -1.2228 -0.5995  0.0487
17326TIP3    H273470   0.593   2.710  15.386  0.3704 -2.2256  2.1911
17327TIP3   OH273471   1.043   2.224   3.233 -0.0587  0.0949  0.4624
17327TIP3    H173472   1.057   2.150   3.174  1.3670  0.9429 -0.3060
17327TIP3    H273473   0.956   2.210   3.271  0.7063 -2.6153  1.2804
17328TIP3   OH273474   2.709   4.287   3.797 -0.0227  0.5381 -0.6832
17328TIP3    H173475   2.617   4.315   3.796 -0.5649 -1.1641  0.1346
17328TIP3    H273476   2.716   4.232   3.875  1.9045  1.3372 -0.2805
17329TIP3   OH273477   2.574   0.328   3.659 -0.1066 -0.1305  0.0478
17329TIP3    H173478   2.483   0.310   3.684  0.1210 -0.5094  0.6046
17329TIP3    H273479   2.622   0.250   3.686  0.4971  0.3512  0.3693
17330TIP3   OH273480   0.920   4.329   5.084  0.0530 -0.5721 -0.1689
17330TIP3    H173481   0.868   4.386   5.028  1.3867  0.1652 -0.6585
17330TIP3    H273482   0.880   4.242   5.074 -2.6218  0.4122  1.3532
17331TIP3   OH273483   5.211   5.981  14.241  0.1850 -0.4352  0.3387
17331TIP3    H173484   5.265   6.052  14.206 -0.4188 -0.3346 -0.4075
17331TIP3    H273485   5.224   5.908  14.180 -0.7236 -0.3228  0.0099
17332TIP3   OH273486   2.388   1.302  15.058 -0.6301 -0.0243 -0.0448
17332TIP3    H173487   2.309   1.336  15.016 -0.2160  0.9735 -0.0125
17332TIP3    H273488   2.452   1.372  15.050 -0.4313  0.0495  1.9361
17333TIP3   OH273489   1.468   4.187   5.493  0.0077 -0.2236  0.1551
17333TIP3    H173490   1.549   4.202   5.542  0.2154  1.0321 -0.5424
17333TIP3    H273491   1.473   4.249   5.420 -1.1057 -0.8591 -0.4696
17334TIP3   OH273492   1.574   4.928   2.843 -0.1215 -0.0241  0.4583
17334TIP3    H173493   1.623   4.878   2.907  0.3614  0.2051  0.2688
17334TIP3    H273494   1.567   5.015   2.880  1.1226  0.4040 -0.3017
17335TIP3   OH273495   5.523   1.038   2.724  0.1521 -0.5186 -0.2537
17335TIP3    H173496   5.598   0.979   2.735  1.0219  0.7315  0.7293
17335TIP3    H273497   5.560   1.126   2.738 -1.4784  0.1185  0.1244
17336TIP3   OH273498   2.554   0.882  15.045  0.3767  0.2294 -0.0948
17336TIP3    H173499   2.543   0.802  14.994 -0.8657  0.1231  0.3380
17336TIP3    H273500   2.541   0.952  14.982  0.1534  0.0952 -0.1981
17337TIP3   OH273501   4.590   2.431  15.594 -0.3819  0.1044  0.4165
17337TIP3    H173502   4.582   2.527  15.589 -2.4981 -0.1609 -2.2723
17337TIP3    H273503   4.511   2.403  15.640 -0.6504 -0.4868 -0.4051
17338TIP3   OH273504   2.136   3.811  16.863 -0.5948 -0.2430 -0.1902
17338TIP3    H173505   2.083   3.831  16.940 -1.4513 -0.8759 -0.6077
17338TIP3    H273506   2.227   3.825  16.892 -0.9862  0.9583  0.4943
17339TIP3   OH273507   3.845   3.834  12.166 -0.3975 -0.5706 -0.3070
17339TIP3    H173508   3.865   3.799  12.078  0.6753 -0.9587  0.0786
17339TIP3    H273509   3.930   3.841  12.208 -0.6439  2.1659 -0.2179
17340TIP3   OH273510   3.832   2.823   6.394  1.0498 -0.5544  1.0842
17340TIP3    H173511   3.813   2.917   6.396  1.1425 -0.4835 -0.4196
17340TIP3    H273512   3.923   2.816   6.423  1.1294 -0.1508  0.9278
17341TIP3   OH273513   6.709   6.631  11.024 -0.1837  0.4827 -0.2652
17341TIP3    H173514   6.622   6.663  11.046 -0.4832  0.5172 -1.4579
17341TIP3    H273515   6.768   6.688  11.074 -0.8478  0.0502  1.0482
17342TIP3   OH273516   0.343   4.255   2.122  0.0164 -0.3393  0.2421
17342TIP3    H173517   0.382   4.183   2.071 -0.1428  0.7941 -1.5385
17342TIP3    H273518   0.268   4.215   2.165  0.9248 -1.6464  0.6476
17343TIP3   OH273519   5.726   3.982   2.904 -0.2325  0.1705  0.0214
17343TIP3    H173520   5.687   4.045   2.843  0.7546 -0.1085 -0.9110
17343TIP3    H273521   5.803   4.027   2.939 -1.6120  0.8956  2.2075
17344TIP3   OH273522   1.442   2.886  16.455 -0.3524  0.5098 -0.3554
17344TIP3    H173523   1.523   2.847  16.422  0.7634  2.2602  0.1933
17344TIP3    H273524   1.465   2.919  16.542 -1.8422  0.4332  0.0791
17345TIP3   OH273525   2.528   0.764   6.006 -0.0586 -0.4372 -0.6204
17345TIP3    H173526   2.459   0.767   6.072  1.5227  0.4114  1.0436
17345TIP3    H273527   2.604   0.729   6.053  1.4931  1.5386 -1.5907
17346TIP3   OH273528   2.750   0.695  15.470 -0.1912  0.0806 -0.5278
17346TIP3    H173529   2.734   0.745  15.550 -0.4367 -0.5491 -0.1743
17346TIP3    H273530   2.772   0.760  15.405  1.9810  0.4550  0.5441
17347TIP3   OH273531   1.864   4.439   1.550  0.2206  0.5430  0.0311
17347TIP3    H173532   1.853   4.417   1.643  1.8348  2.1292  0.6265
17347TIP3    H273533   1.907   4.362   1.512 -0.2859 -0.0459  0.6380
17348TIP3   OH273534   1.677   4.803  15.850  0.0845 -0.3722 -0.0346
17348TIP3    H173535   1.734   4.832  15.779  2.2214 -0.8750  1.4252
17348TIP3    H273536   1.613   4.874  15.860  1.6088  1.0927 -0.4724
17349TIP3   OH273537   0.879   3.440  12.164 -0.4346 -0.7086 -0.1727
17349TIP3    H173538   0.942   3.490  12.112 -1.2534  1.9844  1.2676
17349TIP3    H273539   0.912   3.445  12.253 -0.0425 -3.6637 -0.1054
17350TIP3   OH273540   2.578   0.873  12.135 -0.3057  0.1613  0.3906
17350TIP3    H173541   2.622   0.957  12.146 -0.2177 -0.1629  2.7338
17350TIP3    H273542   2.649   0.810  12.123 -0.2172 -0.0226  1.8176
17351TIP3   OH273543   6.697   1.719  11.889 -0.2846  0.2872  0.0031
17351TIP3    H173544   6.637   1.660  11.935 -0.0964  1.0301  1.2194
17351TIP3    H273545   6.746   1.763  11.959  0.3735  1.0502 -0.9253
17352TIP3   OH273546   3.122   3.171   5.622 -0.3719  0.4005  0.2429
17352TIP3    H173547   3.214   3.142   5.623 -0.7549 -0.8413  0.2237
17352TIP3    H273548   3.084   3.129   5.545 -1.2185  0.0657  0.8350
17353TIP3   OH273549   2.709   1.564  11.060  0.7650 -0.3748  0.6305
17353TIP3    H173550   2.711   1.529  10.971  1.2661  0.7984  0.1656
17353TIP3    H273551   2.797   1.600  11.074  1.0224 -1.4508  1.9845
17354TIP3   OH273552   0.765   3.335  12.802 -0.0109  0.1359 -0.5518
17354TIP3    H173553   0.853   3.338  12.840 -0.1112 -0.6301 -0.2456
17354TIP3    H273554   0.710   3.299  12.872 -0.5147  0.3698 -0.8282
17355TIP3   OH273555   3.742   6.819   4.880  0.2726 -0.4171 -0.3321
17355TIP3    H173556   3.832   6.808   4.851 -0.0919  0.7687 -1.9616
17355TIP3    H273557   3.749   6.854   4.969  1.3970 -0.7894 -0.2672
17356TIP3   OH273558   2.022   5.753   3.300 -0.0702 -0.4022 -0.8429
17356TIP3    H173559   2.021   5.786   3.390  0.6234 -1.3027 -0.5070
17356TIP3    H273560   2.070   5.819   3.251 -0.8009  0.2962 -0.6382
17357TIP3   OH273561   4.582   2.976  11.231 -0.1704 -0.2588  0.7736
17357TIP3    H173562   4.629   2.928  11.299  0.3544 -1.7868 -0.6425
17357TIP3    H273563   4.554   2.909  11.169 -0.9416  1.0777 -0.3483
17358TIP3   OH273564   3.018   0.993   2.420 -0.0904 -0.7339 -0.5625
17358TIP3    H173565   2.964   1.071   2.405  1.1918  0.1904 -0.4682
17358TIP3    H273566   2.959   0.919   2.405 -1.9424  0.2419  1.6196
17359TIP3   OH273567   4.820   0.335  15.595 -0.5763 -0.5624 -0.2031
17359TIP3    H173568   4.796   0.282  15.519  1.4709 -0.2523 -1.0937
17359TIP3    H273569   4.900   0.380  15.569 -0.0458 -0.1650  2.0044
17360TIP3   OH273570   3.669   5.090   0.095 -0.4471 -0.1634  0.1034
17360TIP3    H173571   3.592   5.127   0.138 -0.7904  4.2028 -3.8772
17360TIP3    H273572   3.635   5.052   0.014  1.3354  0.2296 -0.8471
17361TIP3   OH273573   6.746   0.895   1.117  0.0543 -0.3417  0.6778
17361TIP3    H173574   6.664   0.878   1.162  0.3768 -0.6710  1.1432
17361TIP3    H273575   6.812   0.894   1.186  0.5619 -0.9541  0.1946
17362TIP3   OH273576   0.782   2.962  14.631 -0.3466  0.0222  0.1515
17362TIP3    H173577   0.698   2.949  14.676  0.6917  0.1306  2.2120
17362TIP3    H273578   0.800   2.878  14.589 -0.6199 -0.5968  1.2494
17363TIP3   OH273579   0.721   2.135  13.554  0.2401  0.0942 -0.7349
17363TIP3    H173580   0.797   2.129  13.496 -0.0079  1.0786 -1.1794
17363TIP3    H273581   0.683   2.047  13.554 -0.2037  0.2660 -2.6965
17364TIP3   OH273582   6.388   2.826   1.482  0.2066  0.0605  0.0135
17364TIP3    H173583   6.423   2.830   1.572  0.5072  1.2110 -0.1520
17364TIP3    H273584   6.295   2.811   1.494  0.5322 -1.7408  0.4845
17365TIP3   OH273585   6.473   6.004  16.126 -0.2200 -0.4480  0.0425
17365TIP3    H173586   6.438   5.935  16.069 -0.5167 -0.6878  0.5130
17365TIP3    H273587   6.426   6.083  16.099 -0.9523 -0.7227  0.5031
17366TIP3   OH273588   1.090   3.062   5.303 -0.1062  0.1116  0.1225
17366TIP3    H173589   1.165   3.119   5.322  1.6449 -1.6908 -1.1802
17366TIP3    H273590   1.126   2.974   5.308 -2.1352 -0.7712 -0.6779
17367TIP3   OH273591   0.200   5.194  14.314  0.2300 -0.2813  0.0797
17367TIP3    H173592   0.180   5.160  14.227 -1.2145 -4.0556  1.7768
17367TIP3    H273593   0.295   5.181  14.323  0.3293 -0.1867 -0.7751
17368TIP3   OH273594   3.233   2.031  13.313  0.0239  0.5895  0.0995
17368TIP3    H173595   3.229   1.979  13.393 -0.6605  0.6666  0.1169
17368TIP3    H273596   3.321   2.070  13.314  0.0661  0.4855  0.7419
17369TIP3   OH273597   5.963   4.081  13.942  0.1042 -0.1237  0.0323
17369TIP3    H173598   6.039   4.023  13.942  0.3766  0.1999  1.8095
17369TIP3    H273599   5.998   4.166  13.967 -0.7019  0.2160  0.0217
17370TIP3   OH273600   2.558   3.412  15.491 -0.2341  0.0753 -0.6342
17370TIP3    H173601   2.641   3.365  15.496  0.4359  1.0326 -2.3472
17370TIP3    H273602   2.514   3.392  15.574  2.1071  0.2830  0.7102
17371TIP3   OH273603   2.964   6.511  15.778  0.1757 -0.0263 -0.0910
17371TIP3    H173604   2.948   6.571  15.850  0.2096  0.1668 -0.2449
17371TIP3    H273605   3.007   6.564  15.711 -0.4911 -0.0408 -0.5371
17372TIP3   OH273606   3.834   4.998   3.470  0.0733  0.6524 -0.0432
17372TIP3    H173607   3.803   4.980   3.559 -0.2317  0.4628 -0.1870
17372TIP3    H273608   3.889   5.076   3.479  0.8015  0.0868  0.4660
17373TIP3   OH273609   1.562   5.936   0.198  0.6439 -0.0115  0.1274
17373TIP3    H173610   1.513   5.974   0.125  0.0021  2.1893  1.6489
17373TIP3    H273611   1.511   5.859   0.225 -0.8931  1.0722  0.3661
17374TIP3   OH273612   0.522   6.695   0.251  0.0556  0.1608  0.2070
17374TIP3    H173613   0.439   6.726   0.213 -0.3099 -0.5915  0.3773
17374TIP3    H273614   0.554   6.770   0.301 -0.1524  0.7040 -0.4484
17375TIP3   OH273615   1.255   6.084  10.422  0.3022  0.4537  0.2393
17375TIP3    H173616   1.217   5.996  10.429 -1.1538  1.1500  1.1784
17375TIP3    H273617   1.181   6.143  10.429  1.4021  1.8053  0.6696
17376TIP3   OH273618   5.428   1.363   4.929  0.0658  0.2534  0.4344
17376TIP3    H173619   5.380   1.353   4.847 -0.4314  0.0241  0.7455
17376TIP3    H273620   5.393   1.443   4.968  0.2459  0.3196  0.4591
17377TIP3   OH273621   5.412   1.056   4.930  0.2237 -0.4586  0.1404
17377TIP3    H173622   5.373   1.078   4.846 -0.0224  0.3135  0.4504
17377TIP3    H273623   5.364   1.109   4.994  1.3844  0.0663  0.5978
17378TIP3   OH273624   5.282   0.208   3.959  0.3693 -0.0294  0.3482
17378TIP3    H173625   5.289   0.298   3.926  2.4893 -1.0137 -2.0190
17378TIP3    H273626   5.366   0.192   4.003 -0.3525 -0.5609  1.5482
17379TIP3   OH273627   6.398   1.652   5.941  0.1222  0.0337 -0.7743
17379TIP3    H173628   6.327   1.629   6.001  1.5637  1.2816  1.4888
17379TIP3    H273629   6.371   1.735   5.903  0.2633  0.4462 -0.0030
17380TIP3   OH273630   4.373   4.462   2.600 -0.3439  0.0991  0.6502
17380TIP3    H173631   4.353   4.437   2.510  0.6066 -2.0810  1.0087
17380TIP3    H273632   4.299   4.430   2.651 -0.7315  1.0464  0.6842
17381TIP3   OH273633   3.291   3.095  13.316  0.6954 -0.2315 -0.3470
17381TIP3    H173634   3.252   3.176  13.350 -0.2736 -1.1678  0.8361
17381TIP3    H273635   3.232   3.068  13.246  0.6955 -0.2006 -0.3589
17382TIP3   OH273636   5.518   2.058  15.900 -0.8061  0.0568 -0.1078
17382TIP3    H173637   5.486   2.105  15.823 -1.2648 -0.4171 -0.2046
17382TIP3    H273638   5.515   1.966  15.876  1.2328  0.0239 -0.3441
17383TIP3   OH273639   5.016   4.531   2.977 -0.2273 -0.2685  0.2354
17383TIP3    H173640   4.926   4.499   2.972  0.1426 -1.5414  1.4088
17383TIP3    H273641   5.027   4.585   2.898 -2.2207  0.4621  0.4284
17384TIP3   OH273642   5.993   2.419  14.092  0.0932  0.0551 -0.1898
17384TIP3    H173643   5.969   2.348  14.032  0.7618 -0.8829  0.6277
17384TIP3    H273644   6.089   2.414  14.097  0.2463  1.7695 -1.0251
17385TIP3   OH273645   2.334   3.154  16.270 -0.5035 -0.5616  0.6211
17385TIP3    H173646   2.280   3.101  16.212 -1.4092 -2.5120  3.1208
17385TIP3    H273647   2.410   3.098  16.289  0.1035  0.3074  0.7725
17386TIP3   OH273648   1.924   5.370  12.809 -0.1471  0.7748  0.6611
17386TIP3    H173649   1.858   5.386  12.877  0.4142 -1.3037  1.7436
17386TIP3    H273650   1.983   5.306  12.848  0.6479  0.1427 -1.5123
17387TIP3   OH273651   1.130   5.718  12.779  0.7309  0.5333  0.1209
17387TIP3    H173652   1.173   5.791  12.734  0.5188 -0.2349 -1.3644
17387TIP3    H273653   1.166   5.721  12.868  3.1952  0.4976 -0.8087
17388TIP3   OH273654   2.939   6.650  12.854  0.0242  0.3496  0.3124
17388TIP3    H173655   2.968   6.707  12.925  0.3151  0.8466 -0.2067
17388TIP3    H273656   2.919   6.710  12.781 -1.0464 -0.0862  0.2393
17389TIP3   OH273657   4.923   1.257   4.484  0.2649 -0.6413  0.7569
17389TIP3    H173658   4.893   1.270   4.394  0.8289  0.4332  0.7224
17389TIP3    H273659   4.854   1.204   4.524 -0.5241 -0.1952  0.0057
17390TIP3   OH273660   3.090   0.639  11.246  0.5062 -0.2675  0.0163
17390TIP3    H173661   3.097   0.677  11.158 -1.2449  0.3489  0.1194
17390TIP3    H273662   3.153   0.688  11.299 -1.9487  2.8253  0.2311
17391TIP3   OH273663   6.811   5.216  16.554  0.2884  0.0211 -0.3711
17391TIP3    H173664   6.717   5.217  16.538  0.0745 -2.3442  0.5439
17391TIP3    H273665   6.841   5.302  16.524 -1.9874  0.4300 -1.6234
17392TIP3   OH273666   0.912   3.456  13.637 -0.6496 -0.8863 -0.0877
17392TIP3    H173667   0.844   3.523  13.648 -0.2617 -0.4063 -0.5550
17392TIP3    H273668   0.985   3.488  13.689 -0.9338 -1.6226  0.7682
17393TIP3   OH273669   1.433   6.159   0.014 -0.6574 -0.0128 -0.2624
17393TIP3    H173670   1.416   6.253   0.005  2.5021  0.5471 -1.4061
17393TIP3    H273671   1.410   6.123  -0.072  2.2048  0.5160 -1.3326
17394TIP3   OH273672   2.141   2.301  15.290  0.4007  0.2507  0.1274
17394TIP3    H173673   2.045   2.300  15.294  0.2040  2.1294 -2.5294
17394TIP3    H273674   2.161   2.369  15.225  3.5809  0.9594  1.7701
17395TIP3   OH273675   5.146   3.222  12.794 -0.1934 -0.2741  0.5323
17395TIP3    H173676   5.228   3.262  12.764 -0.6809 -1.2957 -2.3426
17395TIP3    H273677   5.161   3.203  12.886  1.6592  2.4195  0.8409
17396TIP3   OH273678   3.288   3.210   0.230  0.4124 -0.1101 -0.5651
17396TIP3    H173679   3.207   3.242   0.270  0.0556  1.0783 -2.1705
17396TIP3    H273680   3.266   3.124   0.196  0.2206 -0.3736  0.2118
17397TIP3   OH273681   1.660   4.610  13.336 -0.8570  0.6154 -0.0198
17397TIP3    H173682   1.622   4.697  13.352  1.0219  1.5632 -0.5910
17397TIP3    H273683   1.720   4.623  13.263 -0.0198 -1.0233  0.3534
17398TIP3   OH273684   0.406   0.122  16.140 -0.1368  0.0991  0.3392
17398TIP3    H173685   0.363   0.208  16.140 -0.0836  0.1278  0.0160
17398TIP3    H273686   0.453   0.119  16.056  0.2247 -0.0647  0.5472
17399TIP3   OH273687   2.408   4.615   4.745 -0.3970  0.0756 -0.4382
17399TIP3    H173688   2.501   4.627   4.726 -0.1411  1.3870  1.4345
17399TIP3    H273689   2.402   4.530   4.788 -0.0217  0.1159 -0.3083
17400TIP3   OH273690   5.169   4.835   3.849 -0.1507 -0.2311 -0.1824
17400TIP3    H173691   5.250   4.788   3.828  0.1338 -0.0094  0.3942
17400TIP3    H273692   5.104   4.766   3.864  0.1131 -0.4247  0.0602
17401TIP3   OH273693   2.461   0.167   1.507 -0.3380 -0.1547 -0.1554
17401TIP3    H173694   2.535   0.223   1.527 -2.5115  2.3051  1.3131
17401TIP3    H273695   2.442   0.185   1.415  0.1027  0.1530 -0.1882
17402TIP3   OH273696   0.632   5.105  11.409  0.1161 -0.1914  0.3066
17402TIP3    H173697   0.711   5.080  11.361 -0.8970  1.7358 -2.5097
17402TIP3    H273698   0.664   5.134  11.494  2.5419  1.1153 -0.9789
17403TIP3   OH273699   5.992   3.465   3.504  0.0788  0.0918 -0.6309
17403TIP3    H173700   5.988   3.481   3.598 -1.1446 -0.4005 -0.5790
17403TIP3    H273701   6.085   3.460   3.483  0.3458 -0.0385  0.5937
17404TIP3   OH273702   0.070   6.652  16.304  0.3350 -0.0873  0.3350
17404TIP3    H173703   0.053   6.582  16.242  0.4620  0.0018  0.2000
17404TIP3    H273704   0.162   6.676  16.290  0.1751  0.3927  0.0851
17405TIP3   OH273705   3.639   4.124  12.315 -0.1775 -0.1857 -0.0140
17405TIP3    H173706   3.559   4.104  12.267 -1.8107  1.4216  1.9372
17405TIP3    H273707   3.670   4.039  12.346 -1.3614 -0.7818 -0.4396
17406TIP3   OH273708   0.102   1.725  12.950 -0.2927 -0.2880 -0.0248
17406TIP3    H173709   0.136   1.761  13.032  2.3122 -1.5736 -0.4983
17406TIP3    H273710   0.126   1.790  12.884  0.5059 -0.7945 -0.2361
17407TIP3   OH273711   2.228   3.829  11.798  0.3526 -0.1530 -0.7499
17407TIP3    H173712   2.199   3.921  11.803  0.2907 -0.2025 -0.1329
17407TIP3    H273713   2.147   3.779  11.796  0.3823 -0.2671  0.4783
17408TIP3   OH273714   3.879   3.734  13.999  0.2146  0.2440  0.5562
17408TIP3    H173715   3.903   3.819  13.963 -0.3741  0.6253  1.0517
17408TIP3    H273716   3.785   3.727  13.984  0.4743 -0.8823 -0.6279
17409TIP3   OH273717   3.209   3.357  13.360 -0.0139 -0.4890  0.1624
17409TIP3    H173718   3.138   3.360  13.424 -0.4822  0.9887 -0.3986
17409TIP3    H273719   3.181   3.417  13.290  1.4286 -0.4841 -0.4299
17410TIP3   OH273720   6.122   3.073  16.848 -0.4591 -0.4460  0.3633
17410TIP3    H173721   6.103   3.039  16.935 -1.5213  0.8957  0.6721
17410TIP3    H273722   6.109   3.168  16.856 -0.0535 -0.2549 -1.1152
17411TIP3   OH273723   0.164   5.004  12.926 -0.1812  0.1291 -0.4618
17411TIP3    H173724   0.213   4.942  12.979 -0.9335 -1.5408 -1.6462
17411TIP3    H273725   0.082   5.018  12.974 -1.0392 -1.6977 -1.3167
17412TIP3   OH273726   6.758   4.605   3.505 -0.2072 -0.3663 -0.1286
17412TIP3    H173727   6.846   4.644   3.510 -0.3523  0.3410 -2.3532
17412TIP3    H273728   6.762   4.547   3.429 -1.5106 -0.7779  0.1064
17413TIP3   OH273729   4.018   6.274  11.286  0.4494  0.8752 -0.8456
17413TIP3    H173730   4.007   6.199  11.228 -1.2305 -1.1299  1.9485
17413TIP3    H273731   3.956   6.339  11.255  0.8345  0.5310 -2.3568
17414TIP3   OH273732   5.252   2.649  11.307  0.5146 -0.0904  0.0520
17414TIP3    H173733   5.325   2.711  11.317  0.8325 -0.5612  0.6866
17414TIP3    H273734   5.258   2.594  11.385  1.0211 -1.7566 -1.1476
17415TIP3   OH273735   0.999   0.727   4.221  0.3449 -0.0007  0.1733
17415TIP3    H173736   0.994   0.635   4.248  0.3615 -0.0218  0.1047
17415TIP3    H273737   1.002   0.776   4.303  3.2675 -0.2248  0.2582
17416TIP3   OH273738   3.000   4.225   0.374 -0.1051  1.0029 -0.3690
17416TIP3    H173739   3.028   4.174   0.450  0.6133  1.4732 -0.3155
17416TIP3    H273740   2.985   4.160   0.305  2.8524  0.8718 -0.9436
17417TIP3   OH273741   4.097   2.235   0.493 -0.1598  0.2412 -0.0301
17417TIP3    H173742   4.081   2.243   0.399  0.2493  0.9822 -0.0391
17417TIP3    H273743   4.049   2.156   0.519 -0.4302  0.1420 -0.8231
17418TIP3   OH273744   2.521   6.372  14.635 -0.0303  0.0391 -0.2716
17418TIP3    H173745   2.566   6.414  14.708 -0.0998 -0.2103 -0.0827
17418TIP3    H273746   2.587   6.363  14.567 -0.2142  1.1685 -0.6022
17419TIP3   OH273747   2.908   2.864   6.005 -0.3078 -0.3648 -0.0889
17419TIP3    H173748   2.842   2.796   5.992 -1.7131  0.5677  1.9986
17419TIP3    H273749   2.949   2.874   5.919 -2.3501 -1.4904 -1.2247
17420TIP3   OH273750   3.155   3.295   0.737 -0.4266 -0.0969  0.2361
17420TIP3    H173751   3.068   3.257   0.725 -0.7054  0.0401  1.7640
17420TIP3    H273752   3.206   3.260   0.665 -1.7813 -0.0700 -0.7727
17421TIP3   OH273753   2.336   4.279   1.892 -0.3503  0.1280  0.4331
17421TIP3    H173754   2.431   4.271   1.902 -0.5012 -1.1512  0.9045
17421TIP3    H273755   2.325   4.350   1.828  0.9666 -0.5198 -0.5519
17422TIP3   OH273756   3.987   0.531  15.737 -0.0862  0.2118  0.1496
17422TIP3    H173757   3.954   0.442  15.729 -1.0136  0.3961  1.6600
17422TIP3    H273758   4.010   0.557  15.648 -0.6279 -1.2223 -0.4110
17423TIP3   OH273759   1.700   0.255   2.785  0.2322  0.1317  0.3920
17423TIP3    H173760   1.666   0.340   2.758  0.1758 -0.1478 -0.4174
17423TIP3    H273761   1.629   0.216   2.835 -0.9105 -0.7139 -1.8245
17424TIP3   OH273762   4.278   0.843  14.407 -0.4187  0.8905  0.2072
17424TIP3    H173763   4.311   0.866  14.321  0.3812 -0.5393  0.1126
17424TIP3    H273764   4.334   0.891  14.468  0.7088 -0.1047 -0.0106
17425TIP3   OH273765   3.566   3.273  13.242  0.1862 -0.4944  0.1066
17425TIP3    H173766   3.605   3.286  13.155 -0.8133 -0.0301 -0.2786
17425TIP3    H273767   3.506   3.200  13.230 -1.3116  0.7271 -0.0559
17426TIP3   OH273768   1.825   4.732   2.021  0.2684  0.1385 -0.0816
17426TIP3    H173769   1.773   4.692   2.090  1.6627  0.3543  1.1183
17426TIP3    H273770   1.793   4.822   2.015  0.6416  0.3312  0.7917
17427TIP3   OH273771   5.705   3.426  15.455  0.9783 -0.1568  0.7310
17427TIP3    H173772   5.671   3.488  15.391  1.7365 -0.2700  0.2123
17427TIP3    H273773   5.719   3.478  15.534  1.6085  0.3265  0.2990
17428TIP3   OH273774   4.640   1.612  12.550 -0.2581 -0.2441  0.1887
17428TIP3    H173775   4.576   1.683  12.546 -0.0944  0.0062  1.8341
17428TIP3    H273776   4.596   1.539  12.506 -0.8726  0.5270 -0.4990
17429TIP3   OH273777   1.659   5.087  13.434 -0.0799  0.7093  0.6019
17429TIP3    H173778   1.715   5.125  13.367  1.9700  0.3998  2.1078
17429TIP3    H273779   1.669   5.145  13.510 -0.2399 -0.4704  1.5383
17430TIP3   OH273780   2.916   5.790   1.905 -0.2891  0.4419 -0.0916
17430TIP3    H173781   2.975   5.749   1.968 -0.9800 -0.9636 -0.3322
17430TIP3    H273782   2.931   5.884   1.915  0.8192  0.1614  0.9742
17431TIP3   OH273783   5.526   5.977   2.108  0.0270 -0.1055 -0.0268
17431TIP3    H173784   5.532   6.057   2.160 -1.7939 -0.4527  0.7620
17431TIP3    H273785   5.597   5.922   2.141  2.1844  1.6397 -1.4980
17432TIP3   OH273786   5.730   1.601   1.717 -0.2178 -0.1157  0.1599
17432TIP3    H173787   5.651   1.646   1.749 -0.8742  0.6136 -2.3402
17432TIP3    H273788   5.792   1.672   1.701  0.3596 -0.5446  0.4876
17433TIP3   OH273789   2.602   6.559   5.777 -0.1027 -0.6297 -0.4988
17433TIP3    H173790   2.625   6.595   5.691  0.4609 -2.0047 -0.9397
17433TIP3    H273791   2.511   6.532   5.769 -0.1771 -0.3699 -0.5299
17434TIP3   OH273792   3.414   6.186   3.820 -0.2620  0.2614  0.5630
17434TIP3    H173793   3.481   6.232   3.769 -0.2729  1.8232  1.9214
17434TIP3    H273794   3.379   6.253   3.879 -0.8367 -1.3244  2.0427
17435TIP3   OH273795   3.806   6.304  14.491 -0.0025 -0.2691  0.8155
17435TIP3    H173796   3.857   6.367  14.543  0.4832  1.3224 -1.4799
17435TIP3    H273797   3.717   6.341  14.490 -0.1239 -0.5609  0.9221
17436TIP3   OH273798   5.452   0.054   5.581 -0.5314  0.0269  0.0331
17436TIP3    H173799   5.376   0.042   5.524 -1.2183 -1.0573  1.1486
17436TIP3    H273800   5.422   0.114   5.649  0.3911  1.5959 -0.9194
17437TIP3   OH273801   6.355   2.432   6.340 -1.0069  0.3575 -0.4595
17437TIP3    H173802   6.373   2.353   6.391 -0.2250  1.1381  0.5177
17437TIP3    H273803   6.300   2.485   6.398  0.7170  1.6905  0.0266
17438TIP3   OH273804   4.580   6.251  16.221 -0.0235  0.2480 -0.3537
17438TIP3    H173805   4.649   6.301  16.177 -0.8025  0.9698 -0.7743
17438TIP3    H273806   4.547   6.190  16.154  1.0758 -0.9915  0.2204
17439TIP3   OH273807   6.632   1.153  12.872  0.5539  0.3076  0.2384
17439TIP3    H173808   6.603   1.066  12.845 -1.3442  0.9884  0.0310
17439TIP3    H273809   6.602   1.161  12.963 -0.9632  1.4507 -0.3393
17440TIP3   OH273810   0.567   5.838  11.658 -0.7513 -0.4337 -0.0208
17440TIP3    H173811   0.653   5.869  11.687  0.0420 -2.2073 -0.3984
17440TIP3    H273812   0.564   5.861  11.565 -0.4905 -0.7834 -0.1166
17441TIP3   OH273813   5.561   0.389  12.728 -0.1436  0.4189  0.3917
17441TIP3    H173814   5.596   0.477  12.712 -0.2293  0.4455  0.3483
17441TIP3    H273815   5.563   0.347  12.642  0.7269  0.0718  0.5772
17442TIP3   OH273816   4.731   3.351   1.594  0.1764  0.6514 -0.0418
17442TIP3    H173817   4.728   3.316   1.683 -1.3661  0.4087 -0.1763
17442TIP3    H273818   4.808   3.409   1.594  0.4847  0.2731  1.2957
17443TIP3   OH273819   2.144   2.730   4.098 -0.7590 -0.2780 -0.0659
17443TIP3    H173820   2.189   2.779   4.030 -0.7818  1.7922  1.3802
17443TIP3    H273821   2.212   2.672   4.134 -0.6026 -0.9502 -1.4015
17444TIP3   OH273822   1.971   1.853   1.870 -0.0924  1.0126 -0.2227
17444TIP3    H173823   1.949   1.898   1.951  1.4796 -1.3216  1.5540
17444TIP3    H273824   2.056   1.890   1.845  0.7498 -0.2648  0.7241
17445TIP3   OH273825   2.829   5.679  13.682 -0.7530  0.0840 -0.3705
17445TIP3    H173826   2.842   5.635  13.598 -1.2641  0.2178 -0.5208
17445TIP3    H273827   2.893   5.750  13.682 -1.3997  0.6680 -1.0528
17446TIP3   OH273828   2.176   0.524  14.534 -0.3811  0.1158 -0.5116
17446TIP3    H173829   2.102   0.487  14.485  0.6467  0.0855 -2.0977
17446TIP3    H273830   2.230   0.565  14.467  1.0449  0.1364  0.6227
17447TIP3   OH273831   0.156   0.339   0.194 -0.0939  0.2851 -0.6641
17447TIP3    H173832   0.185   0.425   0.226 -1.4875  0.2901  0.5868
17447TIP3    H273833   0.099   0.360   0.120 -0.2322  0.4216 -0.5186
17448TIP3   OH273834   4.004   0.424   5.731  0.2986 -0.1470 -0.1918
17448TIP3    H173835   3.987   0.512   5.765  1.0803  0.6351 -1.7985
17448TIP3    H273836   4.031   0.375   5.809  0.2627  1.1319  0.6607
17449TIP3   OH273837   2.553   2.792   2.536  0.0810  0.1921  0.4930
17449TIP3    H173838   2.575   2.707   2.499 -4.0705  0.0970 -2.1021
17449TIP3    H273839   2.579   2.786   2.627  1.1817 -3.3665  0.0269
17450TIP3   OH273840   0.886   0.497   4.319 -0.2348  0.1164 -0.1902
17450TIP3    H173841   0.879   0.443   4.241  0.2627  2.0021 -1.5691
17450TIP3    H273842   0.795   0.523   4.338 -0.2479  0.4415 -0.7012
17451TIP3   OH273843   6.679   1.130   1.517 -0.3254 -0.5394 -0.0944
17451TIP3    H173844   6.629   1.183   1.580  1.8535  0.5087  0.8542
17451TIP3    H273845   6.617   1.065   1.485 -2.6465  1.5600 -0.0299
17452TIP3   OH273846   4.461   3.225  14.641 -0.2384 -0.1971  0.0515
17452TIP3    H173847   4.465   3.282  14.717  0.3297  0.1858 -0.2618
17452TIP3    H273848   4.545   3.236  14.598 -1.0123  0.5207 -1.3021
17453TIP3   OH273849   2.893   4.974   2.108  0.2219  0.0775  0.4850
17453TIP3    H173850   2.878   4.880   2.097 -3.5121  0.5716  0.8368
17453TIP3    H273851   2.950   4.998   2.036 -1.6358 -1.8545 -1.6861
17454TIP3   OH273852   0.400   6.810  16.586  0.3098  0.1216 -0.1722
17454TIP3    H173853   0.377   6.718  16.598 -0.8532  0.6624  2.0439
17454TIP3    H273854   0.461   6.828  16.658 -2.2774  1.9835  1.6409
17455TIP3   OH273855   5.405   4.320   1.955 -0.2049 -0.3006  0.3722
17455TIP3    H173856   5.457   4.264   2.014  0.7101  0.8661  0.6889
17455TIP3    H273857   5.326   4.269   1.937  0.6825 -1.7703  0.5427
17456TIP3   OH273858   1.532   3.553  13.223 -0.0569 -0.3719  0.1480
17456TIP3    H173859   1.601   3.495  13.191  0.7764  0.6002  0.1454
17456TIP3    H273860   1.464   3.548  13.156  1.2568  0.8713 -1.3306
17457TIP3   OH273861   4.791   0.103  11.713  0.0184 -0.2554  0.0819
17457TIP3    H173862   4.766   0.172  11.651 -2.4061 -0.7334  0.4747
17457TIP3    H273863   4.777   0.142  11.799  0.7125 -0.5233  0.3190
17458TIP3   OH273864   0.920   2.036  15.192  0.2753  0.2789  0.1362
17458TIP3    H173865   0.903   1.968  15.257 -0.7652  0.8945  0.5234
17458TIP3    H273866   0.850   2.101  15.206  1.6956  1.8146  0.2935
17459TIP3   OH273867   0.195   0.281  16.615 -0.2327  0.1283  0.3422
17459TIP3    H173868   0.127   0.279  16.682 -1.7205  2.5128 -1.0509
17459TIP3    H273869   0.267   0.329  16.657 -0.7614  0.7131  0.5872
17460TIP3   OH273870   1.385   5.060   0.453  0.3342 -0.0294 -0.0970
17460TIP3    H173871   1.471   5.101   0.462  1.4386 -1.8801 -1.8416
17460TIP3    H273872   1.401   4.981   0.401 -2.5145 -0.1119 -0.9350
17461TIP3   OH273873   5.435   2.368   5.219  0.3943  0.2894 -0.0195
17461TIP3    H173874   5.512   2.424   5.210  0.4862  0.3803  1.3273
17461TIP3    H273875   5.361   2.428   5.205  0.5445  0.3043 -0.7804
17462TIP3   OH273876   4.911   3.907   0.159 -0.6116  0.5114  0.1826
17462TIP3    H173877   4.906   3.934   0.251 -0.6814  1.5445 -0.1113
17462TIP3    H273878   4.831   3.942   0.120 -1.6143 -1.7369  0.1717
17463TIP3   OH273879   2.086   6.151  16.574  0.4341  0.4001  0.6994
17463TIP3    H173880   2.144   6.109  16.511 -1.6937 -1.1175 -0.2695
17463TIP3    H273881   2.073   6.239  16.539  0.0102 -0.1253 -0.4753
17464TIP3   OH273882   3.497   3.287  11.140 -0.0181  0.0806  0.2098
17464TIP3    H173883   3.582   3.246  11.125  0.1603  0.4013  0.3313
17464TIP3    H273884   3.488   3.289  11.235  0.8680  2.1121  0.2874
17465TIP3   OH273885   4.912   0.247  13.341  0.1321  0.0113 -0.6245
17465TIP3    H173886   4.826   0.289  13.328  0.4485  0.1703 -2.2712
17465TIP3    H273887   4.970   0.320  13.364 -0.0758 -0.0395  0.0814
17466TIP3   OH273888   0.756   2.410  13.383 -0.0473 -0.1599 -0.0000
17466TIP3    H173889   0.709   2.475  13.435  0.5011  0.0514  0.2360
17466TIP3    H273890   0.698   2.334  13.382 -0.3381  0.0538  0.4021
17467TIP3   OH273891   6.394   4.478  11.241  0.0406 -0.4804  0.1818
17467TIP3    H173892   6.317   4.499  11.294  1.5734 -2.0038  3.1484
17467TIP3    H273893   6.371   4.396  11.196  0.3574 -1.5983  2.0260
17468TIP3   OH273894   5.176   3.076  13.972  0.5836 -0.1659  0.0713
17468TIP3    H173895   5.144   2.991  13.941 -2.3561  1.0589 -0.4073
17468TIP3    H273896   5.213   3.117  13.894  2.4473 -1.1527  0.4020
17469TIP3   OH273897   1.319   4.736   5.780 -0.4541  0.1186 -0.3590
17469TIP3    H173898   1.412   4.715   5.783 -0.2169  1.2018  0.2270
17469TIP3    H273899   1.291   4.710   5.693  0.2864 -0.6662 -0.3717
17470TIP3   OH273900   2.706   0.047  11.511  0.5706  0.5132  0.8235
17470TIP3    H173901   2.671  -0.003  11.437  1.2756  1.3351 -0.0782
17470TIP3    H273902   2.747   0.123  11.471  1.0813  0.8960  2.0612
17471TIP3   OH273903   4.685   6.301   5.828 -0.2353 -0.1981 -0.3900
17471TIP3    H173904   4.601   6.261   5.851  0.2205 -0.2480  1.2478
17471TIP3    H273905   4.669   6.395   5.836  0.0799 -0.2302  0.7773
17472TIP3   OH273906   4.548   3.949  14.033 -0.0067  0.0109  0.0372
17472TIP3    H173907   4.618   3.981  14.089  0.8919  1.4880 -1.9148
17472TIP3    H273908   4.468   3.967  14.083  0.8080  0.7310  1.1134
17473TIP3   OH273909   6.814   1.538   1.897  0.1261 -0.3422 -0.1513
17473TIP3    H173910   6.834   1.632   1.903 -0.0547 -0.4638  3.3796
17473TIP3    H273911   6.883   1.503   1.841  1.5692  1.5374  0.3787
17474TIP3   OH273912   4.167   6.141  15.567  0.1642  0.3632  0.7274
17474TIP3    H173913   4.208   6.216  15.525  0.7894 -0.1303  0.4378
17474TIP3    H273914   4.077   6.142  15.535  0.9852 -0.7848 -1.7377
17475TIP3   OH273915   2.789   2.825   2.057  0.2983 -0.0919  0.1143
17475TIP3    H173916   2.770   2.787   1.971  2.7288 -1.1373  0.0037
17475TIP3    H273917   2.792   2.750   2.116  1.1595  0.3467  0.6335
17476TIP3   OH273918   2.339   0.349  10.956  0.3115 -0.3042  0.5145
17476TIP3    H173919   2.266   0.293  10.982  0.0598  0.1573  0.7926
17476TIP3    H273920   2.395   0.354  11.033 -0.1514  0.6033  0.8023
17477TIP3   OH273921   2.598   3.032   2.730 -0.6963 -0.1990  0.7328
17477TIP3    H173922   2.652   3.012   2.806 -1.6957  0.5884  1.6568
17477TIP3    H273923   2.514   2.990   2.748 -1.0698  0.3283  0.2506
17478TIP3   OH273924   4.314   5.127   5.756  0.9214  0.3775 -0.5635
17478TIP3    H173925   4.227   5.109   5.720  0.7674  0.4464 -0.2313
17478TIP3    H273926   4.315   5.078   5.839  1.9690 -1.3477 -1.5610
17479TIP3   OH273927   6.048   0.900  16.981  0.1344  0.8728  0.1554
17479TIP3    H173928   5.958   0.886  17.009  0.0477  1.1287 -0.0075
17479TIP3    H273929   6.083   0.963  17.043 -0.3336  2.1517 -0.8630
17480TIP3   OH273930   4.061   4.962   3.295 -0.1954  0.2768 -0.5029
17480TIP3    H173931   4.031   4.930   3.380 -0.1809 -0.2854 -0.7057
17480TIP3    H273932   3.990   5.016   3.262 -1.2202 -1.4719 -1.2198
17481TIP3   OH273933   5.221   1.424  13.174 -0.2963 -0.3749 -0.0739
17481TIP3    H173934   5.142   1.379  13.145 -0.9742  0.7001  0.0926
17481TIP3    H273935   5.215   1.512  13.137 -0.3299  0.4632  1.8453
17482TIP3   OH273936   1.654   0.466  15.020 -0.2986 -0.1951  0.3377
17482TIP3    H173937   1.672   0.483  14.928 -2.4753  0.5729  0.0516
17482TIP3    H273938   1.727   0.508  15.067 -0.0455  0.7877 -0.9242
17483TIP3   OH273939   6.146   5.713  13.805 -0.5069  0.0730  0.3575
17483TIP3    H173940   6.198   5.671  13.736 -0.8412 -0.9140  0.7022
17483TIP3    H273941   6.061   5.670  13.800 -1.0723  1.2075  0.2559
17484TIP3   OH273942   0.150   0.152  15.994 -0.4262 -0.1357 -0.5047
17484TIP3    H173943   0.162   0.064  16.030  3.2296  0.9209  1.0178
17484TIP3    H273944   0.171   0.142  15.901  1.7432 -0.5442  0.0068
17485TIP3   OH273945   1.452   3.785  12.004 -0.0894  0.0786 -0.4084
17485TIP3    H173946   1.391   3.792  11.931 -1.6793 -0.8575  0.7840
17485TIP3    H273947   1.511   3.860  11.994 -0.1684 -0.1390 -2.7155
17486TIP3   OH273948   2.354   6.274  15.809  0.3693 -0.4984 -0.4963
17486TIP3    H173949   2.443   6.247  15.831  0.0214 -1.3392 -0.0893
17486TIP3    H273950   2.333   6.341  15.874  0.4236 -0.8608 -0.1010
17487TIP3   OH273951   4.760   4.654   1.929 -0.6633  0.2348  0.0132
17487TIP3    H173952   4.741   4.685   1.841 -0.2982  1.3371  0.3134
17487TIP3    H273953   4.681   4.676   1.979  0.4132  2.6964  0.7232
17488TIP3   OH273954   3.318   2.592  15.794 -0.6716 -0.3391  0.3957
17488TIP3    H173955   3.290   2.525  15.732  0.7691 -1.3454  0.7998
17488TIP3    H273956   3.330   2.545  15.877 -1.4094  0.7674  1.1526
17489TIP3   OH273957   3.681   6.781   0.075 -0.3801 -0.0695 -0.0144
17489TIP3    H173958   3.740   6.831   0.132 -2.6409 -0.7645  3.0417
17489TIP3    H273959   3.739   6.722   0.027  1.7695  1.7750  0.2380
17490TIP3   OH273960   3.566   6.294  11.220 -0.1402 -0.4033  0.8794
17490TIP3    H173961   3.541   6.335  11.137 -2.3317 -0.6184  1.3828
17490TIP3    H273962   3.660   6.309  11.227 -0.1096  0.5609 -1.1205
17491TIP3   OH273963   0.654   3.832   4.496  0.6206 -0.0555  0.3690
17491TIP3    H173964   0.726   3.895   4.499  0.7025 -0.2519  3.1396
17491TIP3    H273965   0.656   3.788   4.580 -0.6847 -2.4173 -0.7867
17492TIP3   OH273966   1.148   1.674  13.163 -0.1648 -0.3173 -0.4044
17492TIP3    H173967   1.154   1.708  13.252 -0.2888 -1.5765  0.0953
17492TIP3    H273968   1.057   1.649  13.153 -0.2491  0.2428 -1.0453
17493TIP3   OH273969   1.665   3.049   2.051  0.1834  0.0994  0.1826
17493TIP3    H173970   1.659   3.009   2.138 -2.0814  1.1168  0.5248
17493TIP3    H273971   1.598   3.117   2.051  0.6973  0.6522 -2.1013
17494TIP3   OH273972   0.200   3.450   5.081  0.0609 -0.0294  0.4448
17494TIP3    H173973   0.217   3.438   4.987  1.0565 -0.5650  0.6904
17494TIP3    H273974   0.124   3.396   5.098 -0.2729  0.2578 -0.1076
17495TIP3   OH273975   6.391   6.566   1.118  1.3377  0.0779  0.3419
17495TIP3    H173976   6.429   6.551   1.204  0.3335 -0.1952  0.7537
17495TIP3    H273977   6.320   6.501   1.111  2.0948 -0.6281 -1.1348
17496TIP3   OH273978   5.478   3.425  12.175 -0.0321 -0.4363  0.2314
17496TIP3    H173979   5.433   3.341  12.179  0.0269 -0.4467  0.6936
17496TIP3    H273980   5.486   3.443  12.081  0.9275 -1.4555  0.1079
17497TIP3   OH273981   6.057   5.625   2.770  0.0241  0.2092 -0.2245
17497TIP3    H173982   6.005   5.702   2.748 -0.3403  0.0021 -0.0945
17497TIP3    H273983   6.146   5.647   2.742 -0.2578  0.3065 -1.0731
17498TIP3   OH273984   5.869   1.139  13.924 -0.9578 -0.4799 -0.0760
17498TIP3    H173985   5.794   1.175  13.877 -0.5186 -0.6162 -0.8966
17498TIP3    H273986   5.832   1.067  13.976 -1.5495  0.0721  0.2672
17499TIP3   OH273987   1.279   5.843  16.384 -0.2587  0.1952  0.0162
17499TIP3    H173988   1.374   5.839  16.393 -0.1701  3.0593  0.8482
17499TIP3    H273989   1.263   5.834  16.290  0.8147 -0.4038 -0.1168
17500TIP3   OH273990   1.293   3.268  11.500 -1.3765 -0.6193 -0.9626
17500TIP3    H173991   1.345   3.348  11.500 -0.0158 -1.4734  1.0747
17500TIP3    H273992   1.205   3.297  11.526 -0.4380 -0.0069  1.7154
17501TIP3   OH273993   4.054   1.553  13.727  0.2149  0.1618 -0.9728
17501TIP3    H173994   4.052   1.471  13.679 -0.0939 -0.0867 -0.5364
17501TIP3    H273995   3.997   1.611  13.677 -1.8607 -0.7573  0.2736
17502TIP3   OH273996   4.534   0.149   9.829  0.6498  0.1547 -0.0902
17502TIP3    H173997   4.473   0.093   9.781 -2.8390  0.1186  4.0260
17502TIP3    H273998   4.570   0.091   9.897  0.9947  1.5690  0.9493
17503TIP3   OH273999   3.977   2.939   5.875 -0.4620  0.6480 -0.0779
17503TIP3    H174000   4.070   2.917   5.886 -0.0297  2.0982 -0.7767
17503TIP3    H274001   3.972   3.032   5.894 -2.2015  0.1245  2.3828
17504TIP3   OH274002   1.208   4.911   2.903  0.1693  0.4721  0.2085
17504TIP3    H174003   1.153   4.988   2.920 -2.0920 -0.8762 -0.8486
17504TIP3    H274004   1.262   4.937   2.828 -0.7923  0.9300 -0.3348
17505TIP3   OH274005   2.466   1.413   4.228  0.3703  0.3130 -0.5075
17505TIP3    H174006   2.474   1.409   4.133 -0.4877 -0.5348 -0.5521
17505TIP3    H274007   2.483   1.505   4.249 -0.2301  0.6798 -1.5569
17506TIP3   OH274008   5.123   4.338  15.851  0.2428  0.3982  0.4166
17506TIP3    H174009   5.168   4.270  15.901 -0.0027  0.2534  0.4351
17506TIP3    H274010   5.184   4.358  15.779 -0.2143 -0.6880 -0.2816
17507TIP3   OH274011   6.786   2.829   6.165 -0.6395 -0.2959 -0.0060
17507TIP3    H174012   6.698   2.849   6.197 -1.2117 -1.5800 -0.7481
17507TIP3    H274013   6.808   2.745   6.204  1.2317  1.0814  2.0487
17508TIP3   OH274014   0.311   2.375   3.850 -0.5454 -0.0030 -0.2976
17508TIP3    H174015   0.335   2.381   3.942 -1.7254  1.7330 -0.0716
17508TIP3    H274016   0.264   2.292   3.842  0.9522 -0.9237  0.3118
17509TIP3   OH274017   2.927   3.334   6.231  0.0057 -0.2665  0.3097
17509TIP3    H174018   2.875   3.327   6.311 -0.4676  1.1258  0.1272
17509TIP3    H274019   2.915   3.249   6.188 -1.7832 -0.1264  0.4837
17510TIP3   OH274020   3.354   4.546   3.603  0.1396 -0.1233  0.5111
17510TIP3    H174021   3.392   4.560   3.689 -0.5354 -1.9745  1.1203
17510TIP3    H274022   3.283   4.484   3.617 -0.0980 -0.3123 -1.3440
17511TIP3   OH274023   2.760   1.727  10.539  0.1049 -0.6340  0.4622
17511TIP3    H174024   2.827   1.661  10.553  2.4952  1.2750 -1.6271
17511TIP3    H274025   2.789   1.803  10.590 -0.6738  0.0686 -0.1080
17512TIP3   OH274026   3.616   3.023   0.842 -0.1074 -0.2541  0.1549
17512TIP3    H174027   3.657   2.943   0.809 -0.5054 -0.6348  0.5706
17512TIP3    H274028   3.528   3.022   0.805 -0.1432 -0.0490  0.2316
17513TIP3   OH274029   3.864   5.113   4.146 -0.6811 -0.1594 -0.1389
17513TIP3    H174030   3.892   5.075   4.230 -0.7966  1.0025  0.4372
17513TIP3    H274031   3.945   5.143   4.105 -0.5917 -0.9924 -0.5866
17514TIP3   OH274032   2.774   2.368   4.966 -0.1642  0.6497  0.3726
17514TIP3    H174033   2.711   2.391   5.035 -1.6951  0.7194 -1.0203
17514TIP3    H274034   2.751   2.279   4.942  0.2420  0.6962 -0.1839
17515TIP3   OH274035   3.318   5.491  11.816 -0.7441  1.0275  0.1804
17515TIP3    H174036   3.396   5.450  11.853  0.3179  1.2808 -1.7111
17515TIP3    H274037   3.350   5.539  11.739 -3.0454 -0.6844 -1.9482
17516TIP3   OH274038   4.860   4.337  15.765  0.2097 -0.4110 -0.0242
17516TIP3    H174039   4.871   4.242  15.771  0.5338 -0.3270  0.7471
17516TIP3    H274040   4.938   4.373  15.807  0.3588  0.2017 -0.8076
17517TIP3   OH274041   1.311   5.036   1.666 -0.5126 -0.9378 -0.2791
17517TIP3    H174042   1.343   5.060   1.579  0.5480 -1.0076  0.0803
17517TIP3    H274043   1.332   4.943   1.674  0.3436 -0.6856  0.4616
17518TIP3   OH274044   1.698   3.480  14.202 -0.1048 -0.6034 -0.2397
17518TIP3    H174045   1.793   3.483  14.199 -0.1119  2.0326  0.9895
17518TIP3    H274046   1.677   3.397  14.245  1.7569  0.5866  3.1498
17519TIP3   OH274047   3.942   2.199  10.918 -0.1038 -0.1405 -0.2904
17519TIP3    H174048   3.861   2.151  10.902 -1.3310  1.4826  0.8662
17519TIP3    H274049   3.920   2.290  10.899  2.1594  0.0123 -2.3601
17520TIP3   OH274050   0.120   6.266  14.662 -0.0866  0.0680 -0.0588
17520TIP3    H174051   0.025   6.278  14.655  0.0849  0.2128 -2.8349
17520TIP3    H274052   0.141   6.199  14.597  1.6068 -0.6061  1.1447
17521TIP3   OH274053   0.067   5.696  11.537 -0.3873  0.1779  0.9457
17521TIP3    H174054   0.031   5.714  11.624 -1.4566  2.2022  0.1083
17521TIP3    H274055   0.009   5.742  11.477  1.4950  0.4488 -0.7182
17522TIP3   OH274056   5.442   1.968   2.571  0.3242 -0.9593  0.5450
17522TIP3    H174057   5.511   1.944   2.632  1.5564 -1.1445 -0.8724
17522TIP3    H274058   5.418   1.886   2.527  1.3342 -0.4140 -1.0808
17523TIP3   OH274059   0.185   0.015   1.311  0.0852  0.6584 -0.2196
17523TIP3    H174060   0.100   0.035   1.272 -0.0337 -0.7072 -0.6933
17523TIP3    H274061   0.171   0.025   1.405 -0.7982 -0.2052 -0.2438
17524TIP3   OH274062   4.055   6.633  16.042  0.2441 -0.1441 -0.2386
17524TIP3    H174063   4.001   6.562  16.007 -0.1070 -0.3615  0.7316
17524TIP3    H274064   4.030   6.710  15.991 -1.3773 -0.1261  0.5536
17525TIP3   OH274065   2.543   5.303   0.030 -0.2084  0.4175 -0.2545
17525TIP3    H174066   2.553   5.287  -0.064 -0.7643  0.7469 -0.3702
17525TIP3    H274067   2.460   5.261   0.053 -0.3014  0.7443  0.0037
17526TIP3   OH274068   5.561   6.590  16.096 -0.3838  0.3381 -0.3120
17526TIP3    H174069   5.480   6.641  16.089 -0.7016 -0.0806  0.3023
17526TIP3    H274070   5.584   6.571  16.005 -0.7740  0.7764 -0.5086
17527TIP3   OH274071   4.751   6.651   3.990 -0.2714 -0.3339 -0.2978
17527TIP3    H174072   4.681   6.585   3.985 -0.2564 -0.4223  0.6935
17527TIP3    H274073   4.820   6.616   3.933  0.3802 -1.9602  1.4436
17528TIP3   OH274074   3.359   0.270  11.829 -1.0271 -0.4816  0.3819
17528TIP3    H174075   3.416   0.274  11.905 -2.2467 -1.5640  1.3564
17528TIP3    H274076   3.291   0.335  11.846 -0.5994  0.1683 -0.3623
17529TIP3   OH274077   0.068   1.041   1.881 -0.3192 -0.0039 -0.1038
17529TIP3    H174078   0.163   1.050   1.892 -0.3873  0.3335  0.2121
17529TIP3    H274079   0.043   1.117   1.829 -0.4640  0.0766  0.0854
17530TIP3   OH274080   3.078   0.384  14.442 -0.2983  0.3645  0.6822
17530TIP3    H174081   3.161   0.391  14.490 -0.3626  0.4223  0.7856
17530TIP3    H274082   3.088   0.445  14.369 -0.1453  0.1706  0.5413
17531TIP3   OH274083   4.296   3.881  16.809 -0.0009  0.1817  0.1429
17531TIP3    H174084   4.207   3.888  16.776  0.6634  0.7402 -1.5938
17531TIP3    H274085   4.315   3.968  16.846  0.1166  0.3288 -0.2629
17532TIP3   OH274086   1.213   2.120   2.031  0.4161  0.3674  0.4884
17532TIP3    H174087   1.197   2.158   1.945  1.8296  0.0664  0.0920
17532TIP3    H274088   1.131   2.135   2.079 -0.5126  0.2016 -1.0155
17533TIP3   OH274089   5.893   3.293   5.833  0.3296  0.0040 -0.7336
17533TIP3    H174090   5.868   3.368   5.780  0.1369  0.8189  0.5114
17533TIP3    H274091   5.988   3.286   5.822  0.4111  0.7154 -0.4638
17534TIP3   OH274092   4.240   3.069  17.274 -0.5277  0.5579  0.3780
17534TIP3    H174093   4.288   3.148  17.299  0.4517 -0.1694  0.8536
17534TIP3    H274094   4.249   3.064  17.179 -0.3441  0.8638  0.3784
17535TIP3   OH274095   6.138   2.671  12.644  0.0663 -0.0865  0.5190
17535TIP3    H174096   6.226   2.707  12.659  0.4750 -0.8891  0.0845
17535TIP3    H274097   6.153   2.594  12.589 -0.9031 -0.2946  0.5440
17536TIP3   OH274098   2.066   2.482  12.507 -0.0517  0.0814  0.1230
17536TIP3    H174099   2.030   2.534  12.435  1.0023  1.6039  0.7003
17536TIP3    H274100   2.065   2.540  12.583  1.3977 -0.6513  0.7178
17537TIP3   OH274101   1.034   3.330  12.906 -0.2127  0.1914 -0.6137
17537TIP3    H174102   1.117   3.375  12.918 -0.0627 -0.1879 -0.1822
17537TIP3    H274103   1.056   3.252  12.855 -0.2764  0.0179 -0.3796
17538TIP3   OH274104   6.466   2.366  14.236  0.0100 -0.1240 -0.4124
17538TIP3    H174105   6.377   2.398  14.252 -0.8259 -0.9827 -3.0193
17538TIP3    H274106   6.515   2.444  14.210 -0.2430  0.1864  0.0361
17539TIP3   OH274107   2.188   1.376  10.844  0.9220  0.4873  0.0256
17539TIP3    H174108   2.216   1.391  10.934  1.1277 -1.4689  0.2982
17539TIP3    H274109   2.267   1.349  10.798  0.9414  2.0561 -0.9025
17540TIP3   OH274110   2.264   0.103  12.909 -0.0643 -0.0167  0.2396
17540TIP3    H174111   2.181   0.133  12.948  0.8176  0.5196  1.7358
17540TIP3    H274112   2.311   0.062  12.981  1.0189 -0.2452 -0.5914
17541TIP3   OH274113   0.091   5.436  17.288 -0.0865 -1.0479  0.2054
17541TIP3    H174114   0.075   5.528  17.309  0.9552 -0.5138 -1.2546
17541TIP3    H274115   0.004   5.400  17.270 -0.3666  0.0024 -0.5917
17542TIP3   OH274116   4.451   4.403  12.079  0.3961 -0.1374  0.5219
17542TIP3    H174117   4.383   4.362  12.025  0.5544  1.5880 -1.0279
17542TIP3    H274118   4.405   4.470  12.129  0.7229  0.1088  0.4935
17543TIP3   OH274119   1.885   2.275  12.539 -0.0504 -0.3215 -0.1298
17543TIP3    H174120   1.884   2.260  12.634 -1.9898  0.3995 -0.0056
17543TIP3    H274121   1.958   2.336  12.525  2.4862 -3.1232  0.4211
17544TIP3   OH274122   4.083   0.817  16.013  0.8515 -0.1194  0.6648
17544TIP3    H174123   4.115   0.877  16.081 -0.1247  0.6790  0.4304
17544TIP3    H274124   4.133   0.841  15.935 -0.3503  1.1793  0.2773
17545TIP3   OH274125   5.522   4.631  15.397  0.5131 -0.5327  0.7238
17545TIP3    H174126   5.530   4.720  15.431 -0.3742 -0.3058  0.3614
17545TIP3    H274127   5.583   4.580  15.450  1.1025  0.3066  0.8697
17546TIP3   OH274128   1.000   5.457   5.368 -0.3956 -0.3308  0.1730
17546TIP3    H174129   0.934   5.526   5.363 -1.4923 -1.4873 -1.8427
17546TIP3    H274130   1.073   5.490   5.316  0.2362  0.4942  1.5425
17547TIP3   OH274131   2.433   2.636  12.730  0.0737 -0.4295 -0.2123
17547TIP3    H174132   2.521   2.663  12.758  1.4564 -2.8843 -1.9453
17547TIP3    H274133   2.438   2.636  12.634 -2.5757  1.6400 -0.4083
17548TIP3   OH274134   5.813   3.533   5.693 -0.0972 -0.1512  0.1522
17548TIP3    H174135   5.876   3.603   5.712 -2.2507  0.9862  3.5643
17548TIP3    H274136   5.746   3.575   5.639  0.5359 -0.5668 -0.9530
17549TIP3   OH274137   2.323   1.993  14.492  0.1927 -0.5582 -0.1856
17549TIP3    H174138   2.415   1.991  14.517  0.1584  0.5200  0.0907
17549TIP3    H274139   2.283   2.050  14.558 -1.1299 -2.9730  1.1662
17550TIP3   OH274140   0.207   0.298  16.349 -0.7900  0.1906  0.0631
17550TIP3    H174141   0.191   0.385  16.315  1.4843  0.6696  0.1538
17550TIP3    H274142   0.206   0.308  16.444  0.4442  0.3093  0.0664
17551TIP3   OH274143   1.911   0.921  11.755 -0.4379 -0.5292 -0.6090
17551TIP3    H174144   1.866   0.924  11.670 -1.7355  0.2633  0.0937
17551TIP3    H274145   1.897   1.008  11.792 -0.2194 -1.0051  0.5964
17552TIP3   OH274146   5.078   2.567  12.772 -0.2159 -0.1926 -0.0438
17552TIP3    H174147   5.173   2.564  12.758 -0.1221  0.0797  0.5293
17552TIP3    H274148   5.052   2.476  12.784 -0.2244 -0.3990 -1.4830
17553TIP3   OH274149   2.487   5.722   4.318 -0.3149 -0.1646 -0.5265
17553TIP3    H174150   2.475   5.677   4.234 -0.9108  1.0425 -1.1009
17553TIP3    H274151   2.498   5.651   4.382 -2.0429 -1.1370 -1.2897
17554TIP3   OH274152   2.041   6.457  16.529  0.4625 -0.2487  0.4441
17554TIP3    H174153   2.041   6.448  16.625 -0.1086 -0.5548  0.4192
17554TIP3    H274154   1.992   6.538  16.514 -0.6338 -0.9073  0.3601
17555TIP3   OH274155   3.913   1.722   5.837 -0.4833  0.1082  0.0907
17555TIP3    H174156   3.859   1.683   5.907 -1.3089 -0.7627 -1.0184
17555TIP3    H274157   3.910   1.816   5.854 -0.9074 -0.0694  1.0596
17556TIP3   OH274158   5.358   1.178   2.536 -0.3643  0.1751  0.1913
17556TIP3    H174159   5.384   1.266   2.564 -0.7305 -0.2568  1.9483
17556TIP3    H274160   5.426   1.120   2.570  0.5284 -0.0940 -2.0415
17557TIP3   OH274161   2.721   2.987  13.717  0.5399  0.1757 -0.2790
17557TIP3    H174162   2.793   2.997  13.779 -0.1591  1.0675  0.4016
17557TIP3    H274163   2.654   3.048  13.748 -0.4536 -0.5427 -0.9819
17558TIP3   OH274164   4.546   1.400  14.370 -0.5316 -0.0766  0.0408
17558TIP3    H174165   4.627   1.366  14.333 -0.7360 -0.4116 -0.0972
17558TIP3    H274166   4.558   1.495  14.371 -0.6400 -0.0485 -1.1531
17559TIP3   OH274167   6.584   2.201   3.414  0.4029 -0.2345  0.8256
17559TIP3    H174168   6.674   2.171   3.423  0.0843 -0.9742  1.6555
17559TIP3    H274169   6.531   2.121   3.412 -0.1355  0.1451 -1.0456
17560TIP3   OH274170   3.857   2.801  16.610 -0.1139  0.4202 -0.0886
17560TIP3    H174171   3.767   2.808  16.578 -0.0406 -0.9953 -0.6587
17560TIP3    H274172   3.848   2.760  16.696  0.1423 -2.6947 -1.4560
17561TIP3   OH274173   2.624   2.795   3.695  0.4514 -0.3649  0.0725
17561TIP3    H174174   2.602   2.877   3.650  1.1002  0.7674  1.7537
17561TIP3    H274175   2.547   2.774   3.747  0.6913 -0.2403  0.4783
17562TIP3   OH274176   0.879   6.608   4.623 -0.2495 -0.0930  0.1754
17562TIP3    H174177   0.838   6.525   4.644 -0.8008  0.2165  0.3366
17562TIP3    H274178   0.908   6.643   4.708 -1.8059  0.8060  0.3656
17563TIP3   OH274179   3.251   1.252  11.969  0.1875 -0.0017  0.0726
17563TIP3    H174180   3.282   1.336  11.935 -1.7600 -0.2071 -2.3714
17563TIP3    H274181   3.330   1.208  12.001  1.1888  2.8347  1.6472
17564TIP3   OH274182   3.800   1.869   0.983  0.5627  0.2543 -0.2077
17564TIP3    H174183   3.785   1.810   0.909 -1.4672  1.8042 -1.1112
17564TIP3    H274184   3.724   1.856   1.040  0.4438  1.4621 -0.0750
17565TIP3   OH274185   2.788   6.186  14.766  0.1899 -0.4588 -0.2490
17565TIP3    H174186   2.753   6.134  14.838  0.5357  0.3871  0.5253
17565TIP3    H274187   2.766   6.276  14.787  0.8095 -0.1431 -0.9055
17566TIP3   OH274188   3.753   3.214  13.665  1.1342  0.4090  0.3220
17566TIP3    H174189   3.744   3.184  13.575 -0.1487 -3.2136  1.5493
17566TIP3    H274190   3.805   3.295  13.659 -0.8068  1.4433 -3.7721
17567TIP3   OH274191   2.529   2.179   2.672  0.3542 -0.3921 -0.0603
17567TIP3    H174192   2.604   2.129   2.641 -1.0581 -1.4323 -1.9247
17567TIP3    H274193   2.479   2.117   2.724  0.6756  0.2457  1.0242
17568TIP3   OH274194   0.693   3.474  11.867 -0.1814  0.0324 -0.3106
17568TIP3    H174195   0.641   3.427  11.933  0.2303 -1.6204 -1.1359
17568TIP3    H274196   0.730   3.549  11.915  0.6050 -1.4738  1.5368
17569TIP3   OH274197   5.066   4.095  12.676 -0.1701  0.3172  0.3267
17569TIP3    H174198   5.034   4.095  12.767 -0.7029  0.1428  0.1429
17569TIP3    H274199   5.041   4.180  12.642 -1.5828 -0.2842 -0.2016
17570TIP3   OH274200   0.510   6.460  10.489 -0.1840 -0.0389 -0.1985
17570TIP3    H174201   0.588   6.409  10.468 -1.3780 -1.8803 -0.3023
17570TIP3    H274202   0.437   6.404  10.464 -1.5571  1.6208 -0.0342
17571TIP3   OH274203   3.854   3.043  17.074  0.6009 -0.2604 -0.5002
17571TIP3    H174204   3.831   3.087  16.992  1.5107  2.1269  0.4801
17571TIP3    H274205   3.774   3.046  17.126  0.3300 -0.8452 -0.8679
17572TIP3   OH274206   1.628   0.215  12.969  0.7057 -0.4699  0.5914
17572TIP3    H174207   1.654   0.271  12.896  1.5067 -1.9764 -0.3176
17572TIP3    H274208   1.566   0.153  12.930 -1.1507  0.5627  1.8657
17573TIP3   OH274209   3.621   5.426   5.493  0.5474  0.6690  0.0421
17573TIP3    H174210   3.544   5.477   5.519  0.9565  1.0019  0.6135
17573TIP3    H274211   3.668   5.409   5.575  1.5553  1.2484 -0.3943
17574TIP3   OH274212   3.776   1.341   3.978  0.5365 -0.1017  0.0361
17574TIP3    H174213   3.826   1.317   4.056 -1.0206  0.1316  1.1236
17574TIP3    H274214   3.768   1.436   3.983  2.4433  0.1786 -1.6664
17575TIP3   OH274215   1.297   4.051   1.688 -0.4468 -0.3381  0.5264
17575TIP3    H174216   1.258   4.085   1.769 -3.0954  0.0930 -0.8762
17575TIP3    H274217   1.271   4.114   1.621  0.0016 -1.7716 -1.0263
17576TIP3   OH274218   0.271   6.560  17.196 -0.0556 -0.7864  0.4390
17576TIP3    H174219   0.359   6.530  17.177  0.6444  2.4155 -1.7519
17576TIP3    H274220   0.222   6.544  17.115 -0.4881  0.9230  0.3489
17577TIP3   OH274221   3.833   2.402   0.507 -0.2461 -0.6025 -0.2403
17577TIP3    H174222   3.856   2.494   0.522  1.9355 -1.1209 -0.3413
17577TIP3    H274223   3.863   2.356   0.585 -1.9729 -1.1512  0.1271
17578TIP3   OH274224   2.832   2.536   3.316  0.5215 -0.6443 -0.2165
17578TIP3    H174225   2.871   2.463   3.267  0.1712 -2.3987  2.0424
17578TIP3    H274226   2.906   2.593   3.338  0.9815 -0.9702 -0.8912
17579TIP3   OH274227   4.724   3.596   2.656  0.3982  0.2033  0.3099
17579TIP3    H174228   4.737   3.501   2.651  2.4344  0.3940  1.3211
17579TIP3    H274229   4.693   3.621   2.569  0.6886 -1.2639 -0.2286
17580TIP3   OH274230   2.937   6.399   0.328  0.2699 -0.6796 -0.1676
17580TIP3    H174231   2.972   6.316   0.360  0.4694 -0.2865  0.6554
17580TIP3    H274232   2.847   6.379   0.303 -0.6363 -0.5251  2.7904
17581TIP3   OH274233   4.279   1.765   5.259  0.8626  0.5182  0.9149
17581TIP3    H174234   4.205   1.787   5.316  0.8325 -1.5432  1.7033
17581TIP3    H274235   4.348   1.736   5.319  0.5676 -2.4517 -0.1055
17582TIP3   OH274236   2.375   3.147   2.959  0.1688 -0.5630  0.1180
17582TIP3    H174237   2.424   3.217   2.916  0.4308 -1.0483 -0.3784
17582TIP3    H274238   2.398   3.155   3.051 -1.4883  1.3991  0.4206
17583TIP3   OH274239   1.714   4.060   0.522 -0.0811  0.2887  0.2263
17583TIP3    H174240   1.632   4.095   0.559 -0.7048 -1.9340  1.0217
17583TIP3    H274241   1.687   3.980   0.478  1.3311  0.7756 -1.5561
17584TIP3   OH274242   1.800   4.002   0.926 -0.3064  0.2339  0.7889
17584TIP3    H174243   1.721   4.012   0.978 -1.1453 -1.2580 -0.1636
17584TIP3    H274244   1.777   3.938   0.859  1.0684  1.3211 -0.7756
17585TIP3   OH274245   2.559   4.759  12.291 -0.7117  0.2596 -0.2481
17585TIP3    H174246   2.554   4.835  12.349 -3.1477 -1.6875  2.1658
17585TIP3    H274247   2.586   4.687  12.348 -1.9204 -1.4396 -1.7804
17586TIP3   OH274248   0.965   0.686   1.621 -1.0102 -0.1769  0.0765
17586TIP3    H174249   0.878   0.649   1.635 -1.2798  0.3887 -0.0994
17586TIP3    H274250   0.949   0.771   1.578 -0.2126 -1.9009 -3.8592
17587TIP3   OH274251   6.711   4.385   0.596  0.0933 -0.0310  0.0305
17587TIP3    H174252   6.767   4.402   0.520  1.6278 -1.4911  0.8024
17587TIP3    H274253   6.629   4.354   0.558  0.7131 -0.3893 -1.0431
17588TIP3   OH274254   3.465   6.754   5.632 -0.0509 -0.1752 -0.5997
17588TIP3    H174255   3.503   6.669   5.611  2.0202  0.9329 -1.4503
17588TIP3    H274256   3.536   6.804   5.671 -0.7691  1.7150 -1.6203
17589TIP3   OH274257   0.465   2.394  11.644  0.2854  0.0457 -0.5751
17589TIP3    H174258   0.533   2.373  11.580 -0.4523 -0.4783 -1.1995
17589TIP3    H274259   0.445   2.311  11.687 -0.6856 -0.0090 -1.1181
17590TIP3   OH274260   1.666   0.666   4.460  0.0252  0.3518 -0.1906
17590TIP3    H174261   1.665   0.632   4.370  0.3458 -0.8079  0.2386
17590TIP3    H274262   1.755   0.650   4.490 -0.3945 -0.3232  0.7292
17591TIP3   OH274263   4.640   4.181  14.647  0.3517  0.1182 -0.1048
17591TIP3    H174264   4.686   4.123  14.708 -0.7885 -0.3152  0.3475
17591TIP3    H274265   4.622   4.259  14.699 -1.4757 -0.6327  0.4027
17592TIP3   OH274266   5.333   5.247   5.205  0.1339 -0.1641 -0.0542
17592TIP3    H174267   5.238   5.245   5.217  0.0987  1.3956 -0.0563
17592TIP3    H274268   5.350   5.180   5.138 -0.9471 -0.4887 -0.0134
17593TIP3   OH274269   4.402   1.011   2.394  1.1679 -0.0135  0.3742
17593TIP3    H174270   4.435   1.052   2.313  0.8726  0.2723  0.3939
17593TIP3    H274271   4.359   1.083   2.440 -1.1876 -0.7753 -0.5622
17594TIP3   OH274272   3.453   0.604   1.983 -0.1840  0.8437 -0.4113
17594TIP3    H174273   3.524   0.575   2.041 -1.1396 -0.6298  0.0437
17594TIP3    H274274   3.396   0.656   2.039 -1.5749 -1.3067  0.2305
17595TIP3   OH274275   1.031   2.372   1.357 -0.1973  0.3899 -0.1876
17595TIP3    H174276   1.094   2.301   1.345  0.1464  0.7409 -0.4586
17595TIP3    H274277   1.028   2.416   1.272  1.3579  2.1413  0.6128
17596TIP3   OH274278   6.800   2.408   0.828 -0.1299 -0.5798 -0.2922
17596TIP3    H174279   6.885   2.403   0.784  0.1988  1.7538  0.0274
17596TIP3    H274280   6.821   2.437   0.917 -1.1174 -1.7441  0.3279
17597TIP3   OH274281   4.078   5.031  12.337 -0.2856  0.4847  0.1233
17597TIP3    H174282   4.104   5.012  12.246  0.7680  0.5828  0.4003
17597TIP3    H274283   4.060   4.945  12.375 -0.1232  0.3910 -0.0065
17598TIP3   OH274284   4.148   2.979   0.596  0.2135 -0.1145 -0.4174
17598TIP3    H174285   4.113   3.014   0.513 -1.2890 -0.7152 -0.0504
17598TIP3    H274286   4.077   2.991   0.659  1.1473 -0.1850  0.6586
17599TIP3   OH274287   5.963   0.594  11.447  0.2955  0.7047  0.1501
17599TIP3    H174288   5.911   0.596  11.367 -1.1321 -1.2391  0.9711
17599TIP3    H274289   5.903   0.560  11.514  1.5270  2.0352  2.0002
17600TIP3   OH274290   1.654   2.367   2.016 -0.2930 -0.8190  1.0969
17600TIP3    H174291   1.639   2.425   2.090  0.3997  1.3652 -0.4408
17600TIP3    H274292   1.585   2.389   1.953  2.5312  1.5320 -1.3486
17601TIP3   OH274293   0.951   1.537   1.267  0.2757 -0.0525  0.2540
17601TIP3    H174294   1.033   1.586   1.261 -0.0110  0.3443 -0.3988
17601TIP3    H274295   0.894   1.576   1.201  0.1968 -1.5491 -0.5950
17602TIP3   OH274296   2.484   0.907  15.986 -0.3266 -0.2518  0.2556
17602TIP3    H174297   2.418   0.907  16.056 -0.3183 -0.0678  0.2655
17602TIP3    H274298   2.466   0.827  15.936 -0.4111 -0.3199  0.3939
17603TIP3   OH274299   0.836   3.045  11.575 -0.5381 -0.2097  0.0014
17603TIP3    H174300   0.741   3.037  11.572 -0.6599  1.3642 -0.8483
17603TIP3    H274301   0.851   3.118  11.636  0.1460 -0.7413  0.4728
17604TIP3   OH274302   1.404   3.632  12.964  0.5755 -0.0700  0.1580
17604TIP3    H174303   1.406   3.551  12.914 -1.8974 -0.0026 -0.1187
17604TIP3    H274304   1.494   3.663  12.964  0.8815 -0.7932 -3.0669
17605TIP3   OH274305   2.280   0.173   0.292  0.6371  0.0003 -0.6261
17605TIP3    H174306   2.339   0.112   0.337  1.1301  0.3628 -0.7832
17605TIP3    H274307   2.203   0.177   0.349  1.1062  0.1677 -0.0025
17606TIP3   OH274308   4.599   3.985   0.652  0.0194 -0.3128 -0.3562
17606TIP3    H174309   4.632   4.025   0.733 -0.0507 -0.5666 -0.2034
17606TIP3    H274310   4.624   4.048   0.583  0.0102 -0.0603 -0.1304
17607TIP3   OH274311   0.983   4.539  16.991 -0.2420  0.2377  0.1840
17607TIP3    H174312   1.021   4.623  16.967  0.0184 -0.2686 -1.2633
17607TIP3    H274313   0.953   4.502  16.908 -0.1134 -1.2129  0.7673
17608TIP3   OH274314   1.771   5.451  11.869 -0.5884 -0.1702  0.5061
17608TIP3    H174315   1.812   5.409  11.794  0.4814  0.9106  0.4739
17608TIP3    H274316   1.831   5.522  11.893 -1.3452  0.0427  1.8337
17609TIP3   OH274317   0.570   3.435   2.096  0.0219 -0.3416  0.2014
17609TIP3    H174318   0.522   3.477   2.167  0.7614 -0.0676  0.5504
17609TIP3    H274319   0.611   3.508   2.049 -3.1313 -0.2012 -2.5390
17610TIP3   OH274320   3.534   6.003   0.016 -0.1324 -0.0442  0.2180
17610TIP3    H174321   3.624   5.995   0.048 -0.8614  0.5415  2.4956
17610TIP3    H274322   3.540   6.071  -0.052  1.0271  0.5327  0.8692
17611TIP3   OH274323   0.800   2.526   2.942  0.6022  0.8355  0.1432
17611TIP3    H174324   0.779   2.607   2.989  0.0812  0.3973  0.6851
17611TIP3    H274325   0.836   2.468   3.010 -0.1576  0.1985  0.0155
17612TIP3   OH274326   5.317   2.138   5.109  0.2588  0.1294  0.1650
17612TIP3    H174327   5.282   2.158   5.022  0.7514 -1.0760 -0.3265
17612TIP3    H274328   5.332   2.223   5.149 -3.0100  0.6749  0.3198
17613TIP3   OH274329   6.677   4.453  16.974  0.6228  0.4370  0.0627
17613TIP3    H174330   6.647   4.392  16.907  2.5111  0.5439 -0.8975
17613TIP3    H274331   6.610   4.522  16.975 -0.5941 -0.7179 -0.0849
17614TIP3   OH274332   4.724   6.432   5.383 -0.5049 -0.1935 -0.0385
17614TIP3    H174333   4.644   6.485   5.375  0.1809  0.6204 -1.8295
17614TIP3    H274334   4.698   6.345   5.352 -0.4040  0.4004 -1.8618
17615TIP3   OH274335   2.822   2.243   2.150  0.0928 -0.1529  0.7250
17615TIP3    H174336   2.746   2.258   2.206 -0.0251 -0.4762  0.6503
17615TIP3    H274337   2.846   2.151   2.166 -0.5372 -0.5317 -0.5024
17616TIP3   OH274338   2.629   1.172   3.502  0.5909  0.2405  0.5849
17616TIP3    H174339   2.539   1.154   3.473  0.3724 -0.0776  1.4202
17616TIP3    H274340   2.641   1.265   3.487  1.2596 -0.3117 -2.5517
17617TIP3   OH274341   1.036   3.785   2.764 -0.1732 -0.4675 -0.4730
17617TIP3    H174342   1.042   3.875   2.795  0.6532 -1.2680  1.7604
17617TIP3    H274343   0.943   3.763   2.772 -0.2913  0.0025 -0.5182
17618TIP3   OH274344   0.289   5.870  12.095  0.1518  0.2037 -0.5713
17618TIP3    H174345   0.197   5.868  12.069  0.0481  0.3570 -0.2264
17618TIP3    H274346   0.337   5.877  12.013 -0.1412 -0.0149 -0.7630
17619TIP3   OH274347   5.178   6.478   3.476  0.0723 -0.2392  0.8164
17619TIP3    H174348   5.197   6.394   3.434 -2.5276 -0.7560  0.6053
17619TIP3    H274349   5.186   6.461   3.569  0.3303 -0.5206  0.7437
17620TIP3   OH274350   3.993   0.695   5.205  0.0830 -0.4281  0.2014
17620TIP3    H174351   3.952   0.704   5.119  0.3772 -0.6731  0.0333
17620TIP3    H274352   3.967   0.774   5.253  0.7173  0.1846 -0.4491
17621TIP3   OH274353   5.515   2.488   6.038  0.3595  0.2851 -0.3517
17621TIP3    H174354   5.501   2.512   6.129  1.7893 -0.8945  0.1836
17621TIP3    H274355   5.458   2.547   5.989 -1.2095  0.2080  1.3543
17622TIP3   OH274356   2.454   3.300  11.687 -0.2734 -1.0585 -0.2484
17622TIP3    H174357   2.524   3.362  11.667  0.0954 -1.4147 -0.0849
17622TIP3    H274358   2.374   3.342  11.655 -0.1003 -0.2737  0.3341
17623TIP3   OH274359   2.217   4.419  12.007  0.3085 -0.1476 -0.1560
17623TIP3    H174360   2.140   4.430  12.062 -2.4113  1.5582 -4.0254
17623TIP3    H274361   2.289   4.403  12.068 -2.8714 -0.5732  3.6536
17624TIP3   OH274362   3.710   5.821   2.053 -0.4888 -0.3825 -0.2167
17624TIP3    H174363   3.710   5.782   2.140  0.3106 -0.1434 -0.1027
17624TIP3    H274364   3.633   5.785   2.010 -0.1051 -1.5932  0.1021
17625TIP3   OH274365   1.718   4.221   4.433 -0.1044 -0.0867  0.2331
17625TIP3    H174366   1.664   4.265   4.367 -0.6712 -2.2659 -0.7971
17625TIP3    H274367   1.696   4.265   4.515 -1.3749  0.9014 -0.6130
17626TIP3   OH274368   2.776   1.825   3.277 -0.1035 -1.0614  0.1333
17626TIP3    H174369   2.847   1.823   3.340 -0.5741 -0.1374  0.7028
17626TIP3    H274370   2.704   1.868   3.323 -0.4619 -0.4163 -1.0183
17627TIP3   OH274371   2.089   0.917   3.530  0.4965  0.1451 -0.3141
17627TIP3    H174372   2.069   0.981   3.598 -1.6390  1.6820 -2.2934
17627TIP3    H274373   2.176   0.941   3.499  0.8145  0.4301  0.7705
17628TIP3   OH274374   3.832   3.121   1.000 -0.7772 -0.1622 -0.0194
17628TIP3    H174375   3.820   3.187   1.068 -0.0565 -1.0983  1.0533
17628TIP3    H274376   3.746   3.081   0.990 -0.6251 -0.8417  1.2329
17629TIP3   OH274377   1.787   3.883   5.081  0.3549  0.4529 -0.5886
17629TIP3    H174378   1.836   3.821   5.027 -0.3041 -0.6013  0.0001
17629TIP3    H274379   1.735   3.934   5.018 -0.8088 -1.1149 -0.9519
17630TIP3   OH274380   1.583   3.492   6.177  0.2534 -0.1518  0.1092
17630TIP3    H174381   1.563   3.573   6.130 -2.3983 -0.5182  0.5327
17630TIP3    H274382   1.560   3.422   6.117  0.6030 -0.6107  0.5003
17631TIP3   OH274383   3.108   4.078  12.640 -0.3290 -0.0831  0.4842
17631TIP3    H174384   3.160   4.111  12.567 -2.3091 -1.2645 -1.5152
17631TIP3    H274385   3.172   4.055  12.708  1.5410  0.8146 -0.9464
17632TIP3   OH274386   3.769   4.050  12.552 -0.9402 -0.2803  0.1584
17632TIP3    H174387   3.739   4.113  12.487 -0.5265  1.2271  1.3926
17632TIP3    H274388   3.745   4.088  12.636  2.2887 -0.1062  1.0891
17633TIP3   OH274389   2.475   4.401  12.508 -0.2989  0.3111 -0.9623
17633TIP3    H174390   2.443   4.318  12.545 -0.0255  0.9430  0.7662
17633TIP3    H274391   2.561   4.379  12.471  0.4594  0.1041  0.8407
17634TIP3   OH274392   3.167   3.673   4.840 -0.7887  0.1401 -0.0871
17634TIP3    H174393   3.240   3.614   4.824 -0.3729  0.4810  0.5699
17634TIP3    H274394   3.091   3.616   4.847  0.0522 -0.5926  3.6570
17635TIP3   OH274395   4.795   1.412   1.195 -0.5020  0.2321 -0.3410
17635TIP3    H174396   4.856   1.380   1.262 -0.5861  0.8468  0.0312
17635TIP3    H274397   4.837   1.391   1.112 -1.3314 -2.4182 -0.1294
17636TIP3   OH274398   6.107   3.859  16.891  0.0643  0.6373 -0.4214
17636TIP3    H174399   6.133   3.931  16.948  0.0924  0.8598 -0.7144
17636TIP3    H274400   6.030   3.821  16.934  0.6134  0.2429  0.2275
17637TIP3   OH274401   2.322   4.452   1.190 -0.2462 -0.0676 -0.2392
17637TIP3    H174402   2.255   4.485   1.130 -0.8124 -1.2687 -0.2974
17637TIP3    H274403   2.307   4.357   1.192 -0.0899 -0.0777  1.6208
17638TIP3   OH274404   5.396   4.078  11.606 -0.2067 -0.5195  0.4416
17638TIP3    H174405   5.369   4.001  11.656 -0.6951 -1.1882 -0.8448
17638TIP3    H274406   5.314   4.118  11.577  0.0739 -0.1919  0.0928
17639TIP3   OH274407   3.450   4.423   3.858 -0.6100 -0.0855  0.0954
17639TIP3    H174408   3.459   4.504   3.908  1.1460 -0.8539  1.0483
17639TIP3    H274409   3.387   4.371   3.908 -0.3174 -0.0615  0.4926
17640TIP3   OH274410   0.536   2.044  13.118  0.0755  0.7038 -0.2348
17640TIP3    H174411   0.450   2.027  13.078 -0.6415  0.1346  1.5277
17640TIP3    H274412   0.576   1.957  13.125  0.9028  0.9867 -1.2254
17641TIP3   OH274413   4.687   3.410  13.521 -0.3749  0.5780  0.4342
17641TIP3    H174414   4.666   3.454  13.603  1.1858  0.7583  0.7596
17641TIP3    H274415   4.770   3.450  13.493 -2.0300  2.1625 -2.4170
17642TIP3   OH274416   4.003   2.707   5.428  0.2255 -0.0962  0.0753
17642TIP3    H174417   4.070   2.720   5.495  1.4509  0.2179 -1.1816
17642TIP3    H274418   4.015   2.781   5.368 -2.9848  1.4944  1.2117
17643TIP3   OH274419   1.091   2.236   2.924 -0.2035  0.3015 -0.4315
17643TIP3    H174420   1.143   2.296   2.871  1.3999 -1.3851 -0.8136
17643TIP3    H274421   1.015   2.216   2.870 -0.7789  1.9993 -0.2812
17644TIP3   OH274422   2.497   3.639  14.747  0.1295  0.2971 -0.8186
17644TIP3    H174423   2.579   3.688  14.740 -0.2903  0.8600 -1.8331
17644TIP3    H274424   2.471   3.650  14.838  0.6421  0.9848 -0.7497
17645TIP3   OH274425   5.071   6.373  13.852  0.2631  0.1706  0.2327
17645TIP3    H174426   5.118   6.456  13.857 -1.8642  1.3949  0.4351
17645TIP3    H274427   4.997   6.384  13.912 -1.6692 -0.7847 -1.9178
17646TIP3   OH274428   5.783   4.707   6.581 -0.2378 -0.3209 -0.0117
17646TIP3    H174429   5.708   4.709   6.522 -0.2948  1.6307  0.0926
17646TIP3    H274430   5.835   4.633   6.552 -1.4084 -0.7417 -1.0730
17647TIP3   OH274431   6.146   6.472  13.036  0.0891  0.1965  0.4181
17647TIP3    H174432   6.196   6.469  13.117  0.5363  4.1185  0.3785
17647TIP3    H274433   6.054   6.469  13.064  0.2481  1.3466  1.0725
17648TIP3   OH274434   2.770   0.889  15.245 -0.2336 -0.7194  0.6744
17648TIP3    H174435   2.825   0.825  15.200 -0.3499 -0.6985  0.5012
17648TIP3    H274436   2.711   0.922  15.177  0.6473  0.4948  0.4853
17649TIP3   OH274437   2.732   1.654   2.779  0.2769  0.1500 -0.2084
17649TIP3    H174438   2.672   1.580   2.772 -1.0441  1.2511 -0.6538
17649TIP3    H274439   2.725   1.682   2.870  1.1735 -0.5782  0.0989
17650TIP3   OH274440   2.091   0.836   2.256  0.4754 -0.1028 -0.1974
17650TIP3    H174441   2.013   0.820   2.203  0.3094  0.2530 -0.0566
17650TIP3    H274442   2.072   0.916   2.304  0.7895 -0.2055  0.0971
17651TIP3   OH274443   6.573   5.811  13.202 -0.1161 -0.1553 -0.2574
17651TIP3    H174444   6.546   5.899  13.177  0.4272 -0.1881 -0.9728
17651TIP3    H274445   6.491   5.766  13.223 -0.5563 -0.0162 -1.6407
17652TIP3   OH274446   4.281   6.030  11.522  0.7022  0.0382  0.0867
17652TIP3    H174447   4.334   5.959  11.485  3.1689  2.1452 -0.5784
17652TIP3    H274448   4.320   6.048  11.607  1.1921  1.7272 -0.4753
17653TIP3   OH274449   1.368   6.036  13.447  0.1396 -0.5935  0.1221
17653TIP3    H174450   1.340   6.069  13.532  2.3136  1.2578  0.1458
17653TIP3    H274451   1.421   5.959  13.468  1.5190  0.4524  0.5126
17654TIP3   OH274452   3.273   0.328   1.975 -0.1295 -0.5070 -0.4567
17654TIP3    H174453   3.257   0.416   1.940 -0.2225  0.4969  1.9844
17654TIP3    H274454   3.189   0.302   2.014  0.0797 -1.4200 -0.6081
17655TIP3   OH274455   3.777   6.649  17.125  0.3252 -0.2393  0.3830
17655TIP3    H174456   3.782   6.623  17.033 -0.8506  0.6748  0.0495
17655TIP3    H274457   3.841   6.593  17.169  1.6578  0.0433 -1.1483
17656TIP3   OH274458   0.201   6.436  13.563  0.1867  0.5153  0.6654
17656TIP3    H174459   0.214   6.348  13.599 -1.2880 -0.0245 -0.0625
17656TIP3    H274460   0.126   6.426  13.504  1.7491  1.6200 -1.6028
17657TIP3   OH274461   4.569   5.470  12.407 -0.0655  0.1120 -0.0935
17657TIP3    H174462   4.641   5.409  12.393 -0.2796 -0.3816  0.8931
17657TIP3    H274463   4.513   5.458  12.330  0.5850  0.0567 -0.5696
17658TIP3   OH274464   3.007   4.971  12.103 -0.5020  0.4641  0.2056
17658TIP3    H174465   3.028   4.914  12.028  0.2941  1.0943 -0.0634
17658TIP3    H274466   2.915   4.955  12.120 -0.0842 -1.5531  0.6778
17659TIP3   OH274467   3.749   2.304  16.097  0.1604 -0.2753  0.0209
17659TIP3    H174468   3.744   2.353  16.014 -1.3301  1.1504  0.9437
17659TIP3    H274469   3.835   2.329  16.133  0.1786  0.2686 -0.3788
17660TIP3   OH274470   4.000   4.799   0.869 -0.6489  0.0778  0.3309
17660TIP3    H174471   4.070   4.781   0.806  0.2416 -1.7741  1.7995
17660TIP3    H274472   4.004   4.894   0.883 -0.5249  0.4448 -1.9625
17661TIP3   OH274473   0.077   2.537   4.916  0.2682  0.3522  0.3372
17661TIP3    H174474   0.092   2.497   4.831  1.1817  0.9083  0.2346
17661TIP3    H274475   0.015   2.478   4.959 -0.6607  0.3780 -0.9343
17662TIP3   OH274476   6.420   1.789  11.671 -0.4602  0.3277 -0.1191
17662TIP3    H174477   6.392   1.697  11.668 -1.2423  0.5595  0.0417
17662TIP3    H274478   6.481   1.797  11.598 -0.6517 -0.2356 -0.3480
17663TIP3   OH274479   4.058   3.581  12.117  0.1891 -0.1841 -0.0982
17663TIP3    H174480   4.150   3.606  12.107  0.5802 -2.1986 -1.8943
17663TIP3    H274481   4.012   3.635  12.052  0.4253 -0.8200 -0.8036
17664TIP3   OH274482   6.561   3.854   3.117  0.1899  0.7973 -0.7862
17664TIP3    H174483   6.516   3.788   3.170 -0.5083  0.8668 -1.2810
17664TIP3    H274484   6.551   3.823   3.027 -1.8541  2.5575 -1.2141
17665TIP3   OH274485   2.929   0.392  13.983 -0.6431  0.0184 -0.5785
17665TIP3    H174486   2.854   0.451  13.989  0.2727  1.2364 -1.0299
17665TIP3    H274487   2.890   0.304  13.988 -1.9640  0.6458  0.6457
17666TIP3   OH274488   1.375   6.463  15.967  0.2014  0.1115 -0.1346
17666TIP3    H174489   1.316   6.391  15.946  1.0634 -0.2590 -1.3511
17666TIP3    H274490   1.385   6.461  16.062 -0.2477 -0.9960 -0.1135
17667TIP3   OH274491   4.578   3.972   1.085  0.5133  0.3576  0.2005
17667TIP3    H174492   4.525   3.903   1.124  1.7435  0.7757  2.7846
17667TIP3    H274493   4.544   4.053   1.125 -0.7461  1.2409 -2.5831
17668TIP3   OH274494   5.918   5.564  13.730 -0.1177 -0.2633  0.6653
17668TIP3    H174495   5.858   5.578  13.656 -0.9997 -0.6337  1.2996
17668TIP3    H274496   5.860   5.543  13.804  0.7314  0.3802  1.5278
17669TIP3   OH274497   3.398   2.007  15.829  0.1207  0.6856 -0.1853
17669TIP3    H174498   3.450   1.929  15.809 -2.1735 -0.1013 -3.5523
17669TIP3    H274499   3.339   1.978  15.899  1.4361  0.3674  0.7999
17670TIP3   OH274500   1.229   0.403   2.087 -0.4176  0.9073  0.0677
17670TIP3    H174501   1.157   0.464   2.072 -0.7091  0.6938  0.5904
17670TIP3    H274502   1.188   0.317   2.093 -0.2559  0.9251  1.5463
17671TIP3   OH274503   3.066   0.122  14.737  0.2747  0.3082 -0.5048
17671TIP3    H174504   3.019   0.177  14.800 -1.2818 -0.1532 -1.2310
17671TIP3    H274505   3.154   0.113  14.773 -0.2923  0.9336  1.0589
17672TIP3   OH274506   3.512   1.878  11.699 -0.4431  0.2158  0.0653
17672TIP3    H174507   3.474   1.956  11.740 -0.9746 -0.0290  0.0356
17672TIP3    H274508   3.567   1.913  11.629  0.3450  0.6324  0.8770
17673TIP3   OH274509   6.066   2.596   4.073  0.3382  0.4032 -0.0644
17673TIP3    H174510   5.971   2.602   4.059  0.0351 -1.7627  0.8915
17673TIP3    H274511   6.103   2.660   4.011 -1.7528  1.7600  0.0192
17674TIP3   OH274512   6.249   6.258  11.514 -0.0106  0.3888  0.3092
17674TIP3    H174513   6.289   6.253  11.601  0.8226  0.2223 -0.0808
17674TIP3    H274514   6.245   6.352  11.495 -0.5653  0.4478  0.6917
17675TIP3   OH274515   3.334   3.501   2.777 -0.4755  0.5354  0.2311
17675TIP3    H174516   3.325   3.542   2.862  1.7139  1.8008 -0.1143
17675TIP3    H274517   3.382   3.564   2.724  0.8155 -1.4350 -1.0484
17676TIP3   OH274518   2.679   4.963  11.572  0.3942 -1.1052 -0.0928
17676TIP3    H174519   2.591   4.986  11.602  1.2278  0.5451  1.2276
17676TIP3    H274520   2.686   5.002  11.485 -0.3325 -1.6611 -0.4068
17677TIP3   OH274521   6.033   4.428   5.009  0.1502  0.4801 -0.2659
17677TIP3    H174522   6.103   4.478   5.050  0.7733 -0.2850 -0.3729
17677TIP3    H274523   5.969   4.412   5.079  0.5115  0.4220  0.0495
17678TIP3   OH274524   3.439   1.175   3.431 -0.1943  0.4069  0.2469
17678TIP3    H174525   3.484   1.245   3.479  1.8183 -0.6669 -0.0186
17678TIP3    H274526   3.434   1.207   3.341  0.5013  0.3355  0.1776
17679TIP3   OH274527   1.031   2.227  12.044 -0.4046  0.0800  0.8052
17679TIP3    H174528   0.954   2.205  12.097 -0.8204  1.5771  0.8403
17679TIP3    H274529   0.998   2.233  11.955  0.0094 -0.9479  0.5728
17680TIP3   OH274530   0.722   5.332   0.765 -1.1003  0.4005  0.4264
17680TIP3    H174531   0.811   5.350   0.734 -1.0346 -0.8356 -0.1282
17680TIP3    H274532   0.682   5.419   0.772 -1.2810  0.7705 -3.7184
17681TIP3   OH274533   1.058   3.220   5.057  0.4298 -0.5399  0.1259
17681TIP3    H174534   1.041   3.153   5.122 -0.6780 -1.2579 -0.8912
17681TIP3    H274535   1.096   3.173   4.983  0.8477  0.1363 -0.0998
17682TIP3   OH274536   5.469   4.555  13.759 -0.9834 -0.4182 -0.2167
17682TIP3    H174537   5.435   4.625  13.816 -1.3239 -2.7356  2.5326
17682TIP3    H274538   5.391   4.516  13.720 -0.8999 -0.1833 -0.6123
17683TIP3   OH274539   1.186   0.865   5.727 -0.5704 -0.0435  0.2075
17683TIP3    H174540   1.119   0.885   5.792 -1.2170  1.7432 -0.9560
17683TIP3    H274541   1.267   0.900   5.764 -0.9059  0.8254  0.1251
17684TIP3   OH274542   3.848   1.992   4.594 -0.5162  0.2266  0.5217
17684TIP3    H174543   3.753   1.984   4.596 -0.5287  0.2892  0.2276
17684TIP3    H274544   3.868   2.020   4.504 -0.2199  0.1906  0.5750
17685TIP3   OH274545   0.356   5.513  15.740 -0.6097  0.0153  0.0426
17685TIP3    H174546   0.284   5.537  15.681  0.0771  0.8296 -0.4652
17685TIP3    H274547   0.428   5.571  15.716 -0.0870 -0.1350  1.2057
17686TIP3   OH274548   6.750   1.343  13.208  0.3715 -0.0960  0.2716
17686TIP3    H174549   6.735   1.437  13.205 -1.9486 -0.4558 -0.2369
17686TIP3    H274550   6.845   1.334  13.201  0.7111  2.2335  1.2654
17687TIP3   OH274551   0.206   3.709   0.931  0.3553  0.0966 -0.5145
17687TIP3    H174552   0.201   3.636   0.993  0.0231 -0.2690 -0.9736
17687TIP3    H274553   0.291   3.750   0.950  0.2422  0.0030  0.2001
17688TIP3   OH274554   2.766   3.290  15.197  0.1016 -0.8025  0.0194
17688TIP3    H174555   2.738   3.214  15.247 -2.3297 -1.1477 -1.7613
17688TIP3    H274556   2.708   3.291  15.120  0.2864  2.6234 -0.1789
17689TIP3   OH274557   3.639   0.158   4.518 -0.5495 -0.5204  0.1857
17689TIP3    H174558   3.649   0.225   4.451  0.8503  0.4286  1.2973
17689TIP3    H274559   3.686   0.082   4.484 -1.1017 -0.5296 -0.5506
17690TIP3   OH274560   2.822   2.616  13.117 -0.1460  0.1002 -0.8181
17690TIP3    H174561   2.798   2.662  13.197 -1.0570  1.6070 -1.9422
17690TIP3    H274562   2.917   2.623  13.113  0.1226 -1.8636  1.2413
17691TIP3   OH274563   6.350   4.891  15.312 -0.4104  0.2106 -0.1149
17691TIP3    H174564   6.326   4.838  15.388 -0.7894  0.8942  0.2472
17691TIP3    H274565   6.432   4.852  15.280 -0.5402 -0.4158  0.3138
17692TIP3   OH274566   3.311   2.174   3.694 -0.1639  0.4664  0.0473
17692TIP3    H174567   3.310   2.103   3.758 -0.2751  0.8696  0.4948
17692TIP3    H274568   3.222   2.179   3.661 -0.0174  0.0073 -0.4161
17693TIP3   OH274569   5.157   1.696  13.115 -0.1918  0.5492 -0.2797
17693TIP3    H174570   5.069   1.699  13.078 -0.1600 -0.1645 -0.4346
17693TIP3    H274571   5.204   1.766  13.071 -0.6681  0.8910 -0.2444
17694TIP3   OH274572   1.201   4.433  15.109 -0.2604  0.0611  0.5965
17694TIP3    H174573   1.244   4.518  15.120 -0.1207  0.0772 -0.0207
17694TIP3    H274574   1.260   4.385  15.050 -1.9160  0.6844 -1.6208
17695TIP3   OH274575   5.000   5.914  13.864  0.5178  0.2200  0.0934
17695TIP3    H174576   4.961   5.920  13.777  3.4198 -1.2152 -1.3602
17695TIP3    H274577   4.926   5.899  13.922 -1.2792 -0.7293 -2.3512
17696TIP3   OH274578   2.061   3.250   1.119 -0.6104  0.1736  0.1339
17696TIP3    H174579   2.151   3.218   1.122  0.0566  1.9557  0.1728
17696TIP3    H274580   2.007   3.172   1.104  0.9939 -0.8179 -0.5660
17697TIP3   OH274581   2.376   1.457   5.200  0.0480  0.0277 -0.3175
17697TIP3    H174582   2.359   1.399   5.274  1.4384  1.7690  1.4459
17697TIP3    H274583   2.453   1.508   5.228  0.6767  0.6159 -3.0338
17698TIP3   OH274584   5.562   2.639  14.201 -0.1889 -0.1117  0.5029
17698TIP3    H174585   5.585   2.610  14.113 -0.1554  1.1571  0.0857
17698TIP3    H274586   5.605   2.577  14.259 -0.2509 -0.9806 -0.3797
17699TIP3   OH274587   3.532   2.441  12.877  0.0218  0.0316  0.3972
17699TIP3    H174588   3.497   2.505  12.939 -1.4076  0.5679 -0.9481
17699TIP3    H274589   3.618   2.477  12.853 -1.8149  2.8430 -2.3057
17700TIP3   OH274590   4.161   6.688   3.085  0.8743 -0.1766  0.2153
17700TIP3    H174591   4.240   6.739   3.073  0.9263 -0.0597  1.0499
17700TIP3    H274592   4.092   6.740   3.044  1.0848  0.1094  0.2296
17701TIP3   OH274593   2.442   5.577   0.287 -0.2089  0.0164  0.3000
17701TIP3    H174594   2.414   5.509   0.348 -1.1263  0.8638  0.8249
17701TIP3    H274595   2.380   5.571   0.214 -1.3939  1.4823  1.1775
17702TIP3   OH274596   2.229   5.333  15.450  0.3016 -0.1105  0.1189
17702TIP3    H174597   2.167   5.301  15.516  1.1072 -0.1555  0.8619
17702TIP3    H274598   2.275   5.405  15.493 -0.1866  0.8328 -0.9001
17703TIP3   OH274599   1.529   3.757   1.571 -0.6091  0.1893  0.0703
17703TIP3    H174600   1.578   3.815   1.629 -0.1964 -0.7323  0.6586
17703TIP3    H274601   1.440   3.758   1.605 -0.3097 -0.5601  0.8928
17704TIP3   OH274602   4.693   5.305   1.640 -0.3077 -0.2170 -0.0169
17704TIP3    H174603   4.731   5.315   1.727 -0.2917 -0.3915 -0.0031
17704TIP3    H274604   4.734   5.373   1.587 -1.0538  0.5217  0.3580
17705TIP3   OH274605   2.232   1.684  14.078 -0.1696 -0.5818 -0.6201
17705TIP3    H174606   2.187   1.761  14.112 -0.5804 -1.0152 -0.1738
17705TIP3    H274607   2.208   1.681  13.986  0.7402  0.4534 -0.9046
17706TIP3   OH274608   0.797   0.217   6.277  0.5800 -0.3178 -0.7467
17706TIP3    H174609   0.807   0.312   6.269  1.0584 -0.4987 -2.5460
17706TIP3    H274610   0.727   0.206   6.341  1.4954  1.2230  0.5624
17707TIP3   OH274611   2.224   6.421  16.022  0.0956  0.0119 -0.0285
17707TIP3    H174612   2.277   6.465  16.088  1.4778 -0.0998 -1.0300
17707TIP3    H274613   2.148   6.387  16.069  0.1306  1.5447  1.1522
17708TIP3   OH274614   2.193   6.059   5.254  0.1623 -0.4842 -0.2543
17708TIP3    H174615   2.212   6.135   5.199  0.7667  0.4307  1.1987
17708TIP3    H274616   2.249   6.070   5.331 -1.9429 -0.8189  1.3732
17709TIP3   OH274617   4.069   4.713  16.089 -0.3092 -0.0422 -0.1222
17709TIP3    H174618   4.061   4.807  16.105 -0.3856  0.0793 -0.8563
17709TIP3    H274619   4.148   4.687  16.137  0.9035  0.7988 -1.6039
17710TIP3   OH274620   4.895   1.202  11.615 -0.1216 -0.0279  0.1284
17710TIP3    H174621   4.882   1.112  11.643 -1.2990 -0.0445 -0.4445
17710TIP3    H274622   4.861   1.255  11.688  0.3715 -0.0377  0.3718
17711TIP3   OH274623   4.585   2.753  15.362 -0.4859  0.0157 -0.2455
17711TIP3    H174624   4.599   2.846  15.348  0.2925  0.1997  1.6829
17711TIP3    H274625   4.562   2.719  15.275  4.8304  0.9449 -2.1958
17712TIP3   OH274626   4.419   3.366   0.441 -0.6966  0.2378 -0.2911
17712TIP3    H174627   4.483   3.295   0.440 -1.7014 -0.7264  1.9011
17712TIP3    H274628   4.339   3.327   0.406 -0.3882  1.1784 -2.1009
17713TIP3   OH274629   5.968   6.228  15.725 -0.1201  0.0512  0.0860
17713TIP3    H174630   5.907   6.210  15.654  0.3601 -1.6045  0.0588
17713TIP3    H274631   5.991   6.320  15.716 -0.6558  0.0355 -1.4305
17714TIP3   OH274632   6.236   0.709  11.012 -0.5371  0.0818 -0.0278
17714TIP3    H174633   6.298   0.683  11.080 -0.1203  0.4341 -0.2743
17714TIP3    H274634   6.233   0.805  11.018 -2.0238 -0.0047  0.8476
17715TIP3   OH274635   0.589   6.775  13.028 -0.0570 -0.3405 -0.3381
17715TIP3    H174636   0.626   6.841  12.970 -2.0360  0.1259 -1.0939
17715TIP3    H274637   0.502   6.808  13.050  0.0571 -1.2655  1.6523
17716TIP3   OH274638   1.448   6.287  13.354 -0.7377  0.0010 -0.5798
17716TIP3    H174639   1.389   6.217  13.381 -1.0316  1.2383  2.1798
17716TIP3    H274640   1.391   6.361  13.336 -0.1222  1.3197  2.4556
17717TIP3   OH274641   3.381   2.442   6.543 -0.3844 -0.2392  0.4562
17717TIP3    H174642   3.318   2.371   6.557 -2.4167  1.0344 -1.7457
17717TIP3    H274643   3.332   2.522   6.564  2.1469  0.5279  3.8432
17718TIP3   OH274644   4.670   6.721   2.351  0.7649  0.1810  0.2251
17718TIP3    H174645   4.726   6.721   2.428  3.9143 -0.1498 -1.9568
17718TIP3    H274646   4.652   6.629   2.334 -0.1599  0.2682  0.7145
17719TIP3   OH274647   2.732   1.258  15.765 -0.3816  0.8764 -0.6371
17719TIP3    H174648   2.704   1.195  15.699 -0.3980  0.4785 -0.2509
17719TIP3    H274649   2.658   1.266  15.824  0.1175  0.2220  0.0857
17720TIP3   OH274650   5.343   6.596  14.102 -0.2437  0.6003  0.7468
17720TIP3    H174651   5.437   6.583  14.116 -0.0398  1.9536  0.6821
17720TIP3    H274652   5.303   6.517  14.138  0.9968 -0.5143 -0.2606
17721TIP3   OH274653   0.130   5.833  16.244  0.3319 -0.0904  1.0067
17721TIP3    H174654   0.198   5.890  16.209 -0.1333  0.4648  0.9854
17721TIP3    H274655   0.048   5.869  16.209 -0.0929  0.1105  2.1626
17722TIP3   OH274656   4.696   0.292  12.400  0.0676  0.0181 -0.6385
17722TIP3    H174657   4.681   0.326  12.312 -0.7559  0.7398 -0.2193
17722TIP3    H274658   4.726   0.202  12.386 -0.8700 -0.1440 -1.6178
17723TIP3   OH274659   5.505   6.078   4.538 -0.1257 -0.5866  0.2692
17723TIP3    H174660   5.552   6.130   4.602  0.7464  0.6363 -1.3242
17723TIP3    H274661   5.573   6.033   4.488 -0.6358  0.8184 -1.7406
17724TIP3   OH274662   5.202   5.163  15.869  0.1105 -0.0061 -0.0737
17724TIP3    H174663   5.116   5.198  15.847  0.0570 -0.7315 -1.0258
17724TIP3    H274664   5.263   5.209  15.811  0.0798 -1.2176 -1.0759
17725TIP3   OH274665   5.958   0.181  12.196 -0.1359 -0.0709 -0.9256
17725TIP3    H174666   6.015   0.206  12.269 -0.0046  0.1391 -1.0969
17725TIP3    H274667   6.005   0.111  12.152 -1.2333 -1.7256  0.4783
17726TIP3   OH274668   5.264   1.953  12.407  0.4597  0.3120  0.2586
17726TIP3    H174669   5.230   2.001  12.483  1.5670 -0.1504  1.0471
17726TIP3    H274670   5.327   1.891  12.443  0.5190 -0.3698 -0.9734
17727TIP3   OH274671   3.099   6.218  15.324  0.1133  0.4945 -0.1262
17727TIP3    H174672   3.121   6.220  15.417  0.4540 -1.5460 -0.1533
17727TIP3    H274673   3.028   6.155  15.316  0.4135  0.2798 -1.3173
17728TIP3   OH274674   2.306   4.832  13.527  0.4214  0.0051  0.0903
17728TIP3    H174675   2.397   4.821  13.499  0.7442  1.3897  0.5875
17728TIP3    H274676   2.303   4.794  13.615  0.2446 -1.0356 -0.3478
17729TIP3   OH274677   6.124   2.825   5.652  0.2719 -0.2180 -0.3779
17729TIP3    H174678   6.156   2.820   5.562  2.6851  0.3041  0.4109
17729TIP3    H274679   6.108   2.918   5.667 -0.6381 -0.3617 -0.4215
17730TIP3   OH274680   2.359   2.047   5.692 -0.3346  0.1439  0.7950
17730TIP3    H174681   2.419   2.112   5.731  1.6494 -1.9980  1.4533
17730TIP3    H274682   2.356   2.070   5.599  1.4492  0.3694  0.7710
17731TIP3   OH274683   5.995   4.412  16.938 -0.1689 -0.2185 -0.1519
17731TIP3    H174684   6.048   4.338  16.965  0.0809 -0.0291 -0.1158
17731TIP3    H274685   6.059   4.481  16.918 -0.3375 -0.3996 -1.3514
17732TIP3   OH274686   2.548   1.912   4.234  0.1161 -0.4412 -0.0213
17732TIP3    H174687   2.583   1.998   4.214  1.0388 -0.4829  1.3234
17732TIP3    H274688   2.579   1.894   4.323 -0.6806 -1.8382 -0.0150
17733TIP3   OH274689   1.419   5.365   3.896 -0.4997  0.9846 -0.0540
17733TIP3    H174690   1.389   5.304   3.964 -2.4177  1.7289 -0.2068
17733TIP3    H274691   1.429   5.448   3.942  1.4299  0.7508  0.0014
17734TIP3   OH274692   4.925   3.756   0.771 -0.0068 -0.0086  0.3278
17734TIP3    H174693   5.012   3.716   0.772 -0.2662 -0.6668 -1.7615
17734TIP3    H274694   4.883   3.721   0.692 -3.7412 -2.9854  3.4223
17735TIP3   OH274695   3.874   2.482   2.313  0.4202  0.2771  0.5787
17735TIP3    H174696   3.796   2.502   2.263 -0.3268 -0.4055  1.4504
17735TIP3    H274697   3.931   2.436   2.252 -0.4505 -0.4979  0.3376
17736TIP3   OH274698   3.709   5.931   1.127 -0.1699  0.4001  0.2485
17736TIP3    H174699   3.799   5.898   1.122 -0.9390 -1.5881 -0.8751
17736TIP3    H274700   3.719   6.022   1.154  2.3168  0.7757 -1.6895
17737TIP3   OH274701   2.787   6.234   2.120  0.2006 -0.0872 -0.5337
17737TIP3    H174702   2.700   6.267   2.144 -0.2569 -0.4365 -1.6826
17737TIP3    H274703   2.778   6.139   2.123  0.4981 -0.1230 -0.7941
17738TIP3   OH274704   0.006   0.098   4.748  0.2335 -0.8126 -0.1064
17738TIP3    H174705  -0.001   0.169   4.683 -1.3568  0.4965  1.4418
17738TIP3    H274706   0.084   0.121   4.799  1.1548 -1.5330 -1.1746
17739TIP3   OH274707   3.336   0.863  16.966 -0.8958  0.0940 -0.1361
17739TIP3    H174708   3.322   0.773  16.995  0.5542 -0.2345 -0.4334
17739TIP3    H274709   3.421   0.888  17.002 -1.3054  1.3784 -0.0015
17740TIP3   OH274710   2.631   3.340  10.527 -0.1393  0.4062 -0.8948
17740TIP3    H174711   2.649   3.267  10.468 -2.1450 -0.4498 -0.4755
17740TIP3    H274712   2.717   3.366  10.560  0.6177 -1.5278 -1.3183
17741TIP3   OH274713   0.716   5.489   2.399 -0.1867  0.7595 -0.3834
17741TIP3    H174714   0.692   5.568   2.351  0.6638  1.7224  0.7569
17741TIP3    H274715   0.697   5.417   2.338  0.3548  1.9203 -1.9508
17742TIP3   OH274716   4.549   4.107   2.129 -0.2656 -0.2140  0.0081
17742TIP3    H174717   4.607   4.082   2.058 -2.6531 -3.2350 -0.9900
17742TIP3    H274718   4.597   4.084   2.209  1.7004  1.5394 -0.6402
17743TIP3   OH274719   4.519   0.398   2.960 -0.3978 -0.1458 -0.2171
17743TIP3    H174720   4.524   0.421   3.053  1.6420 -0.4836 -0.2140
17743TIP3    H274721   4.605   0.422   2.925 -0.8415 -0.8507 -1.8189
17744TIP3   OH274722   6.775   5.659  17.024 -0.8037  0.2538 -0.4727
17744TIP3    H174723   6.762   5.662  16.930 -2.2082  1.6100 -0.2463
17744TIP3    H274724   6.734   5.577  17.052  0.4354 -0.6127 -1.1360
17745TIP3   OH274725   6.143   2.375  12.656  0.3413  0.6180  0.7297
17745TIP3    H174726   6.131   2.303  12.718 -0.4831 -0.2659 -0.4263
17745TIP3    H274727   6.085   2.353  12.583  1.7603  1.3422 -0.6253
17746TIP3   OH274728   1.282   4.805   6.043 -0.0109  0.2053  0.1936
17746TIP3    H174729   1.261   4.795   5.951  0.2814  0.2812  0.1167
17746TIP3    H274730   1.377   4.820   6.045 -0.1511  1.1652  0.4313
17747TIP3   OH274731   0.333   1.284  14.309 -0.1094  0.4219 -0.5831
17747TIP3    H174732   0.370   1.331  14.384 -0.4927 -1.7182  0.9777
17747TIP3    H274733   0.240   1.310  14.309  0.3368  2.1404 -1.6945
17748TIP3   OH274734   5.551   2.752  12.158 -0.0329 -0.1875  0.1289
17748TIP3    H174735   5.484   2.689  12.130 -1.3007  1.3139 -0.3236
17748TIP3    H274736   5.625   2.737  12.100 -0.3409 -1.2126 -0.0038
17749TIP3   OH274737   3.611   2.179   1.474  0.2129 -0.2705  0.6049
17749TIP3    H174738   3.616   2.270   1.502  1.2901 -0.2202  0.2784
17749TIP3    H274739   3.651   2.179   1.386 -1.9568 -0.6287 -0.4096
17750TIP3   OH274740   6.617   6.708   5.288  0.0647 -0.2504 -0.6012
17750TIP3    H174741   6.688   6.771   5.276  1.0391 -1.1625  0.1888
17750TIP3    H274742   6.600   6.674   5.200  1.1105 -0.5373 -0.6995
17751TIP3   OH274743   4.144   1.348  16.483  0.2809  0.0114 -1.1968
17751TIP3    H174744   4.219   1.323  16.429  1.0601  0.5428 -0.3777
17751TIP3    H274745   4.178   1.417  16.539 -0.4533 -0.7319  0.1670
17752TIP3   OH274746   5.969   6.452   3.660 -0.2766  0.3865  0.4240
17752TIP3    H174747   6.048   6.402   3.679  0.5635  1.5179  0.0298
17752TIP3    H274748   5.904   6.420   3.723  0.1115 -1.4372 -0.0749
17753TIP3   OH274749   1.509   4.891   3.907 -0.1955  0.5830  0.3221
17753TIP3    H174750   1.485   4.984   3.910 -0.8527  0.4090  0.6856
17753TIP3    H274751   1.467   4.858   3.828  0.4586  0.7052 -0.0792
17754TIP3   OH274752   4.573   6.156   1.862 -0.0679 -0.2005  0.7336
17754TIP3    H174753   4.507   6.218   1.832 -0.1062 -0.5207  0.1460
17754TIP3    H274754   4.538   6.070   1.840  0.2652 -0.4020  0.9772
17755TIP3   OH274755   3.688   1.387  16.555  0.5915 -0.1384 -0.1218
17755TIP3    H174756   3.691   1.307  16.502 -1.3224  0.4101 -1.1068
17755TIP3    H274757   3.712   1.457  16.495  2.4584  0.0346  0.7932
17756TIP3   OH274758   6.454   5.704   4.824  0.4501  0.5542  0.0733
17756TIP3    H174759   6.476   5.750   4.905  1.4242 -0.4475  0.3839
17756TIP3    H274760   6.536   5.699   4.776  0.3262 -0.6939 -0.0306
17757TIP3   OH274761   2.421   3.627   1.929  0.1802 -0.3844  0.2824
17757TIP3    H174762   2.508   3.645   1.893  0.0917  0.9431  0.7244
17757TIP3    H274763   2.436   3.556   1.992  0.2271 -3.2571 -2.8018
17758TIP3   OH274764   1.277   5.510  11.797 -0.2102  0.0771  0.0773
17758TIP3    H174765   1.296   5.535  11.707 -0.3035 -1.2319 -0.3192
17758TIP3    H274766   1.330   5.569  11.850  1.0600 -0.1728 -0.8849
17759TIP3   OH274767   2.463   4.419   3.869  0.1949  0.3814 -0.2557
17759TIP3    H174768   2.432   4.484   3.932 -1.3743  0.6932 -1.3482
17759TIP3    H274769   2.429   4.447   3.785  1.0717 -0.8325 -1.0456
17760TIP3   OH274770   0.483   0.158   0.966  0.2430  0.0935  0.2727
17760TIP3    H174771   0.564   0.108   0.957 -0.4747 -0.8447 -1.2577
17760TIP3    H274772   0.447   0.129   1.050 -0.6199 -2.7095 -0.9974
17761TIP3   OH274773   3.960   3.746   5.063 -0.4520  0.3146 -0.3872
17761TIP3    H174774   3.919   3.832   5.052 -0.5289  0.4597  0.9579
17761TIP3    H274775   4.002   3.750   5.149  0.7902 -0.4889 -0.9453
17762TIP3   OH274776   0.907   6.302  15.424 -0.0096  0.1827 -0.1831
17762TIP3    H174777   0.983   6.299  15.483  0.4732 -2.0339 -0.8721
17762TIP3    H274778   0.939   6.348  15.347  0.5615 -0.4512 -0.3340
17763TIP3   OH274779   4.443   0.626  17.236 -0.7446 -0.1890 -0.0649
17763TIP3    H174780   4.537   0.642  17.239 -0.8206  0.1451  0.5637
17763TIP3    H274781   4.431   0.570  17.160 -0.1859  0.7819 -0.8842
17764TIP3   OH274782   4.203   4.225   1.142 -0.3617  0.6616 -0.7589
17764TIP3    H174783   4.285   4.217   1.190 -0.4431 -1.8332 -0.9631
17764TIP3    H274784   4.228   4.264   1.058  0.4228  1.1158 -0.3126
17765TIP3   OH274785   3.697   4.452  11.714  0.6895 -0.8992 -0.0819
17765TIP3    H174786   3.676   4.467  11.806  1.2648  0.8534 -0.2156
17765TIP3    H274787   3.614   4.465  11.668  0.2735 -2.3663  0.2395
17766TIP3   OH274788   5.607   4.049  16.113 -0.0943 -0.1785 -0.0820
17766TIP3    H174789   5.553   3.970  16.102  1.1491 -1.2790  1.5380
17766TIP3    H274790   5.586   4.081  16.201  0.5243  0.4513 -0.1596
17767TIP3   OH274791   6.551   2.150  16.562 -0.1348  0.0818 -0.0440
17767TIP3    H174792   6.477   2.145  16.623 -0.4489  1.7835 -0.2738
17767TIP3    H274793   6.510   2.149  16.476  0.1907 -0.3303 -0.1921
17768TIP3   OH274794   6.514   5.326  12.212 -0.0385 -0.1143 -0.8311
17768TIP3    H174795   6.544   5.393  12.150  1.6697 -0.0312  0.0588
17768TIP3    H274796   6.491   5.251  12.157 -1.0299  0.8504 -1.7597
17769TIP3   OH274797   2.968   4.522  13.534 -0.1550 -0.0933  0.8180
17769TIP3    H174798   3.015   4.570  13.603  3.0365  1.8836 -2.5413
17769TIP3    H274799   2.876   4.546  13.547  0.6065  1.8333  3.1781
17770TIP3   OH274800   2.286   4.452   5.701  0.0325  0.4570 -0.0402
17770TIP3    H174801   2.340   4.510   5.648  1.0260 -0.1319  0.3242
17770TIP3    H274802   2.319   4.463   5.790  0.0382 -0.4585  0.0715
17771TIP3   OH274803   3.974   4.175  16.926  0.0141  0.2364 -0.1749
17771TIP3    H174804   3.916   4.099  16.921 -0.0556  0.2843 -0.1047
17771TIP3    H274805   3.916   4.248  16.951  0.2141  0.1560  0.5490
17772TIP3   OH274806   1.025   0.294  10.155 -0.4538 -0.5745 -0.2723
17772TIP3    H174807   1.025   0.294  10.251  1.0963  0.2243 -0.2508
17772TIP3    H274808   0.933   0.304  10.132 -0.8951 -1.1926  1.1307
17773TIP3   OH274809   1.420   3.561   3.081 -0.0039 -0.1635 -0.1334
17773TIP3    H174810   1.385   3.585   2.995  0.9230  1.3837 -0.1068
17773TIP3    H274811   1.447   3.645   3.120  0.9150 -1.0019  1.0765
17774TIP3   OH274812   0.157   0.217   3.802  0.2607  0.2279  0.1580
17774TIP3    H174813   0.076   0.224   3.851 -0.1045 -0.4187 -0.3476
17774TIP3    H274814   0.210   0.291   3.833 -0.8481  1.1748 -0.1512
17775TIP3   OH274815   0.819   0.479   5.481  0.2562 -0.0622  0.1429
17775TIP3    H174816   0.731   0.502   5.510 -0.1451  0.9839 -1.7997
17775TIP3    H274817   0.875   0.549   5.516 -0.1238  0.8286 -0.9890
17776TIP3   OH274818   4.577   2.593  12.567  0.5708 -0.1122  0.4539
17776TIP3    H174819   4.562   2.664  12.629 -0.9001 -1.9209  2.2416
17776TIP3    H274820   4.641   2.628  12.505  0.5642  2.4274  1.8195
17777TIP3   OH274821   4.983   3.781  16.264  0.1616 -0.6729  0.2578
17777TIP3    H174822   5.030   3.766  16.182 -0.2587  0.3050 -0.1777
17777TIP3    H274823   4.891   3.764  16.242 -0.1660  1.2294  0.0719
17778TIP3   OH274824   0.842   4.164  14.646  0.0214  0.2808  0.0534
17778TIP3    H174825   0.888   4.214  14.713 -0.6687  0.2797  0.5375
17778TIP3    H274826   0.911   4.130  14.589  0.6730 -0.6348  1.3828
17779TIP3   OH274827   2.530   1.772  11.756 -0.4432 -0.3000  0.5951
17779TIP3    H174828   2.597   1.776  11.824 -0.4857  1.6140  0.5733
17779TIP3    H274829   2.461   1.831  11.787 -0.3121  0.8897 -1.2276
17780TIP3   OH274830   6.369   6.487  14.273 -0.1014  0.1792 -0.1206
17780TIP3    H174831   6.416   6.570  14.285  0.3718  0.0249 -0.8496
17780TIP3    H274832   6.437   6.421  14.266 -0.4770 -0.2665  0.3498
17781TIP3   OH274833   3.278   3.408  15.502 -0.4091 -1.2335 -0.5072
17781TIP3    H174834   3.184   3.415  15.482 -0.5199 -0.0715  0.3069
17781TIP3    H274835   3.282   3.407  15.597  0.5673  1.9325 -0.4552
17782TIP3   OH274836   4.960   3.366  15.149 -0.0768  0.3042  0.4667
17782TIP3    H174837   5.009   3.426  15.092  0.1733  0.6927  1.0810
17782TIP3    H274838   4.875   3.408  15.160 -0.2218  0.0950  0.1675
17783TIP3   OH274839   3.783   6.307  14.973  0.1949 -0.4708  0.6741
17783TIP3    H174840   3.777   6.278  14.881 -2.1588  2.1452 -0.0667
17783TIP3    H274841   3.693   6.304  15.005  0.6903  0.8079  2.2264
17784TIP3   OH274842   5.822   1.124   3.615  0.1316 -0.1332 -0.2504
17784TIP3    H174843   5.878   1.191   3.576 -0.3859  0.0115 -0.7535
17784TIP3    H274844   5.826   1.050   3.553 -0.4044 -0.0402 -0.3981
17785TIP3   OH274845   5.956   0.513  15.737  0.0292  0.0410 -0.7310
17785TIP3    H174846   6.019   0.452  15.697 -1.1363 -1.2628 -0.6175
17785TIP3    H274847   5.871   0.472  15.722 -0.7300  1.4033 -0.1912
17786TIP3   OH274848   1.799   0.216  13.184  0.7232 -0.2510  0.4921
17786TIP3    H174849   1.733   0.214  13.115  1.7592 -1.8793 -0.4704
17786TIP3    H274850   1.763   0.161  13.253 -0.2423  1.2551  1.2237
17787TIP3   OH274851   5.992   5.040  12.407  0.1603 -0.3022 -0.9408
17787TIP3    H174852   6.047   5.083  12.473  0.1062 -1.5781 -0.0509
17787TIP3    H274853   5.964   5.111  12.350 -0.5109  0.9878  0.9298
17788TIP3   OH274854   6.756   0.874  17.200 -0.2886  0.4261 -0.2011
17788TIP3    H174855   6.748   0.895  17.293 -1.4844  0.1023 -0.2248
17788TIP3    H274856   6.851   0.872  17.183  0.1478 -4.2131  2.0657
17789TIP3   OH274857   2.318   2.528   4.206  0.7226 -0.8534 -0.3891
17789TIP3    H174858   2.408   2.528   4.174  0.4635 -0.9542 -1.1211
17789TIP3    H274859   2.289   2.438   4.197  1.5873 -1.5060  2.8461
17790TIP3   OH274860   5.830   2.947  14.691  0.0163 -0.1079  0.2251
17790TIP3    H174861   5.749   2.905  14.719  0.2783  0.2298  1.5011
17790TIP3    H274862   5.813   3.041  14.698  1.2045 -0.0294  2.5719
17791TIP3   OH274863   4.544   0.081   3.759  0.5726 -0.6719  0.5102
17791TIP3    H174864   4.476   0.125   3.811  0.9818  0.4238  0.1411
17791TIP3    H274865   4.529  -0.012   3.774 -0.2136 -0.4076  1.4485
17792TIP3   OH274866   4.323   2.753  11.726 -0.1201  1.0250 -0.4553
17792TIP3    H174867   4.378   2.682  11.760  0.2663  1.6838  0.3111
17792TIP3    H274868   4.330   2.745  11.631 -1.3803 -0.9743 -0.4099
17793TIP3   OH274869   6.692   4.022   1.291  0.8152  0.4844 -0.3505
17793TIP3    H174870   6.748   3.945   1.302 -0.0764 -0.1454 -0.1382
17793TIP3    H274871   6.623   3.993   1.232  0.3245  1.0421 -0.0530
17794TIP3   OH274872   1.073   2.188   0.183  0.3317  0.4136  0.0428
17794TIP3    H174873   1.055   2.149   0.268  0.1398  1.4035  0.4596
17794TIP3    H274874   1.166   2.170   0.168  0.0465 -0.9723 -0.1793
17795TIP3   OH274875   1.971   4.109  12.633 -0.3962 -0.2090  0.0655
17795TIP3    H174876   1.901   4.145  12.687 -0.0037 -1.3692  1.3693
17795TIP3    H274877   2.047   4.163  12.654 -0.3218 -0.4575  0.4382
17796TIP3   OH274878   0.896   6.414   5.569 -0.0272 -0.5857 -0.7280
17796TIP3    H174879   0.904   6.321   5.590 -1.2011 -0.1384  1.9242
17796TIP3    H274880   0.981   6.451   5.593  0.3964 -0.9367 -1.6662
17797TIP3   OH274881   5.662   5.190   1.410 -0.1002 -0.0434  0.3025
17797TIP3    H174882   5.619   5.273   1.433  0.4499  0.5912 -0.9217
17797TIP3    H274883   5.754   5.212   1.403  0.0299 -0.7355 -0.1887
17798TIP3   OH274884   4.181   6.101  16.042 -0.1991  0.4180  0.2204
17798TIP3    H174885   4.135   6.177  16.006  2.2636  1.4820 -0.7695
17798TIP3    H274886   4.124   6.027  16.023 -0.9402  1.5425 -2.0807
17799TIP3   OH274887   2.966   1.388   0.137 -0.2317 -0.2539  0.1639
17799TIP3    H174888   2.980   1.404   0.231 -0.0634 -1.1774  0.2971
17799TIP3    H274889   3.040   1.334   0.110  0.0701  0.5520 -0.6581
17800TIP3   OH274890   1.506   0.959   4.813  0.3162  0.7102 -0.4300
17800TIP3    H174891   1.532   0.899   4.743 -1.1718 -0.3923 -0.0589
17800TIP3    H274892   1.548   1.042   4.789 -1.9646  1.0093 -3.9399
17801TIP3   OH274893   1.623   6.180  11.566  0.1894 -0.0693  0.8427
17801TIP3    H174894   1.546   6.125  11.547 -0.0480 -0.6498  3.2931
17801TIP3    H274895   1.698   6.122  11.552  0.2522  0.6203 -1.9743
17802TIP3   OH274896   4.634   4.049   5.465 -0.2043  0.5618 -0.3883
17802TIP3    H174897   4.658   4.135   5.499 -0.2146 -0.5424  2.5953
17802TIP3    H274898   4.714   3.997   5.472 -0.7442 -0.2483 -0.1757
17803TIP3   OH274899   5.335   4.564   6.496  0.2694  0.5175  0.1698
17803TIP3    H174900   5.388   4.544   6.573 -1.6127  0.9560  1.6402
17803TIP3    H274901   5.383   4.632   6.450  2.6644 -1.5280 -0.4275
17804TIP3   OH274902   4.770   5.640   4.395 -0.4326  0.2920  0.1748
17804TIP3    H174903   4.793   5.682   4.477  0.3691 -1.3503  0.8210
17804TIP3    H274904   4.852   5.602   4.364 -0.5239  1.6893 -1.8705
17805TIP3   OH274905   5.029   0.524  15.517 -0.3055  0.3723 -0.0562
17805TIP3    H174906   5.111   0.493  15.479 -1.2211 -1.5542 -0.5475
17805TIP3    H274907   5.044   0.616  15.536  1.5752  0.3254 -1.2269
17806TIP3   OH274908   5.211   2.125  12.914 -0.1601 -0.7443  0.1662
17806TIP3    H174909   5.129   2.109  12.960 -0.1908 -2.2058 -0.3718
17806TIP3    H274910   5.261   2.044  12.926  1.4750  0.3576  1.0336
17807TIP3   OH274911   0.069   4.398   1.404  0.2997  0.4035  0.0679
17807TIP3    H174912   0.110   4.379   1.320  0.3419  3.7960 -0.7596
17807TIP3    H274913  -0.025   4.384   1.388  0.5430 -1.7192  0.3178
17808TIP3   OH274914   6.808   5.338  13.357  0.5343  0.0619 -0.2389
17808TIP3    H174915   6.834   5.429  13.371 -1.1809  0.8609 -1.9810
17808TIP3    H274916   6.772   5.310  13.441  0.5957  1.1700  0.1590
17809TIP3   OH274917   6.224   0.564   0.499 -0.0687  0.6064  0.5255
17809TIP3    H174918   6.163   0.541   0.429  1.0182  0.1581 -0.2874
17809TIP3    H274919   6.267   0.482   0.521  1.7990  1.2998 -0.4162
17810TIP3   OH274920   3.240   5.061   2.593 -0.1951  0.0727  0.3544
17810TIP3    H174921   3.214   4.969   2.594 -0.3105 -0.0592 -4.1459
17810TIP3    H274922   3.170   5.106   2.641 -1.8305 -1.8363 -0.1489
17811TIP3   OH274923   5.410   5.575  13.243 -0.0550 -0.3173 -0.0195
17811TIP3    H174924   5.320   5.556  13.270 -0.5733 -0.1804 -1.6160
17811TIP3    H274925   5.462   5.508  13.287 -0.8062  0.1928  1.7035
17812TIP3   OH274926   2.562   3.349  15.752 -0.0258  0.1445  0.5528
17812TIP3    H174927   2.505   3.282  15.789  0.9926 -1.6964 -1.0967
17812TIP3    H274928   2.650   3.325  15.783  0.6364 -0.5671 -1.7662
17813TIP3   OH274929   0.259   4.268   3.152 -0.2375  0.2297 -0.1529
17813TIP3    H174930   0.223   4.343   3.199  0.5214 -0.6652  1.9106
17813TIP3    H274931   0.353   4.270   3.172  0.0008 -0.5484 -1.1335
17814TIP3   OH274932   2.216   6.429  15.290 -0.8531 -0.1468 -0.2605
17814TIP3    H174933   2.156   6.496  15.258 -2.0554 -1.0713  0.0166
17814TIP3    H274934   2.232   6.454  15.381 -0.9532  0.0030 -0.2832
17815TIP3   OH274935   1.363   6.589  12.958  0.2124 -0.2326  0.0464
17815TIP3    H174936   1.447   6.632  12.941  1.3521 -1.7245  1.7521
17815TIP3    H274937   1.374   6.501  12.922 -0.9786 -0.1366 -0.5750
17816TIP3   OH274938   3.066   5.634   3.646 -0.1491  0.0194 -0.0840
17816TIP3    H174939   3.009   5.593   3.711  0.7968  0.0267  0.7605
17816TIP3    H274940   3.020   5.714   3.620 -0.9315 -0.4208 -0.0693
17817TIP3   OH274941   6.300   4.185   5.600  0.5040 -0.3526 -0.0512
17817TIP3    H174942   6.210   4.157   5.583  0.5452 -0.5442  0.0535
17817TIP3    H274943   6.354   4.118   5.559  0.6007  0.3084 -1.0314
17818TIP3   OH274944   4.099   6.111   0.430  0.6595 -0.0714 -0.2641
17818TIP3    H174945   4.124   6.019   0.423  1.2752  0.1173 -0.6049
17818TIP3    H274946   4.119   6.149   0.345 -2.1761 -0.2240 -1.0626
17819TIP3   OH274947   4.604   3.402   5.123  0.4367 -0.6641 -0.3289
17819TIP3    H174948   4.670   3.333   5.119 -0.9468 -2.0695  0.9315
17819TIP3    H274949   4.524   3.361   5.093 -0.2110  0.6333 -0.4068
17820TIP3   OH274950   5.702   6.467  11.739 -0.7645  0.0519 -0.2999
17820TIP3    H174951   5.659   6.516  11.809 -1.9075 -0.2023 -0.8133
17820TIP3    H274952   5.720   6.532  11.672  1.1080  0.4627  0.5584
17821TIP3   OH274953   6.474   1.111   2.726  0.1219 -0.1195  0.2564
17821TIP3    H174954   6.459   1.203   2.747 -0.3573 -0.5076  1.6684
17821TIP3    H274955   6.503   1.072   2.809  2.6598 -0.7464 -0.8899
17822TIP3   OH274956   4.528   2.433  13.248  0.0831  0.1667  0.2916
17822TIP3    H174957   4.480   2.499  13.198 -0.0408  0.7670  1.1822
17822TIP3    H274958   4.620   2.459  13.240  0.1902 -0.4895 -0.6976
17823TIP3   OH274959   5.158   1.105  13.298  0.0748 -0.1297  0.0142
17823TIP3    H174960   5.190   1.046  13.366  0.1011  0.4787  0.5368
17823TIP3    H274961   5.081   1.147  13.336 -0.7990 -0.8753 -0.8919
17824TIP3   OH274962   4.539   6.426   3.964  0.1870  0.3443 -0.2964
17824TIP3    H174963   4.476   6.356   3.947 -1.5608  1.4435  1.4292
17824TIP3    H274964   4.504   6.471   4.041  2.0151  2.2637 -0.5524
17825TIP3   OH274965   1.893   1.433  16.877  0.2893  0.1900  0.2700
17825TIP3    H174966   1.896   1.342  16.848  3.8163  0.2278  0.3164
17825TIP3    H274967   1.847   1.430  16.961  0.4231 -1.5330  0.3009
17826TIP3   OH274968   6.781   4.013  12.728  0.0838  0.2118 -0.0681
17826TIP3    H174969   6.805   4.093  12.774 -1.6104  0.8382 -0.2243
17826TIP3    H274970   6.855   3.995  12.670  0.4163  1.7378 -0.1322
17827TIP3   OH274971   1.754   4.159  16.682 -0.3574 -0.2680 -0.2813
17827TIP3    H174972   1.697   4.160  16.605  0.0452  0.1302 -0.5818
17827TIP3    H274973   1.695   4.160  16.756 -0.8450 -3.9241 -0.5437
17828TIP3   OH274974   3.906   5.927  10.819  0.3467 -0.0254 -0.0603
17828TIP3    H174975   3.867   5.858  10.765  0.0025  0.2191 -0.1339
17828TIP3    H274976   3.979   5.959  10.767 -1.1708  1.5536 -1.3061
17829TIP3   OH274977   0.546   3.539   2.659 -0.2391 -0.9355  0.3615
17829TIP3    H174978   0.466   3.583   2.687 -0.4921 -2.0070  1.3548
17829TIP3    H274979   0.615   3.603   2.674 -0.5811 -0.9201  1.9493
17830TIP3   OH274980   5.925   3.252  13.547 -0.2091 -0.0894  0.1228
17830TIP3    H174981   6.015   3.280  13.561 -0.4139 -0.1710  1.5887
17830TIP3    H274982   5.896   3.302  13.470  1.6926 -1.4829 -1.5697
17831TIP3   OH274983   6.405   4.034   1.014  0.1134 -0.4984 -0.4928
17831TIP3    H174984   6.330   4.093   1.020 -0.7734 -1.5295 -1.2384
17831TIP3    H274985   6.458   4.070   0.943  0.4934  0.4108  0.2447
17832TIP3   OH274986   0.942   3.204  15.903  0.4813 -0.4054  0.1469
17832TIP3    H174987   0.865   3.188  15.957 -1.2136 -0.3113 -2.2016
17832TIP3    H274988   0.982   3.282  15.941 -1.0226  0.0083  0.9041
17833TIP3   OH274989   6.187   2.637  16.112 -0.2343  0.0457  0.6924
17833TIP3    H174990   6.213   2.564  16.055  0.0906  0.8625 -0.2108
17833TIP3    H274991   6.092   2.637  16.110 -0.2091  1.4159 -1.5856
17834TIP3   OH274992   1.579   1.005   3.927  0.4986  0.2749 -0.5110
17834TIP3    H174993   1.627   0.929   3.896 -2.6948 -1.8379 -0.5528
17834TIP3    H274994   1.559   0.986   4.019 -0.3500  1.0438 -0.5243
17835TIP3   OH274995   2.143   2.058  13.608  0.5641 -0.4813  0.5482
17835TIP3    H174996   2.131   2.150  13.586  0.3594 -0.7466 -0.4681
17835TIP3    H274997   2.127   2.011  13.526 -0.2717 -1.4881  1.2675
17836TIP3   OH274998   1.026   6.073  13.518  0.2868 -0.5452  0.2520
17836TIP3    H174999   0.989   6.156  13.489  2.0024  0.1112 -0.1015
17836TIP3    H275000   1.098   6.097  13.576 -0.3764 -1.8187  1.6608
17837TIP3   OH275001   0.874   5.207   0.519  0.2940  0.2830 -0.1823
17837TIP3    H175002   0.805   5.165   0.468 -0.1269  0.6333  0.0980
17837TIP3    H275003   0.894   5.144   0.589 -0.5426  0.6688  0.4122
17838TIP3   OH275004   5.343   5.055  12.806 -0.0851  0.8919  0.3167
17838TIP3    H175005   5.373   5.012  12.886 -0.8227  0.2680  0.2697
17838TIP3    H275006   5.405   5.126  12.792 -0.3686  1.4775  1.8604
17839TIP3   OH275007   1.986   0.741  13.438 -0.2375  0.3460  0.3877
17839TIP3    H175008   1.926   0.771  13.506  0.0086  1.3580  0.1700
17839TIP3    H275009   1.943   0.665  13.399 -0.6894  0.1771  1.2192
17840TIP3   OH275010   5.813   0.708   0.072  0.8901 -0.5543  0.0495
17840TIP3    H175011   5.855   0.781   0.117  0.3826  0.4833 -1.1221
17840TIP3    H275012   5.874   0.684   0.002  0.8988 -1.0068  0.2165
17841TIP3   OH275013   6.537   1.035   2.180  0.0825 -0.1544 -0.1930
17841TIP3    H175014   6.605   1.097   2.153  0.5497 -0.3657  0.4800
17841TIP3    H275015   6.522   1.056   2.272  0.5211 -1.2975  0.1422
17842TIP3   OH275016   4.964   2.933   1.429  0.4070  0.4305 -0.2688
17842TIP3    H175017   4.882   2.905   1.388  0.9011 -0.3641 -0.7373
17842TIP3    H275018   4.954   3.027   1.440 -1.1182  0.1534  0.9511
17843TIP3   OH275019   6.299   2.091  16.607 -0.0131 -0.0186 -0.3354
17843TIP3    H175020   6.219   2.139  16.630  0.2652  0.2047  0.1757
17843TIP3    H275021   6.276   2.042  16.528 -0.2483  1.1281 -0.9969
17844TIP3   OH275022   0.262   4.008  14.487  0.0209  0.0230  0.2335
17844TIP3    H175023   0.280   4.037  14.577  0.1745  0.8454 -0.0565
17844TIP3    H275024   0.299   3.919  14.483  0.7779  0.3016  0.7317
17845TIP3   OH275025   3.449   6.129  13.816  0.3408 -0.0056 -0.2629
17845TIP3    H175026   3.392   6.069  13.768 -1.3921  1.7159 -0.4335
17845TIP3    H275027   3.516   6.155  13.752  0.7077 -1.2109 -0.3795
17846TIP3   OH275028   2.159   1.318   4.446  0.4210  0.0434 -0.3669
17846TIP3    H175029   2.179   1.411   4.444 -0.0363  0.2217  1.7559
17846TIP3    H275030   2.233   1.278   4.491  0.6836 -0.6406 -1.3969
17847TIP3   OH275031   6.220   3.412  16.522 -0.3769 -0.0354 -0.6236
17847TIP3    H175032   6.132   3.427  16.555 -1.0619 -1.3263 -1.8154
17847TIP3    H275033   6.207   3.371  16.437  1.3766 -0.4888 -0.6895
17848TIP3   OH275034   6.170   1.315  14.301  0.0132  0.3529 -0.2802
17848TIP3    H175035   6.169   1.291  14.208 -0.3329  1.5094 -0.5812
17848TIP3    H275036   6.207   1.403  14.302 -0.5843  0.5911  0.6286
17849TIP3   OH275037   6.105   4.878   2.245 -0.2799 -0.1354 -0.2652
17849TIP3    H175038   6.127   4.900   2.154  0.7236  0.5492  0.1321
17849TIP3    H275039   6.093   4.783   2.244 -0.5892 -0.0982 -1.1747
17850TIP3   OH275040   1.048   4.498   1.075 -0.6259  0.2959  0.4688
17850TIP3    H175041   1.143   4.483   1.071 -0.6821 -0.4267  1.5844
17850TIP3    H275042   1.019   4.490   0.984  0.1375 -1.2182  0.3330
17851TIP3   OH275043   5.556   4.907   0.789 -0.1021 -0.1768  0.2476
17851TIP3    H175044   5.591   4.929   0.876  1.0478  1.7193 -0.6647
17851TIP3    H275045   5.631   4.916   0.731 -1.0411 -0.7522 -1.0662
17852TIP3   OH275046   2.658   0.273   2.272 -0.0516 -0.4652  0.5473
17852TIP3    H175047   2.564   0.273   2.291  0.1528 -0.0096  1.5970
17852TIP3    H275048   2.663   0.271   2.177 -1.1210 -1.7135  0.5071
17853TIP3   OH275049   5.761   2.644   4.495  0.2569  0.2517  0.0652
17853TIP3    H175050   5.755   2.700   4.572  0.3944 -0.6917  0.7730
17853TIP3    H275051   5.798   2.700   4.427  1.6550  0.6564  1.1337
17854TIP3   OH275052   6.605   0.822   4.407  0.8451  0.2518  0.7912
17854TIP3    H175053   6.611   0.854   4.317  0.4137  0.5879  0.8823
17854TIP3    H275054   6.605   0.901   4.460 -2.5339  0.2141  0.9175
17855TIP3   OH275055   5.672   3.381  12.626  0.5004 -0.4134  0.1849
17855TIP3    H175056   5.691   3.384  12.532  0.6918 -1.8055  0.1641
17855TIP3    H275057   5.717   3.457  12.662 -3.0379  2.6001 -1.4187
17856TIP3   OH275058   6.719   0.426   0.452 -0.1580  0.1068 -0.2952
17856TIP3    H175059   6.761   0.501   0.410 -2.2671  0.4561 -1.8717
17856TIP3    H275060   6.667   0.465   0.523 -0.6935  0.0509 -0.6594
17857TIP3   OH275061   2.746   2.716  13.672  0.5143 -0.4804 -0.0801
17857TIP3    H175062   2.820   2.693  13.727  0.1950 -1.7559 -0.1471
17857TIP3    H275063   2.721   2.804  13.698  1.4693 -0.4115  0.5844
17858TIP3   OH275064   2.039   0.871   3.892  0.2231 -0.5728 -0.0351
17858TIP3    H175065   2.077   0.787   3.917  0.2150 -0.6977 -0.4484
17858TIP3    H275066   1.986   0.897   3.967  1.5871 -0.1194  0.8019
17859TIP3   OH275067   3.001   5.424   0.260 -0.4487 -0.0904 -0.2419
17859TIP3    H175068   3.094   5.443   0.258 -0.3494 -0.2756  1.4479
17859TIP3    H275069   2.986   5.368   0.184  1.1637 -1.5020  0.4525
17860TIP3   OH275070   6.542   5.895   4.174  0.4244 -0.1651 -0.2270
17860TIP3    H175071   6.544   5.800   4.182  2.8897  0.0197  1.9874
17860TIP3    H275072   6.621   5.916   4.125 -0.2669  0.7665 -0.9714
17861TIP3   OH275073   1.892   4.235   0.090  0.1037  0.4641  0.2922
17861TIP3    H175074   1.934   4.297   0.030  0.1756 -0.3483 -0.4933
17861TIP3    H275075   1.804   4.270   0.104  0.1952  0.8243 -0.0306
17862TIP3   OH275076   6.515   6.165   4.471 -0.0732 -0.2721  0.1386
17862TIP3    H175077   6.429   6.194   4.501  0.3635 -0.8831  2.0597
17862TIP3    H275078   6.504   6.149   4.377 -1.2300  2.6384 -0.2687
17863TIP3   OH275079   2.580   2.454   4.165  0.2001 -0.0445 -0.0826
17863TIP3    H175080   2.663   2.495   4.190  1.0466 -0.9535 -1.3619
17863TIP3    H275081   2.604   2.366   4.137 -1.3670 -0.7643  0.7607
17864TIP3   OH275082   0.188   0.862   4.465 -0.5912 -0.3320  0.6058
17864TIP3    H175083   0.198   0.788   4.405 -1.3239 -0.4539  0.6342
17864TIP3    H275084   0.175   0.938   4.408 -0.9129 -0.3921  0.5954
17865TIP3   OH275085   2.591   2.182  12.890  0.0470 -0.6431 -0.3307
17865TIP3    H175086   2.681   2.156  12.908  0.0765  0.3862  1.1743
17865TIP3    H275087   2.574   2.252  12.953 -1.2560  0.3312 -1.7354
17866TIP3   OH275088   1.804   5.196  12.348 -0.0461 -0.4419  0.2494
17866TIP3    H175089   1.718   5.169  12.380 -1.9442  2.4461 -2.1082
17866TIP3    H275090   1.829   5.270  12.403  0.0688 -0.1148 -0.2374
17867TIP3   OH275091   3.508   4.278  12.709 -0.2653  0.1280 -0.8587
17867TIP3    H175092   3.573   4.278  12.779 -1.9558  0.5497  0.7614
17867TIP3    H275093   3.512   4.366  12.672  0.4512 -0.0131 -1.1213
17868TIP3   OH275094   2.288   2.616   0.495  0.2273  0.7174 -0.0902
17868TIP3    H175095   2.306   2.615   0.401  1.9426  1.9897  0.1886
17868TIP3    H275096   2.284   2.709   0.518 -0.5624  0.4173  1.0174
17869TIP3   OH275097   0.540   4.944  10.806  0.4439 -0.4895  0.5157
17869TIP3    H175098   0.525   4.951  10.900 -1.3544 -2.0806  0.3803
17869TIP3    H275099   0.525   4.851  10.786  0.7607 -0.1689 -1.3435
17870TIP3   OH275100   2.821   1.043   1.797 -0.0437  0.0944  0.2616
17870TIP3    H175101   2.841   1.044   1.891 -0.8317 -0.4315  0.4349
17870TIP3    H275102   2.834   1.134   1.770  0.7279  0.1375  0.7671
17871TIP3   OH275103   3.341   1.324  13.521  0.0643 -0.2146 -0.3184
17871TIP3    H175104   3.319   1.314  13.428  1.0399  1.6651 -0.7668
17871TIP3    H275105   3.256   1.327  13.565 -0.3950 -2.7036 -0.9371
17872TIP3   OH275106   2.047   0.751  13.772 -0.5828  0.3038  0.7521
17872TIP3    H175107   1.988   0.715  13.838  0.4579 -1.0332  0.9799
17872TIP3    H275108   2.095   0.675  13.740  1.2423  1.4315  0.7937
17873TIP3   OH275109   0.828   6.765  15.048 -0.4174 -0.1046 -0.0188
17873TIP3    H175110   0.889   6.782  14.976  0.3812  1.7463  1.0599
17873TIP3    H275111   0.807   6.852  15.082 -0.2174 -0.9996  2.4559
17874TIP3   OH275112   6.469   0.242  16.884  0.1121 -0.3503 -0.6832
17874TIP3    H175113   6.531   0.283  16.944 -1.1212 -1.3676  1.3246
17874TIP3    H275114   6.490   0.149  16.888 -0.1333 -0.4591 -1.6985
17875TIP3   OH275115   4.028   4.719   5.782  0.1662  0.3086  0.4435
17875TIP3    H175116   4.004   4.650   5.844 -1.3777  1.1098  0.7724
17875TIP3    H275117   4.029   4.799   5.834 -0.2291  0.8561 -0.3713
17876TIP3   OH275118   3.556   5.036  15.986 -0.4545  0.2997  0.1635
17876TIP3    H175119   3.540   5.049  16.080 -0.3352 -0.2543  0.2660
17876TIP3    H275120   3.624   5.099  15.964  0.4164 -0.4178  0.7357
17877TIP3   OH275121   2.010   0.142   5.178  0.2010 -0.4661  0.6412
17877TIP3    H175122   2.012   0.137   5.082  1.2656 -1.3414  0.7100
17877TIP3    H275123   2.014   0.236   5.196 -0.3223 -0.2791 -0.1787
17878TIP3   OH275124   3.795   6.385   4.098  0.0615 -0.0382 -0.2910
17878TIP3    H175125   3.879   6.368   4.055  0.3279  1.0562 -0.2089
17878TIP3    H275126   3.729   6.356   4.035  0.4582  1.2666 -1.3113
17879TIP3   OH275127   6.315   5.934   1.132 -0.0915 -0.1459 -0.4644
17879TIP3    H175128   6.346   5.847   1.109  0.5765  0.4434 -1.8501
17879TIP3    H275129   6.287   5.972   1.049 -0.1108  1.0616  0.0845
17880TIP3   OH275130   3.775   5.304   6.354  0.6066  0.0893 -0.1642
17880TIP3    H175131   3.736   5.356   6.283 -0.7210  0.0242  0.4977
17880TIP3    H275132   3.849   5.259   6.313  1.1318  1.6854 -0.9950
17881TIP3   OH275133   5.300   2.642   2.965  0.8241  0.1001 -0.1866
17881TIP3    H175134   5.251   2.566   2.934 -0.5070  0.0819  1.8505
17881TIP3    H275135   5.389   2.627   2.934 -0.0086 -0.9016 -2.1770
17882TIP3   OH275136   4.484   5.294  12.196  0.2497 -0.5786 -0.1745
17882TIP3    H175137   4.399   5.266  12.164 -0.0498  0.7379 -0.5628
17882TIP3    H275138   4.546   5.232  12.157 -0.3879 -0.6903 -1.0336
17883TIP3   OH275139   5.327   5.294  15.667  0.0200 -0.4535  0.1205
17883TIP3    H175140   5.272   5.299  15.588  0.9814  1.9631 -0.4310
17883TIP3    H275141   5.406   5.248  15.637  1.2514  2.2385 -0.8834
17884TIP3   OH275142   4.721   1.158  11.423 -1.0059  0.6543  0.2355
17884TIP3    H175143   4.674   1.078  11.445  1.8485 -1.3500 -0.7804
17884TIP3    H275144   4.778   1.174  11.498 -0.6002  1.0267 -0.1518
17885TIP3   OH275145   6.718   4.658   6.036 -0.1524 -0.1838  0.5323
17885TIP3    H175146   6.756   4.642   5.950 -0.7339 -0.4630  0.3244
17885TIP3    H275147   6.747   4.747   6.059  2.1458 -1.0852  1.2078
17886TIP3   OH275148   1.964   4.907  14.445 -0.4508  0.2149 -0.0671
17886TIP3    H175149   2.038   4.941  14.395 -1.7463  4.5642  0.7805
17886TIP3    H275150   1.898   4.886  14.379  0.0054  0.2669 -0.5412
17887TIP3   OH275151   1.818   1.244  15.985  0.0050  0.2369  0.4198
17887TIP3    H175152   1.870   1.170  16.015  2.2550  1.0749 -1.3084
17887TIP3    H275153   1.876   1.319  15.992 -2.0882  1.8037  1.6575
17888TIP3   OH275154   5.100   0.697  15.785 -0.8423  0.5160  1.2279
17888TIP3    H175155   5.185   0.676  15.823 -0.5701 -0.3879  0.1299
17888TIP3    H275156   5.093   0.792  15.794  0.7470  0.7229  0.3664
17889TIP3   OH275157   4.619   5.953   1.575  0.3720 -0.8215  0.0189
17889TIP3    H175158   4.603   5.884   1.510  1.4595 -0.6959 -0.3830
17889TIP3    H275159   4.581   5.918   1.656  0.7073 -1.7992 -0.2361
17890TIP3   OH275160   3.870   2.392  15.280  0.2651 -0.1908  0.2877
17890TIP3    H175161   3.888   2.463  15.342 -0.1562  0.1727  0.0004
17890TIP3    H275162   3.851   2.317  15.336 -1.1545  0.3981  0.6184
17891TIP3   OH275163   5.645   4.728  14.942 -0.5231 -0.2955  0.0115
17891TIP3    H175164   5.697   4.778  15.005 -1.4742  1.1207 -0.3098
17891TIP3    H275165   5.685   4.748  14.858  0.6166 -2.0240  0.1117
17892TIP3   OH275166   6.155   6.167  13.187  0.2149  0.0587  0.0090
17892TIP3    H175167   6.231   6.132  13.233  0.4587  1.7799  0.9610
17892TIP3    H275168   6.191   6.211  13.110  0.3894  2.2909  1.3099
17893TIP3   OH275169   6.094   4.725   3.504  0.0286 -0.3229  0.3804
17893TIP3    H175170   6.173   4.741   3.452 -0.8799  1.3272 -0.5497
17893TIP3    H275171   6.055   4.647   3.465  0.6840 -0.5730  0.2144
17894TIP3   OH275172   5.201   4.779   2.258 -0.6938 -0.6776 -0.8505
17894TIP3    H175173   5.106   4.765   2.251 -0.9271  1.4624 -2.5159
17894TIP3    H275174   5.238   4.725   2.188 -0.9360  0.4871 -1.9119
17895TIP3   OH275175   1.522   4.201   3.568  0.0022 -0.1228 -0.1684
17895TIP3    H175176   1.563   4.270   3.620  0.7221 -0.9246  0.3248
17895TIP3    H275177   1.431   4.230   3.559  0.6328  1.6369 -1.2273
17896TIP3   OH275178   6.473   1.620  16.038 -0.0665 -0.6173 -0.1249
17896TIP3    H175179   6.566   1.599  16.029  0.5768  1.3225  1.6232
17896TIP3    H275180   6.442   1.629  15.948  1.5062 -0.9872 -0.7276
17897TIP3   OH275181   1.708   0.986  15.064  0.7984 -0.7331 -0.3779
17897TIP3    H175182   1.689   0.894  15.079  1.3687 -0.5558  1.5895
17897TIP3    H275183   1.712   1.024  15.152  0.9000  1.0944 -1.1547
17898TIP3   OH275184   4.340   3.590   1.742 -0.0106 -0.4158  0.7487
17898TIP3    H175185   4.339   3.521   1.676  0.2111  0.1674  0.1269
17898TIP3    H275186   4.359   3.545   1.825 -1.1760 -1.2686  0.5561
17899TIP3   OH275187   3.392   2.648  15.409 -0.4369 -0.0831  0.4398
17899TIP3    H175188   3.376   2.740  15.389 -0.0189 -0.5948 -2.4961
17899TIP3    H275189   3.310   2.604  15.389 -1.0975 -0.2077  3.2073
17900TIP3   OH275190   5.894   5.026   2.484  0.0595  0.4995  0.0575
17900TIP3    H175191   5.889   4.951   2.543  1.3897  0.9496  0.7643
17900TIP3    H275192   5.964   5.080   2.520 -0.5493  1.8391 -0.7269
17901TIP3   OH275193   2.307   2.905  13.187  0.1797  0.6618 -0.2867
17901TIP3    H175194   2.378   2.917  13.125  0.7041 -1.0860 -0.0550
17901TIP3    H275195   2.332   2.957  13.263  0.8915  0.5497 -0.4457
17902TIP3   OH275196   3.383   5.308   3.406  0.0996 -0.1394  0.6052
17902TIP3    H175197   3.430   5.356   3.339 -1.3646 -0.9170 -0.9964
17902TIP3    H275198   3.451   5.283   3.469  1.2393  1.8924  0.2197
17903TIP3   OH275199   3.685   3.287  12.248  0.0709 -0.3490  0.7455
17903TIP3    H175200   3.763   3.304  12.301  0.8501 -0.1018 -0.4601
17903TIP3    H275201   3.618   3.344  12.285 -0.3235 -2.5009  3.5088
17904TIP3   OH275202   3.064   5.279   6.785  0.2572  1.4913  0.5476
17904TIP3    H175203   3.035   5.308   6.698  0.1278 -1.9685 -0.6172
17904TIP3    H275204   2.984   5.248   6.827  0.9204 -0.5093  0.3863
17905TIP3   OH275205   4.249   4.591   6.196  0.5337  0.2293  0.2950
17905TIP3    H175206   4.324   4.633   6.238  0.0146 -0.7825  2.2636
17905TIP3    H275207   4.180   4.592   6.263 -0.2025 -1.7021 -0.4090
17906TIP3   OH275208   1.122   0.265  14.110 -0.2298  0.5220  0.5073
17906TIP3    H175209   1.071   0.320  14.169 -0.0943  0.5267  0.6178
17906TIP3    H275210   1.087   0.285  14.023 -1.2233 -0.3327  0.6976
17907TIP3   OH275211   2.991   4.971  16.244  0.0396  1.1235  0.2775
17907TIP3    H175212   3.043   4.984  16.165 -1.3611 -2.8773 -1.4961
17907TIP3    H275213   3.046   4.918  16.301 -0.5625  0.2603  0.0756
17908TIP3   OH275214   6.017   1.506   2.644 -0.3021  0.5128  0.2006
17908TIP3    H175215   5.997   1.587   2.692  0.8901  0.6885  0.4154
17908TIP3    H275216   6.057   1.536   2.563  2.1608  0.1119  1.2176
17909TIP3   OH275217   5.235   6.697  14.776 -0.0793  0.1104  0.0646
17909TIP3    H175218   5.277   6.701  14.862  0.8383  0.5508 -0.3926
17909TIP3    H275219   5.170   6.627  14.784  1.2333 -1.0884  0.5915
17910TIP3   OH275220   6.561   0.858   1.510  0.1241  0.4455  0.3168
17910TIP3    H175221   6.544   0.825   1.422  1.5149 -1.4925  0.7417
17910TIP3    H275222   6.476   0.888   1.541 -0.5927  0.1358 -1.2682
17911TIP3   OH275223   3.694   5.830   0.252  0.1722  0.3725  0.0369
17911TIP3    H175224   3.716   5.913   0.211  1.5677 -0.6256 -1.2545
17911TIP3    H275225   3.657   5.777   0.182  0.5613 -0.5922  0.5498
17912TIP3   OH275226   6.020   6.555   2.032  0.3255  0.4490 -0.5675
17912TIP3    H175227   6.078   6.507   2.092 -1.5002 -0.1694  0.7381
17912TIP3    H275228   5.965   6.487   1.993  2.1969  0.6907 -3.8264
17913TIP3   OH275229   4.991   1.449   0.042  0.4116 -0.2418  0.5199
17913TIP3    H175230   5.039   1.434   0.123 -0.0351  1.0751  1.0399
17913TIP3    H275231   4.971   1.542   0.043 -0.5663 -0.4269 -0.5731
17914TIP3   OH275232   5.274   1.967   5.711  0.0758 -0.1013 -0.4096
17914TIP3    H175233   5.324   2.040   5.674  1.4040 -0.7248  0.0997
17914TIP3    H275234   5.215   2.007   5.775  1.7023  0.4149  0.8003
17915TIP3   OH275235   6.711   4.711  12.338  0.0653  0.1409 -0.0110
17915TIP3    H175236   6.669   4.777  12.392 -0.4981  0.1813 -0.4968
17915TIP3    H275237   6.757   4.761  12.270 -0.8092  0.0169 -0.7008
17916TIP3   OH275238   1.441   4.294  11.016  0.0837 -0.1599 -0.0628
17916TIP3    H175239   1.446   4.325  10.925  1.6380  1.0018  0.3868
17916TIP3    H275240   1.456   4.200  11.010 -0.3040 -0.1687 -1.0543
17917TIP3   OH275241   3.687   2.586  11.598  0.3780 -0.3705 -0.4000
17917TIP3    H175242   3.672   2.662  11.654  1.0419 -0.4364 -0.1305
17917TIP3    H275243   3.599   2.549  11.583  0.0225  0.6375 -0.8113
17918TIP3   OH275244   1.441   6.254   0.656 -0.3840  0.4032 -0.3868
17918TIP3    H175245   1.449   6.161   0.635  0.4943  0.2854  0.4309
17918TIP3    H275246   1.524   6.292   0.626  0.5724  0.3627  2.0999
17919TIP3   OH275247   0.148   4.544  17.260  0.4516 -0.2042 -0.3808
17919TIP3    H175248   0.220   4.532  17.323  2.3434 -1.2483 -2.6722
17919TIP3    H275249   0.157   4.635  17.231  1.5433 -0.6528 -1.4722
17920TIP3   OH275250   1.180   1.867  13.989 -0.0820 -0.2974  0.1232
17920TIP3    H175251   1.248   1.883  14.055  0.9053 -0.2937 -0.8713
17920TIP3    H275252   1.143   1.953  13.970  1.0858  0.0150 -0.8392
17921TIP3   OH275253   6.782   4.576   2.918  0.2562 -0.4107 -0.2888
17921TIP3    H175254   6.796   4.623   2.836 -1.7257 -1.7008 -1.4097
17921TIP3    H275255   6.867   4.537   2.939  0.9683  0.5767 -1.2906
17922TIP3   OH275256   4.543   5.547   5.027 -0.1560  0.3498 -0.2438
17922TIP3    H175257   4.555   5.588   5.112 -1.7096 -1.2015  0.7456
17922TIP3    H275258   4.561   5.454   5.042  0.1177  0.1364 -1.7444
17923TIP3   OH275259   0.627   2.560  12.721 -0.0937 -0.5182  0.0990
17923TIP3    H175260   0.708   2.519  12.687 -1.1875 -0.2636 -2.9814
17923TIP3    H275261   0.560   2.493  12.707 -0.3811 -0.8956  3.0718
17924TIP3   OH275262   2.188   5.192   3.816  0.2012 -0.6334  0.0744
17924TIP3    H175263   2.268   5.235   3.784  1.1840 -0.9191  2.0858
17924TIP3    H275264   2.209   5.166   3.905 -1.9229 -1.3498  0.3854
17925TIP3   OH275265   4.595   3.507  14.543  0.1264 -0.9932 -0.4157
17925TIP3    H175266   4.647   3.432  14.513  0.3847 -1.1398  0.3979
17925TIP3    H275267   4.645   3.584  14.514  1.1121 -1.1261  0.8623
17926TIP3   OH275268   3.231   2.295   1.718 -0.2384  0.0824  0.6904
17926TIP3    H175269   3.262   2.237   1.648 -0.5366  2.2638 -1.2956
17926TIP3    H275270   3.309   2.317   1.767  0.1224 -0.7297  0.4882
17927TIP3   OH275271   4.045   2.906   4.959 -0.0518  0.6118  0.0616
17927TIP3    H175272   3.985   2.932   4.889  1.0431  0.2817 -1.0129
17927TIP3    H275273   3.988   2.869   5.027 -1.0890  0.4995 -0.8552
17928TIP3   OH275274   2.378   3.823   4.461 -0.0701 -0.3972 -0.3898
17928TIP3    H175275   2.305   3.882   4.480 -0.4695 -0.3990 -1.8642
17928TIP3    H275276   2.456   3.872   4.487 -0.5708 -0.2964  0.9507
17929TIP3   OH275277   3.973   0.789   2.359 -0.3720 -0.0815  0.0969
17929TIP3    H175278   3.966   0.707   2.407 -3.1968 -0.0174 -0.1419
17929TIP3    H275279   3.959   0.857   2.425 -0.4938  0.1432 -0.1595
17930TIP3   OH275280   3.898   0.181   4.219 -0.5806 -0.9537 -0.0058
17930TIP3    H175281   3.948   0.223   4.149 -1.0475 -0.9829 -0.3595
17930TIP3    H275282   3.951   0.195   4.297 -0.6123  0.0909 -0.1552
17931TIP3   OH275283   4.411   3.393  15.873 -0.4539  0.0485  0.0331
17931TIP3    H175284   4.429   3.487  15.882  0.5947 -0.1142 -0.2894
17931TIP3    H275285   4.441   3.355  15.956  1.2994 -0.3058 -0.7388
17932TIP3   OH275286   3.709   2.653   4.426 -0.0379 -0.0536 -0.4375
17932TIP3    H175287   3.661   2.733   4.407 -0.4219 -0.4270 -1.0294
17932TIP3    H275288   3.642   2.587   4.440  0.3101 -0.8313 -2.3818
17933TIP3   OH275289   2.870   1.702   6.149 -0.7937 -0.1315 -0.0308
17933TIP3    H175290   2.899   1.633   6.209  1.6662  0.7868 -0.1112
17933TIP3    H275291   2.907   1.782   6.186 -1.1614  0.7502 -1.5507
17934TIP3   OH275292   6.030   2.456   3.485  0.1876  0.0563  0.8586
17934TIP3    H175293   6.001   2.537   3.443  1.7191  0.2436  0.1406
17934TIP3    H275294   6.038   2.394   3.413  0.8866 -0.1884  1.1510
17935TIP3   OH275295   6.343   5.978  12.176 -0.1957 -0.6635  0.1549
17935TIP3    H175296   6.322   5.945  12.263 -0.0470 -2.2258 -0.3790
17935TIP3    H275297   6.261   5.970  12.127 -0.2831  0.2233  0.1510
17936TIP3   OH275298   6.141   4.459  15.506  0.8211 -0.6422 -0.5653
17936TIP3    H175299   6.116   4.421  15.590  0.6839 -0.2303 -0.4169
17936TIP3    H275300   6.083   4.416  15.442  1.4745 -1.5444 -0.5601
17937TIP3   OH275301   6.420   3.777   3.849  0.1815 -0.1331 -0.0509
17937TIP3    H175302   6.442   3.710   3.913 -0.8132  0.4067  0.8648
17937TIP3    H275303   6.330   3.802   3.870  1.0346  2.5653  0.6183
17938TIP3   OH275304   2.361   2.664   3.109  0.0394 -0.3286 -0.1029
17938TIP3    H175305   2.413   2.729   3.063 -0.8386  0.7083  0.3457
17938TIP3    H275306   2.425   2.608   3.152  0.7821  1.1856  0.8007
17939TIP3   OH275307   0.836   0.304  16.953 -0.4075 -0.8213  0.1818
17939TIP3    H175308   0.804   0.230  17.004 -1.8120 -1.5574 -1.7062
17939TIP3    H275309   0.757   0.356  16.933  0.4148  0.6253  0.5828
17940TIP3   OH275310   0.905   5.409   6.510  0.3714 -0.4515 -0.1702
17940TIP3    H175311   0.975   5.355   6.473  1.6325 -0.5524  2.2669
17940TIP3    H275312   0.931   5.499   6.490  0.4033 -0.5598 -0.6242
17941TIP3   OH275313   1.753   4.560  15.602  0.5167 -0.4284  0.2749
17941TIP3    H175314   1.770   4.523  15.516  0.6263  1.9016 -0.7419
17941TIP3    H275315   1.832   4.610  15.624 -0.0817  0.2085  1.0562
17942TIP3   OH275316   0.877   3.671   0.395 -0.6798  0.6234 -0.0505
17942TIP3    H175317   0.941   3.738   0.372 -1.0221  0.9206 -0.1277
17942TIP3    H275318   0.794   3.717   0.401 -0.4955  0.7103  2.5068
17943TIP3   OH275319   4.563   2.394  12.008 -0.3504 -0.1227  0.7703
17943TIP3    H175320   4.600   2.420  11.924 -0.8689  2.5002  1.3292
17943TIP3    H275321   4.553   2.475  12.056 -0.6745 -1.5332  3.1425
17944TIP3   OH275322   5.380   0.231   2.995  0.2565 -0.2089 -0.0079
17944TIP3    H175323   5.403   0.173   3.067  0.4683  0.9815  0.8967
17944TIP3    H275324   5.284   0.237   2.999  0.3866  1.2162  1.2597
17945TIP3   OH275325   6.189   6.021  16.291 -1.4656 -0.3421  0.2017
17945TIP3    H175326   6.101   6.059  16.287 -1.4083 -0.2870 -0.6269
17945TIP3    H275327   6.207   5.992  16.202 -0.1281  0.8121  0.0691
17946TIP3   OH275328   5.741   6.376   2.124  0.0641 -0.0736 -0.1884
17946TIP3    H175329   5.654   6.356   2.089 -0.4010 -1.6836  1.8130
17946TIP3    H275330   5.729   6.453   2.179 -0.2315 -0.7230  0.6535
17947TIP3   OH275331   3.864   1.757  12.162  0.1374  0.1567 -1.1427
17947TIP3    H175332   3.911   1.733  12.242  1.4979  0.4668 -1.8350
17947TIP3    H275333   3.822   1.675  12.134 -1.1288  0.2583  0.3746
17948TIP3   OH275334   4.214   5.612   3.366  0.5418  0.2878 -0.0442
17948TIP3    H175335   4.299   5.620   3.408  0.6859 -0.9483 -0.0715
17948TIP3    H275336   4.158   5.571   3.432  0.9373 -2.2653 -1.2207
17949TIP3   OH275337   2.017   2.335   6.656  0.1689  0.0371 -0.2545
17949TIP3    H175338   1.986   2.399   6.592  0.6215  1.7874  1.1957
17949TIP3    H275339   2.010   2.381   6.740  0.2512 -1.9390  0.8634
17950TIP3   OH275340   4.105   4.937  13.583  0.4063 -0.0196 -0.1688
17950TIP3    H175341   4.108   4.870  13.515  0.9973  0.6717 -0.8359
17950TIP3    H275342   4.186   4.987  13.570 -0.0497  0.8403  0.2953
17951TIP3   OH275343   6.739   6.789   6.221 -0.1014  0.0072  0.5590
17951TIP3    H175344   6.656   6.743   6.226  0.3927 -0.9564 -0.0155
17951TIP3    H275345   6.720   6.877   6.252 -2.0695  0.7877 -2.6355
17952TIP3   OH275346   2.457   6.652   3.877 -0.5493 -0.6984 -0.2693
17952TIP3    H175347   2.385   6.590   3.883 -0.6866 -0.6611 -1.4510
17952TIP3    H275348   2.530   6.602   3.841 -1.5972  0.5201 -4.4496
17953TIP3   OH275349   0.022   0.614   0.109  0.3149 -0.2344 -0.6703
17953TIP3    H175350   0.055   0.657   0.030  2.8564 -0.9787 -0.0543
17953TIP3    H275351   0.032   0.679   0.178 -0.5163 -0.1059 -0.6615
17954TIP3   OH275352   1.158   1.099  11.538 -0.0909 -0.3228 -0.0842
17954TIP3    H175353   1.122   1.035  11.477 -2.1580  2.6095 -2.1065
17954TIP3    H275354   1.093   1.105  11.608 -0.7609  0.7419 -0.7733
17955TIP3   OH275355   3.685   6.656   0.790  0.0231  0.0920  0.9271
17955TIP3    H175356   3.742   6.733   0.781  1.8062 -1.2987 -0.0820
17955TIP3    H275357   3.701   6.624   0.879  0.5414 -0.0672  0.7788
17956TIP3   OH275358   2.125   6.356   5.410  0.2036  0.0071  0.7374
17956TIP3    H175359   2.214   6.335   5.436  0.6374  0.4572 -0.3292
17956TIP3    H275360   2.106   6.440   5.453  0.5369  0.2365  0.4455
17957TIP3   OH275361   3.095   1.261  13.651 -0.4128  0.3193  0.4520
17957TIP3    H175362   3.082   1.171  13.622 -1.9068  0.3873  0.8481
17957TIP3    H275363   3.096   1.256  13.747  0.5974  0.5949  0.4683
17958TIP3   OH275364   5.667   5.571  11.726 -0.2761 -0.2326 -0.0868
17958TIP3    H175365   5.653   5.559  11.820 -1.9034 -1.4241 -0.4604
17958TIP3    H275366   5.674   5.666  11.714 -3.8155  0.2102  0.7583
17959TIP3   OH275367   4.287   1.524   5.644 -0.1997  0.1249 -0.7811
17959TIP3    H175368   4.287   1.443   5.695 -0.2694 -0.0585 -1.0728
17959TIP3    H275369   4.194   1.539   5.624 -0.0312 -0.6737 -2.2387
17960TIP3   OH275370   3.813   5.571  16.184  0.5868 -0.5082  0.2300
17960TIP3    H175371   3.809   5.478  16.208 -1.6256 -1.0460 -2.0240
17960TIP3    H275372   3.724   5.604  16.199  0.6510  0.5482 -1.6037
17961TIP3   OH275373   4.067   3.802  14.801  0.3485 -0.1081  0.1184
17961TIP3    H175374   4.034   3.866  14.864 -0.2174 -0.0626 -0.2256
17961TIP3    H275375   4.088   3.853  14.723  0.2220 -0.2950 -0.0384
17962TIP3   OH275376   5.088   2.452   2.562  0.4130  0.1444 -0.2576
17962TIP3    H175377   5.133   2.440   2.646  1.0359  0.6944 -0.5107
17962TIP3    H275378   5.155   2.433   2.496 -0.9118 -3.5647 -0.6696
17963TIP3   OH275379   6.013   4.913   1.501 -0.1416  0.2448  0.4869
17963TIP3    H175380   6.109   4.909   1.506 -0.0464 -2.5015 -1.9355
17963TIP3    H275381   5.996   4.976   1.430 -0.0599 -0.5554 -0.2531
17964TIP3   OH275382   4.054   1.573  11.111 -0.3690 -0.5623  0.6012
17964TIP3    H175383   3.979   1.536  11.064  0.0907  1.4628 -1.7704
17964TIP3    H275384   4.130   1.531  11.072 -0.0500  0.2175  0.3936
17965TIP3   OH275385   4.441   2.891   2.133  0.0713 -0.8109  0.3027
17965TIP3    H175386   4.476   2.805   2.158 -0.6048 -1.1927 -0.0262
17965TIP3    H275387   4.347   2.882   2.148 -0.0488 -0.2646 -0.1414
17966TIP3   OH275388   0.475   6.270   5.512  0.3791  0.0060 -0.0212
17966TIP3    H175389   0.388   6.294   5.479  0.9055  1.4979 -0.3678
17966TIP3    H275390   0.476   6.299   5.603  0.5166  0.0126 -0.0240
17967TIP3   OH275391   4.336   4.556   2.194  0.2528 -0.5206 -0.6178
17967TIP3    H175392   4.357   4.476   2.146  0.5151 -0.3795 -0.7410
17967TIP3    H275393   4.419   4.604   2.198  0.2662 -0.6073  0.1241
17968TIP3   OH275394   2.086   0.143   5.644  0.2502 -0.3410 -0.5511
17968TIP3    H175395   2.015   0.123   5.705  1.0299 -0.7029  0.2511
17968TIP3    H275396   2.134   0.215   5.685 -0.5609  0.9719 -1.8356
17969TIP3   OH275397   4.786   1.178   3.367  0.2141 -0.4576  0.2152
17969TIP3    H175398   4.778   1.260   3.416  0.8561  0.3121 -0.9606
17969TIP3    H275399   4.849   1.127   3.417  1.4425  0.6238 -0.2010
17970TIP3   OH275400   3.202   5.998   4.617  0.6253  0.1161 -0.4626
17970TIP3    H175401   3.280   5.960   4.577 -0.2084 -3.1759  0.8703
17970TIP3    H275402   3.132   5.982   4.554  0.6120  1.1000 -0.6983
17971TIP3   OH275403   3.225   5.291   0.374  1.0397 -0.9123  0.4837
17971TIP3    H175404   3.234   5.322   0.464  0.0108  0.8241  0.0074
17971TIP3    H275405   3.154   5.226   0.378 -1.1964  1.4603  0.4098
17972TIP3   OH275406   2.433   1.427   0.308 -0.1320  0.1910 -0.1207
17972TIP3    H175407   2.366   1.435   0.376 -0.8285  0.6868 -0.8432
17972TIP3    H275408   2.385   1.444   0.226  1.0169  1.2243 -0.5845
17973TIP3   OH275409   4.516   4.959  12.293  0.0305  0.1081  0.2406
17973TIP3    H175410   4.468   4.973  12.211 -1.8627 -0.4164  1.2579
17973TIP3    H275411   4.450   4.931  12.356  1.2221  1.9949  2.3857
17974TIP3   OH275412   0.563   1.563  12.529 -0.1339  0.0687  0.2258
17974TIP3    H175413   0.525   1.573  12.442 -0.8670 -0.7233  0.4423
17974TIP3    H275414   0.616   1.641  12.542 -0.1158  0.2426 -0.8851
17975TIP3   OH275415   2.039   3.065   0.379  1.0434 -0.4149 -0.4121
17975TIP3    H175416   2.098   3.139   0.363  1.2049 -0.4448  0.0173
17975TIP3    H275417   1.981   3.095   0.449  0.4607 -0.3403 -0.9296
17976TIP3   OH275418   6.026   1.739   3.652  0.2349 -0.0051  0.4269
17976TIP3    H175419   6.000   1.651   3.681 -2.0378 -0.0806 -1.6500
17976TIP3    H275420   5.986   1.748   3.565  2.0252  2.3727 -0.1852
17977TIP3   OH275421   4.847   2.656  11.429 -0.5083  0.1128  0.3451
17977TIP3    H175422   4.882   2.567  11.427 -0.9683 -0.0571 -0.3227
17977TIP3    H275423   4.794   2.660  11.508 -2.0838 -0.8241 -0.6473
17978TIP3   OH275424   3.194   6.122  14.461 -0.2417 -0.1147  0.5895
17978TIP3    H175425   3.197   6.196  14.400  1.3958  0.1684  0.9916
17978TIP3    H275426   3.146   6.055  14.414  1.1014  0.0583 -1.0977
17979TIP3   OH275427   6.021   5.411   1.328  0.1941 -0.0056  0.1283
17979TIP3    H175428   6.061   5.440   1.246 -0.3072 -0.7734 -0.4000
17979TIP3    H275429   6.074   5.452   1.397  0.8057  0.3957 -0.5739
17980TIP3   OH275430   0.546   5.801  11.059 -0.2112  0.0367  0.6863
17980TIP3    H175431   0.636   5.792  11.090 -0.3283  2.2006  1.7268
17980TIP3    H275432   0.544   5.886  11.015 -1.2461 -0.9144 -1.1882
17981TIP3   OH275433   4.303   1.504   0.279  1.0353  0.5985  0.3072
17981TIP3    H175434   4.359   1.523   0.354 -0.0139 -0.5469  1.3945
17981TIP3    H275435   4.283   1.411   0.287  1.8528  0.1883 -2.0477
17982TIP3   OH275436   0.764   0.176  16.090  0.5732 -0.1160  0.3731
17982TIP3    H175437   0.720   0.246  16.138  0.8163  0.5249 -0.3154
17982TIP3    H275438   0.726   0.095  16.124 -0.7870  0.4162  0.1232
17983TIP3   OH275439   0.506   5.985  13.475  0.2158 -0.2661  0.1474
17983TIP3    H175440   0.472   5.896  13.484 -0.5693 -0.0476 -0.5811
17983TIP3    H275441   0.447   6.027  13.413  0.5817  0.7687  0.4852
17984TIP3   OH275442   3.301   5.027  14.942 -0.0286  0.5541  0.0498
17984TIP3    H175443   3.395   5.029  14.924 -0.1845  1.1946 -0.7494
17984TIP3    H275444   3.292   4.976  15.022  1.0040  0.5088  0.1361
17985TIP3   OH275445   2.702   4.558  13.593 -0.4727  0.3327 -1.0648
17985TIP3    H175446   2.645   4.486  13.620 -1.2500  0.9604 -1.0201
17985TIP3    H275447   2.643   4.622  13.553 -0.0928  1.9327  0.8493
17986TIP3   OH275448   0.001   1.488  15.446  0.1209  0.2360  0.0301
17986TIP3    H175449   0.056   1.512  15.520  1.6077 -0.4718 -0.8276
17986TIP3    H275450  -0.046   1.410  15.477  1.7439 -0.8612 -0.2323
17987TIP3   OH275451   1.809   5.737  12.443 -0.1623  0.1770  0.2647
17987TIP3    H175452   1.754   5.680  12.390 -0.4112  2.3102 -1.8652
17987TIP3    H275453   1.896   5.697  12.441 -0.2894 -0.0369 -1.3725
17988TIP3   OH275454   4.606   1.550  13.060 -0.1096 -0.3549  0.6759
17988TIP3    H175455   4.620   1.553  12.965  0.3089  0.6466  0.7690
17988TIP3    H275456   4.526   1.497  13.071  0.4266 -1.3605 -0.1703
17989TIP3   OH275457   0.914   2.675  13.651  0.0393 -0.6539 -0.0253
17989TIP3    H175458   0.932   2.681  13.558  1.2385  0.6947  0.2621
17989TIP3    H275459   0.975   2.738  13.691 -2.6077  1.1319  1.3701
17990TIP3   OH275460   5.328   0.476  12.513  0.3967 -0.3495  0.6147
17990TIP3    H175461   5.373   0.393  12.504  0.0858 -0.5582  0.9675
17990TIP3    H275462   5.376   0.536  12.455 -0.4807 -1.2117 -1.0571
17991TIP3   OH275463   0.991   6.405  16.030  0.3284 -0.1982  0.6832
17991TIP3    H175464   0.902   6.377  16.008  1.1435 -2.2526 -0.1059
17991TIP3    H275465   0.979   6.462  16.106 -1.7350  0.2986  0.0326
17992TIP3   OH275466   2.673   2.296  15.315 -0.2371 -1.1853 -0.0071
17992TIP3    H175467   2.589   2.306  15.361  1.1059 -0.0565  2.2677
17992TIP3    H275468   2.696   2.204  15.327 -1.1386 -1.5034 -0.6492
17993TIP3   OH275469   5.203   1.675   1.446  0.2073  0.1439 -0.2741
17993TIP3    H175470   5.279   1.648   1.498  0.8434  1.5810 -0.4046
17993TIP3    H275471   5.200   1.613   1.373  2.5441  1.2793 -1.4148
17994TIP3   OH275472   2.536   5.264   2.308 -0.2977 -0.1328 -0.3146
17994TIP3    H175473   2.472   5.223   2.366 -0.6577  0.6188 -0.1691
17994TIP3    H275474   2.605   5.198   2.298 -2.1315 -1.8103 -2.2436
17995TIP3   OH275475   5.619   4.874  12.642  0.1380 -0.4076  0.8802
17995TIP3    H175476   5.667   4.840  12.566  1.3161 -0.5864  1.6945
17995TIP3    H275477   5.664   4.956  12.664  0.1768 -0.6659  1.7589
17996TIP3   OH275478   3.765   0.036  12.312 -0.5775  0.1385 -0.2428
17996TIP3    H175479   3.764   0.131  12.299  1.1666 -0.1478 -2.6628
17996TIP3    H275480   3.763  -0.001  12.224 -0.8237 -2.0841  0.6637
17997TIP3   OH275481   4.824   2.125  11.397 -0.4301 -0.3814 -0.3310
17997TIP3    H175482   4.729   2.137  11.407 -0.4496 -1.3993  0.8781
17997TIP3    H275483   4.861   2.211  11.420 -1.0532  0.0378 -0.8619
17998TIP3   OH275484   0.930   5.296   4.466  0.1997 -0.4382 -0.2762
17998TIP3    H175485   0.901   5.388   4.461  0.2712 -0.4470 -0.8848
17998TIP3    H275486   0.887   5.262   4.545  0.5284  0.2446  0.2110
17999TIP3   OH275487   2.090   6.335   3.994 -0.0084 -0.0670 -0.2449
17999TIP3    H175488   2.079   6.241   3.984  0.5800 -0.3217  1.3571
17999TIP3    H275489   2.002   6.371   3.982 -0.0275 -0.6798 -2.1128
18000TIP3   OH275490   3.154   6.690   4.922 -0.6149  0.3259  0.5547
18000TIP3    H175491   3.193   6.610   4.957 -0.1231 -0.2976 -1.3562
18000TIP3    H275492   3.062   6.668   4.907 -0.3119 -0.1274 -0.6733
18001TIP3   OH275493   3.900   0.389  16.691  0.6213 -0.7308 -0.5079
18001TIP3    H175494   3.865   0.421  16.607  1.3988 -0.2247 -0.6422
18001TIP3    H275495   3.835   0.325  16.720 -0.0710 -0.3155 -1.1010
18002TIP3   OH275496   1.689   4.857   1.303  0.4264 -0.0172  0.1605
18002TIP3    H175497   1.709   4.883   1.392  0.1312  0.7413  0.0074
18002TIP3    H275498   1.599   4.824   1.307  0.8505 -1.1476  0.3816
18003TIP3   OH275499   4.970   2.178  16.556 -0.1995  0.2953  0.2675
18003TIP3    H175500   4.905   2.194  16.625 -0.6059 -0.3371  0.0336
18003TIP3    H275501   4.986   2.264  16.518  0.8948  0.8594  1.9203
18004TIP3   OH275502   4.995   2.260  15.109 -0.4608 -0.5626 -0.0467
18004TIP3    H175503   5.087   2.253  15.083 -0.1359  2.5696 -0.0096
18004TIP3    H275504   4.966   2.170  15.121  2.8121 -1.5929  0.6418
18005TIP3   OH275505   6.172   0.639  15.108 -0.3087 -0.3171  0.4445
18005TIP3    H175506   6.127   0.718  15.137  1.1416  1.0699 -0.9657
18005TIP3    H275507   6.174   0.647  15.012  2.8434 -0.3454  0.4716
18006TIP3   OH275508   1.693   0.567  16.218  0.0767 -0.4676 -0.3172
18006TIP3    H175509   1.728   0.528  16.138  1.5408 -0.5515  0.3425
18006TIP3    H275510   1.712   0.503  16.287  1.3937  0.8149  0.5567
18007TIP3   OH275511   1.180   6.797  16.664 -0.4199 -0.2721 -0.0002
18007TIP3    H175512   1.116   6.754  16.721 -0.4949  0.1395  0.2280
18007TIP3    H275513   1.196   6.881  16.706 -0.7248  0.1720 -0.7698
18008TIP3   OH275514   1.417   4.379  16.736 -0.1770  0.3081  0.0587
18008TIP3    H175515   1.392   4.389  16.644  0.3224 -0.0108 -0.1095
18008TIP3    H275516   1.334   4.361  16.781 -0.2403 -0.9378 -0.5320
18009TIP3   OH275517   0.023   3.796   0.727  0.2400 -0.0745 -0.5253
18009TIP3    H175518   0.082   3.783   0.802  0.4190  0.8427 -0.4952
18009TIP3    H275519   0.068   3.754   0.654 -1.9849 -4.9936  0.7138
18010TIP3   OH275520   2.646   5.438   5.640  0.1654 -0.2551  1.0749
18010TIP3    H175521   2.722   5.436   5.582  0.7901 -0.0212  1.8739
18010TIP3    H275522   2.571   5.420   5.583  0.7230  0.3885  0.1303
18011TIP3   OH275523   2.539   6.274  14.043  0.0670 -0.6060 -0.5496
18011TIP3    H175524   2.466   6.229  14.086  0.8529  0.9445  2.5132
18011TIP3    H275525   2.516   6.367  14.050  1.8475 -0.1658 -0.4609
18012TIP3   OH275526   1.530   5.919  12.648 -0.7158  0.0895 -0.2447
18012TIP3    H175527   1.612   5.930  12.599 -1.2729  2.7945 -0.6184
18012TIP3    H275528   1.504   5.828  12.630  2.1890 -0.8218 -0.0900
18013TIP3   OH275529   1.770   3.968  15.647  0.3863  0.6013  0.0933
18013TIP3    H175530   1.761   3.975  15.552 -2.2525  0.5149  0.2853
18013TIP3    H275531   1.854   4.009  15.666  1.1014  0.3442 -2.3043
18014TIP3   OH275532   1.051   5.217  16.324  0.1382  0.5195 -0.1596
18014TIP3    H175533   1.144   5.220  16.303  0.3444  1.1109  0.8203
18014TIP3    H275534   1.026   5.308  16.337  0.4621  0.0956  3.9569
18015TIP3   OH275535   6.455   1.152  15.617  0.3018 -0.5865  0.9929
18015TIP3    H175536   6.416   1.222  15.669  1.5588  0.7216  0.2279
18015TIP3    H275537   6.516   1.109  15.676  0.5331 -0.1463  1.0789
18016TIP3   OH275538   0.205   6.171  13.663  0.2687 -0.2859  1.1318
18016TIP3    H175539   0.226   6.079  13.647 -0.0377  0.0798 -1.5978
18016TIP3    H275540   0.117   6.169  13.701 -0.6797 -1.0277 -1.0275
18017TIP3   OH275541   1.934   2.329   0.506  0.0016 -0.1673 -0.2442
18017TIP3    H175542   1.916   2.338   0.412  2.6520  2.7496 -0.5726
18017TIP3    H275543   2.001   2.262   0.511  1.4632  1.2142 -0.7128
18018TIP3   OH275544   2.974   2.113   4.301 -0.2158  0.0579 -0.5106
18018TIP3    H175545   2.941   2.152   4.381  0.5691 -1.3129  0.5031
18018TIP3    H275546   3.006   2.187   4.250  0.1609  0.8509  0.8515
18019TIP3   OH275547   5.775   0.297  10.473  0.3632  0.0292 -0.0346
18019TIP3    H175548   5.747   0.380  10.435  2.5452  1.4912  1.4703
18019TIP3    H275549   5.705   0.236  10.451 -2.3391  2.7487  0.6883
18020TIP3   OH275550   4.800   0.058  13.176  0.0665  0.3277 -0.1155
18020TIP3    H175551   4.785  -0.010  13.242 -0.5566 -0.0712 -0.6498
18020TIP3    H275552   4.877   0.105  13.206  1.7524 -1.9328 -0.8055
18021TIP3   OH275553   3.104   2.940   5.801  0.1181  0.1836 -0.0405
18021TIP3    H175554   3.184   2.933   5.852 -0.1102  0.8394  0.4044
18021TIP3    H275555   3.105   3.029   5.766 -1.2080  0.7264  1.2869
18022TIP3   OH275556   1.524   4.059  15.768 -0.2208 -0.3920  0.3853
18022TIP3    H175557   1.453   4.000  15.741 -1.0800  1.6531 -1.9687
18022TIP3    H275558   1.602   4.023  15.725 -0.9607  0.8127 -2.0677
18023TIP3   OH275559   6.179   6.778  12.612 -0.3377  0.4663 -0.2996
18023TIP3    H175560   6.140   6.775  12.699  0.7852  1.1296  0.2450
18023TIP3    H275561   6.274   6.783  12.628  0.0327 -1.7359 -1.5829
18024TIP3   OH275562   4.723   0.841  15.016 -0.2470 -0.1884 -0.2550
18024TIP3    H175563   4.793   0.793  14.973 -1.5965 -0.8494 -1.7715
18024TIP3    H275564   4.655   0.776  15.032 -1.3096  0.8147 -0.5975
18025TIP3   OH275565   3.439   3.553   1.956  0.2132 -0.3318  0.1560
18025TIP3    H175566   3.494   3.535   2.031  0.7768 -0.7231 -0.3446
18025TIP3    H275567   3.350   3.537   1.987  0.4669 -0.8197  0.6394
18026TIP3   OH275568   3.892   0.628   5.934 -0.3508  0.0018  0.1316
18026TIP3    H175569   3.956   0.698   5.946  2.5726 -2.7744  1.5100
18026TIP3    H275570   3.861   0.608   6.022 -1.1982 -0.4461 -0.2577
18027TIP3   OH275571   5.546   0.742   5.244  0.8019  0.3372  0.2404
18027TIP3    H175572   5.580   0.667   5.195 -2.2355 -0.8977 -0.0434
18027TIP3    H275573   5.592   0.738   5.328  0.3083 -2.1401  0.4188
18028TIP3   OH275574   3.885   4.392  17.172  0.4047  0.0635  0.6831
18028TIP3    H175575   3.938   4.363  17.246  0.4134  0.3869  0.8034
18028TIP3    H275576   3.936   4.461  17.131  0.5935 -0.4000  0.1220
18029TIP3   OH275577   4.648   2.744   5.581  0.0524  0.0899 -0.7433
18029TIP3    H175578   4.647   2.765   5.488  1.1059  1.1617 -0.5256
18029TIP3    H275579   4.721   2.682   5.591 -1.8025 -2.2276 -1.0615
18030TIP3   OH275580   5.925   5.140  11.832 -0.1666 -0.3738 -0.0658
18030TIP3    H175581   5.923   5.104  11.744 -1.2285  0.0586 -0.2235
18030TIP3    H275582   5.894   5.230  11.823 -1.0682 -0.5775  0.8594
18031TIP3   OH275583   5.076   5.749   5.951  0.3693 -0.1235  0.1723
18031TIP3    H175584   5.005   5.689   5.928  1.0271 -0.7763 -0.1866
18031TIP3    H275585   5.041   5.801   6.024 -0.1688 -1.0246  0.5678
18032TIP3   OH275586   1.907   1.891  14.948  0.5222 -0.3466  0.0765
18032TIP3    H175587   1.985   1.940  14.975  0.3113  0.1223 -0.1580
18032TIP3    H275588   1.835   1.929  14.999 -0.0053  1.0683 -1.6712
18033TIP3   OH275589   2.586   3.928   4.620  0.1997  0.4997  0.4526
18033TIP3    H175590   2.598   3.840   4.586  1.3835  0.5480  0.7335
18033TIP3    H275591   2.561   3.915   4.712 -1.3068  0.4207  0.0466
18034TIP3   OH275592   5.929   4.580  15.024  0.3119 -0.3514  0.0281
18034TIP3    H175593   5.864   4.565  15.093  1.0963 -0.3190  0.7853
18034TIP3    H275594   6.005   4.615  15.070  0.0541  1.8793 -1.1383
18035TIP3   OH275595   1.272   2.473   4.090  0.3705  0.3381  0.0923
18035TIP3    H175596   1.243   2.426   4.012  0.1956 -0.4558  0.6171
18035TIP3    H275597   1.310   2.404   4.146 -0.9009  0.6333  1.3545
18036TIP3   OH275598   5.580   1.504  13.703  0.4049 -0.6575  0.2516
18036TIP3    H175599   5.627   1.520  13.621 -0.2725 -2.5834 -0.5587
18036TIP3    H275600   5.558   1.591  13.736  2.4535  0.1987 -0.5581
18037TIP3   OH275601   3.852   5.660  15.883  0.1944 -0.4411  0.8259
18037TIP3    H175602   3.898   5.628  15.961  1.1986 -1.1476 -0.0279
18037TIP3    H275603   3.759   5.650  15.903  0.3808  1.0317  2.6081
18038TIP3   OH275604   4.141   0.313  16.190 -0.1574  0.4259  0.0250
18038TIP3    H175605   4.112   0.397  16.156 -0.1350  0.5846  0.3938
18038TIP3    H275606   4.144   0.326  16.285 -0.1654  0.0089  0.0828
18039TIP3   OH275607   5.926   4.142   4.582  0.4695 -0.5181  0.0564
18039TIP3    H175608   5.862   4.160   4.514  2.4683  1.7849 -1.2948
18039TIP3    H275609   5.888   4.070   4.633 -1.3219 -1.9001 -3.1138
18040TIP3   OH275610   0.099   4.379   2.680  0.3118 -0.1911  0.1966
18040TIP3    H175611   0.101   4.458   2.735 -2.8013  0.7734 -0.9474
18040TIP3    H275612   0.149   4.403   2.602 -0.8848  0.7987 -0.2844
18041TIP3   OH275613   0.540   0.682  16.783  0.3304  0.3309 -0.2486
18041TIP3    H175614   0.500   0.763  16.751  0.9575  0.7338 -0.0269
18041TIP3    H275615   0.558   0.699  16.875 -0.4432 -0.4203  0.0462
18042TIP3   OH275616   3.456   4.101   4.291 -0.1075 -0.3796 -0.0503
18042TIP3    H175617   3.361   4.119   4.292  0.3357  2.2518  1.9332
18042TIP3    H275618   3.463   4.008   4.270 -3.0718 -0.2756 -1.7346
18043TIP3   OH275619   4.246   1.784  11.857  0.8081  0.2127  0.3424
18043TIP3    H175620   4.167   1.786  11.803  1.0290  0.0924  0.0182
18043TIP3    H275621   4.227   1.718  11.924  1.0547 -0.6105 -0.3856
18044TIP3   OH275622   0.032   6.732  14.216  0.3828 -0.3797 -0.3259
18044TIP3    H175623   0.035   6.827  14.220  1.8252 -0.4393  0.2032
18044TIP3    H275624   0.055   6.711  14.126 -0.9539 -0.1936 -0.7138
18045TIP3   OH275625   6.299   4.593  13.041  0.3105  0.0927  0.4071
18045TIP3    H175626   6.359   4.659  13.007 -0.2945 -0.0889 -1.0460
18045TIP3    H275627   6.228   4.590  12.977 -0.1843 -1.2235  1.0000
18046TIP3   OH275628   2.930   2.129   4.586 -0.3061  0.9423  0.1430
18046TIP3    H175629   2.911   2.215   4.624  0.4784  0.6969  1.1227
18046TIP3    H275630   2.869   2.069   4.629  0.9416  0.5736  1.4549
18047TIP3   OH275631   0.808   6.385   1.289  0.3646 -0.1331  0.2958
18047TIP3    H175632   0.804   6.292   1.312 -1.2972 -0.1362  0.0169
18047TIP3    H275633   0.902   6.403   1.280  0.7608 -1.4867  1.5418
18048TIP3   OH275634   5.310   6.155  11.449 -0.0466 -0.3486  0.2912
18048TIP3    H175635   5.374   6.085  11.462  1.4415  0.8091 -0.5470
18048TIP3    H275636   5.287   6.184  11.537  0.7852 -0.6278  0.6059
18049TIP3   OH275637   2.474   4.012   2.042 -0.0368 -0.3645  0.7521
18049TIP3    H175638   2.410   3.941   2.051 -1.3056  0.6363 -0.1774
18049TIP3    H275639   2.445   4.078   2.105 -0.8426  0.7481 -0.7495
18050TIP3   OH275640   6.571   0.962  17.014 -0.2476  0.9445  0.1743
18050TIP3    H175641   6.642   0.944  17.075 -0.8981  0.2523  0.7426
18050TIP3    H275642   6.540   1.049  17.037 -0.0013  0.9884  0.3396
18051TIP3   OH275643   4.290   2.412  11.525  0.0495 -0.1957  0.7299
18051TIP3    H175644   4.284   2.503  11.494  0.2371 -0.2528  0.5234
18051TIP3    H275645   4.227   2.364  11.472 -0.3798 -0.1018  1.1537
18052TIP3   OH275646   5.089   3.997  13.393 -0.1959  0.2218 -0.2693
18052TIP3    H175647   5.017   3.934  13.383 -0.0533 -0.7297  3.7668
18052TIP3    H275648   5.047   4.082  13.387 -1.8189 -0.3228  2.2843
18053TIP3   OH275649   4.688   4.810  14.939 -0.0066  0.1649 -0.6350
18053TIP3    H175650   4.722   4.838  14.854 -0.7563 -1.0224 -1.3438
18053TIP3    H275651   4.616   4.750  14.918  0.5938 -1.1189  0.8140
18054TIP3   OH275652   2.504   3.483  14.186 -0.5641  0.1981  0.4932
18054TIP3    H175653   2.526   3.395  14.218  1.5906  0.3087 -0.5648
18054TIP3    H275654   2.456   3.468  14.104 -2.6276 -0.0083  1.7004
18055TIP3   OH275655   2.044   1.564   3.005 -0.5490 -0.9267  0.2298
18055TIP3    H175656   1.970   1.607   3.047 -2.5080 -2.1367 -1.8137
18055TIP3    H275657   2.108   1.551   3.075 -1.5837  1.5948  1.7016
18056TIP3   OH275658   0.802   6.627  12.747 -0.1865 -0.4291 -0.3481
18056TIP3    H175659   0.724   6.587  12.787  0.9722 -1.7846  0.6217
18056TIP3    H275660   0.809   6.585  12.662 -2.0467  1.6769 -1.5820
18057TIP3   OH275661   5.242   1.964  16.397  0.0019 -0.4006 -0.1246
18057TIP3    H175662   5.200   1.956  16.483  0.0412  0.0021 -0.0672
18057TIP3    H275663   5.289   2.048  16.401 -0.1727 -0.2787 -0.6181
18058TIP3   OH275664   3.806   3.551  12.377  0.5728 -0.0776  0.6256
18058TIP3    H175665   3.831   3.643  12.386 -0.0041  0.1785 -0.3674
18058TIP3    H275666   3.888   3.506  12.361  0.5559  0.6158 -1.5058
18059TIP3   OH275667   4.093   3.241   2.730 -0.3622 -0.2316  0.0529
18059TIP3    H175668   4.035   3.222   2.803 -0.1642  0.2332  0.3298
18059TIP3    H275669   4.084   3.336   2.716  0.9243 -0.0200  0.6070
18060TIP3   OH275670   1.475   5.682  12.479  0.3519  0.2011 -0.0277
18060TIP3    H175671   1.393   5.633  12.469  0.1558  0.3621  0.7803
18060TIP3    H275672   1.532   5.648  12.410 -0.5984  0.5162 -0.9753
18061TIP3   OH275673   5.392   4.405   3.596  0.2370 -0.1991 -0.1020
18061TIP3    H175674   5.318   4.344   3.589 -0.3370  0.6035 -1.0070
18061TIP3    H275675   5.451   4.362   3.658 -0.0319 -1.8235 -0.9223
18062TIP3   OH275676   3.004   4.592   5.445 -0.0461  0.1634  0.3592
18062TIP3    H175677   2.965   4.519   5.493 -1.1104 -0.4226 -1.3472
18062TIP3    H275678   2.941   4.612   5.376  1.1923  1.3520 -0.4604
18063TIP3   OH275679   4.040   4.843   1.154  0.0455 -0.0492 -0.3821
18063TIP3    H175680   3.985   4.765   1.156 -0.2674  0.1941  0.8832
18063TIP3    H275681   4.101   4.832   1.227 -0.2779  1.0798  0.0636
18064TIP3   OH275682   4.976   0.164  10.020 -0.2232 -0.3957  0.0832
18064TIP3    H175683   5.001   0.083   9.975  0.4315 -0.1394 -0.0192
18064TIP3    H275684   4.905   0.199   9.967  1.2985  0.4919 -1.4191
18065TIP3   OH275685   5.035   1.937  13.430 -0.3767  0.3828  0.2892
18065TIP3    H175686   5.007   1.913  13.518 -1.9536  1.4875  0.1228
18065TIP3    H275687   4.959   1.919  13.375 -0.0711  1.5113 -0.5264
18066TIP3   OH275688   2.801   5.482   1.210  0.1257 -0.1494 -0.5202
18066TIP3    H175689   2.842   5.448   1.130 -0.8690 -0.9662 -0.6945
18066TIP3    H275690   2.833   5.424   1.279 -1.5021 -1.3963 -0.8041
18067TIP3   OH275691   5.029   5.121   3.383 -0.0440 -0.0822  0.2201
18067TIP3    H175692   4.944   5.105   3.343  0.5646 -0.9619 -0.7525
18067TIP3    H275693   5.020   5.089   3.473 -1.6324  2.5169  1.0598
18068TIP3   OH275694   4.279   6.556   4.948 -0.1622  0.0283  0.1756
18068TIP3    H175695   4.329   6.603   4.881  3.0086 -2.5010  0.6461
18068TIP3    H275696   4.330   6.569   5.028 -0.7842 -1.8274  0.8892
18069TIP3   OH275697   4.271   5.763  16.891  0.3442  0.2423  0.3363
18069TIP3    H175698   4.307   5.767  16.979 -1.5010  0.1750  1.1073
18069TIP3    H275699   4.276   5.854  16.859 -2.6292  1.0811  2.0374
18070TIP3   OH275700   0.164   1.266  13.682  0.5500 -0.8125 -0.1801
18070TIP3    H175701   0.200   1.277  13.594  1.6365  0.4200  0.4010
18070TIP3    H275702   0.095   1.201  13.671 -0.2461  0.3256 -2.1838
18071TIP3   OH275703   1.692   0.563  14.735 -0.6141  0.2472 -0.1163
18071TIP3    H175704   1.696   0.498  14.665 -0.3160  0.7266 -0.5548
18071TIP3    H275705   1.773   0.614  14.724 -0.7003  0.4996  0.4086
18072TIP3   OH275706   0.094   5.394  11.227  0.0833  0.3943 -0.0964
18072TIP3    H175707   0.158   5.417  11.294  1.9682 -1.3842 -1.2310
18072TIP3    H275708   0.034   5.333  11.270 -0.9287  2.1480  1.0007
18073TIP3   OH275709   3.833   0.376   3.943  0.0552  0.1320 -0.5830
18073TIP3    H175710   3.798   0.324   3.869 -1.4404 -1.4662  1.1885
18073TIP3    H275711   3.923   0.345   3.953 -0.2152 -0.7356 -0.7702
18074TIP3   OH275712   0.348   1.830   4.485 -0.3062  0.1159 -0.3741
18074TIP3    H175713   0.411   1.773   4.530 -1.1899 -0.0628  0.6496
18074TIP3    H275714   0.403   1.893   4.437  0.6752  0.8492  1.6321
18075TIP3   OH275715   5.689   5.494  10.998  0.3658  0.8125  0.1381
18075TIP3    H175716   5.675   5.547  10.920 -0.0515  0.0203 -0.3215
18075TIP3    H275717   5.706   5.558  11.067  0.6317  1.5158 -0.5738
18076TIP3   OH275718   0.623   1.755  13.115 -0.1724  0.6037 -0.4063
18076TIP3    H175719   0.572   1.692  13.064 -1.6722  1.0559  0.4974
18076TIP3    H275720   0.714   1.730  13.100 -0.6640 -0.3406 -1.8983
18077TIP3   OH275721   2.183   1.499   0.433  0.1328  0.0072 -0.0321
18077TIP3    H175722   2.147   1.553   0.503 -0.2617  0.3087 -0.4658
18077TIP3    H275723   2.148   1.411   0.450 -0.4118  0.1980 -0.1772
18078TIP3   OH275724   6.663   3.111   2.925  0.2067  0.1663 -0.3560
18078TIP3    H175725   6.728   3.086   2.860  1.5515 -0.3125  1.1623
18078TIP3    H275726   6.713   3.131   3.004 -1.4925 -0.4116  0.8975
18079TIP3   OH275727   4.046   3.918  15.135  0.0121  0.1273 -0.1567
18079TIP3    H175728   4.058   3.826  15.158 -0.9686 -0.3787 -1.5484
18079TIP3    H275729   4.066   3.967  15.215 -0.8686 -1.3850  0.9993
18080TIP3   OH275730   4.150   1.179   3.305 -0.1216  0.5125  0.6134
18080TIP3    H175731   4.129   1.162   3.214 -0.5394  2.2828  0.3736
18080TIP3    H275732   4.245   1.166   3.311 -0.2375 -0.5959  0.1699
18081TIP3   OH275733   0.802   0.306   3.756 -0.0282 -0.6988 -0.3277
18081TIP3    H175734   0.835   0.389   3.723 -0.2602 -0.3403  0.3284
18081TIP3    H275735   0.881   0.254   3.773  0.1495 -0.2855  0.1070
18082TIP3   OH275736   6.820   4.455  15.485  0.0742  0.3766 -0.2780
18082TIP3    H175737   6.789   4.381  15.432  0.1179  0.7041 -0.7734
18082TIP3    H275738   6.748   4.519  15.481 -0.5142 -0.1635  1.2381
18083TIP3   OH275739   4.674   3.128   2.852  0.3615  0.3114 -0.4780
18083TIP3    H175740   4.627   3.206   2.883  1.6089  0.8944 -0.0273
18083TIP3    H275741   4.766   3.152   2.857  0.7834 -1.3894  0.1871
18084TIP3   OH275742   5.366   4.719  13.956  0.3652 -0.1407  0.1352
18084TIP3    H175743   5.276   4.751  13.966 -0.0470 -0.9981 -0.6878
18084TIP3    H275744   5.417   4.798  13.940 -0.3886  0.2738 -0.2905
18085TIP3   OH275745   5.736   3.595   1.361 -0.2900  0.2599 -0.4482
18085TIP3    H175746   5.660   3.651   1.376  0.0037  0.2259  1.2701
18085TIP3    H275747   5.803   3.630   1.421  1.2439  0.6528 -2.3435
18086TIP3   OH275748   4.407   4.706  12.173  0.4323  0.2190 -0.1940
18086TIP3    H175749   4.313   4.694  12.171  0.3361  0.6882  0.8580
18086TIP3    H275750   4.423   4.783  12.119  0.1827  0.2727 -0.1907
18087TIP3   OH275751   6.647   2.942   2.286  0.0636 -0.0393  0.3551
18087TIP3    H175752   6.593   2.941   2.207 -0.7115 -1.1401  0.8883
18087TIP3    H275753   6.700   3.021   2.278  0.9125 -0.7851 -1.8873
18088TIP3   OH275754   4.254   6.276  11.416  0.1715  0.1972 -0.5286
18088TIP3    H175755   4.160   6.284  11.402 -0.0019  0.2907  0.6610
18088TIP3    H275756   4.266   6.187  11.451  0.7479 -0.5104 -2.4241
18089TIP3   OH275757   1.998   6.209   3.270 -0.3616  0.5873  0.1203
18089TIP3    H175758   2.014   6.270   3.199  1.0044 -0.4075 -0.4431
18089TIP3    H275759   2.072   6.221   3.330 -0.6890  0.3062  0.5891
18090TIP3   OH275760   6.819   5.627  15.105 -0.1471 -0.4899 -0.0563
18090TIP3    H175761   6.891   5.578  15.065  0.6485  1.0866 -0.6043
18090TIP3    H275762   6.748   5.621  15.041  0.5477  0.5643 -0.9512
18091TIP3   OH275763   6.815   6.450   5.863  0.1504 -0.0988 -1.3471
18091TIP3    H175764   6.742   6.507   5.837 -0.3469 -0.7135 -1.3260
18091TIP3    H275765   6.772   6.370   5.894  0.8406 -0.4902 -1.3972
18092TIP3   OH275766   6.132   0.461   3.384 -0.8522 -0.1670  0.4092
18092TIP3    H175767   6.097   0.520   3.449 -0.1523  2.7016 -1.7015
18092TIP3    H275768   6.056   0.427   3.337 -1.2172 -0.3955  1.1742
18093TIP3   OH275769   3.700   3.236   3.162 -0.2910  0.6191 -0.3928
18093TIP3    H175770   3.692   3.215   3.255 -3.0082  1.1038 -0.4735
18093TIP3    H275771   3.679   3.329   3.156 -1.2994  0.3267 -1.6311
18094TIP3   OH275772   4.290   4.779  16.827 -0.9667 -0.3735 -0.2349
18094TIP3    H175773   4.245   4.741  16.903 -0.8939  1.5762  0.8027
18094TIP3    H275774   4.382   4.755  16.839 -0.4226  2.6119  2.0159
18095TIP3   OH275775   3.127   1.735   4.401 -0.6567 -0.4607 -0.0792
18095TIP3    H175776   3.153   1.716   4.310  1.3852 -0.0008  0.3786
18095TIP3    H275777   3.096   1.651   4.435 -0.4888 -0.8612 -0.8897
18096TIP3   OH275778   4.440   5.551   4.164 -0.0565 -0.0308  0.4648
18096TIP3    H175779   4.487   5.488   4.109  0.7263  0.8541  0.1166
18096TIP3    H275780   4.376   5.591   4.105  0.3055  0.4129  0.3730
18097TIP3   OH275781   5.558   2.197  10.716  0.3824 -0.4488 -0.1510
18097TIP3    H175782   5.566   2.292  10.704  0.3859 -0.5456 -0.9468
18097TIP3    H275783   5.551   2.185  10.811  4.4037  0.0372  0.2829
18098TIP3   OH275784   0.387   3.446   5.671  0.2894 -0.4398  0.4688
18098TIP3    H175785   0.345   3.472   5.589  2.3003  2.1056  0.1808
18098TIP3    H275786   0.481   3.456   5.655  0.7129  0.3869  3.1458
18099TIP3   OH275787   5.008   0.610  16.552  0.2119 -0.4421  0.2041
18099TIP3    H175788   4.962   0.576  16.628  0.7089  1.1292  1.2220
18099TIP3    H275789   5.077   0.545  16.535  1.2067  0.0816  2.1716
18100TIP3   OH275790   0.533   4.195  11.186  0.2090 -0.0588 -0.1210
18100TIP3    H175791   0.583   4.229  11.112  0.7381 -0.2283  0.1546
18100TIP3    H275792   0.442   4.195  11.156  0.6707 -2.4412 -1.6531
18101TIP3   OH275793   0.536   4.750   3.940 -0.6951  0.2645 -0.0275
18101TIP3    H175794   0.536   4.800   3.859 -2.0759 -0.6375 -0.6088
18101TIP3    H275795   0.526   4.659   3.912  0.4647 -0.2218  1.0786
18102TIP3   OH275796   2.730   2.101   4.892 -0.1805 -0.1797 -0.0609
18102TIP3    H175797   2.799   2.060   4.944 -0.0670  0.2057  0.0953
18102TIP3    H275798   2.661   2.120   4.955  0.1864  0.8040  0.0649
18103TIP3   OH275799   1.950   5.567   5.873 -0.1138  0.0647 -0.5794
18103TIP3    H175800   1.909   5.648   5.845 -0.2403 -0.0562 -0.7437
18103TIP3    H275801   1.962   5.577   5.968  0.2609  0.4498 -0.6666
18104TIP3   OH275802   5.202   3.658  13.969 -0.5679 -0.5280 -0.1143
18104TIP3    H175803   5.173   3.620  13.886 -1.0900 -1.6955  0.5974
18104TIP3    H275804   5.294   3.680  13.955 -0.5428 -1.1013 -0.8637
18105TIP3   OH275805   5.250   1.021   2.324  0.5547 -0.3455  0.0610
18105TIP3    H175806   5.205   0.945   2.287  1.3775 -0.2145 -1.2592
18105TIP3    H275807   5.246   1.008   2.419 -0.4521 -1.3675 -0.1170
18106TIP3   OH275808   3.342   6.328  12.438  0.8071  0.1333  0.3825
18106TIP3    H175809   3.339   6.348  12.532 -0.7730 -1.2826  0.6504
18106TIP3    H275810   3.325   6.234  12.433  0.9420  0.1942 -1.3345
18107TIP3   OH275811   5.847   6.435   4.560  0.5066  1.0672 -0.2735
18107TIP3    H175812   5.845   6.410   4.467 -1.2001  0.4218 -0.0834
18107TIP3    H275813   5.761   6.411   4.593  1.7828 -0.6622  2.0019
18108TIP3   OH275814   0.705   3.631  13.712 -0.0000 -0.1347 -0.2702
18108TIP3    H175815   0.655   3.586  13.780  1.2200 -2.2324 -0.7016
18108TIP3    H275816   0.738   3.710  13.754 -1.2847 -0.1683  0.8400
18109TIP3   OH275817   5.178   2.955  16.694 -0.3977  0.3320 -0.2688
18109TIP3    H175818   5.150   2.866  16.675 -1.4126  0.6828 -0.4726
18109TIP3    H275819   5.238   2.947  16.767 -0.1288 -0.5635 -0.5892
18110TIP3   OH275820   3.402   2.900   2.112  0.5428 -0.4657  0.2350
18110TIP3    H175821   3.308   2.900   2.096  0.6614 -0.1845 -0.4844
18110TIP3    H275822   3.419   2.983   2.157  0.4409 -0.5223  0.3757
18111TIP3   OH275823   1.081   4.275  13.264 -0.1387  0.3675 -0.0412
18111TIP3    H175824   1.128   4.227  13.196 -0.9709 -0.5229 -0.0050
18111TIP3    H275825   1.000   4.226  13.276  0.0181  0.4754  1.6317
18112TIP3   OH275826   0.745   1.886   5.620  0.2560 -0.5197  0.3785
18112TIP3    H175827   0.663   1.848   5.653  0.3166 -0.6610  0.3647
18112TIP3    H275828   0.733   1.980   5.631  0.5591 -0.5990  1.4966
18113TIP3   OH275829   3.850   6.699   3.875  0.2787  0.2368 -0.0649
18113TIP3    H175830   3.900   6.774   3.843 -0.0714  1.1808  1.5109
18113TIP3    H275831   3.908   6.658   3.939  0.3595 -0.6679 -0.7235
18114TIP3   OH275832   0.044   1.165   1.281 -0.4204 -0.1813  0.5161
18114TIP3    H175833   0.004   1.181   1.367  0.8243  1.7894  0.7510
18114TIP3    H275834  -0.008   1.217   1.220  1.0288  1.4411  0.6455
18115TIP3   OH275835   0.345   1.467   4.766  0.4014 -0.1491 -0.3275
18115TIP3    H175836   0.417   1.528   4.781  1.7892 -2.0311  0.9265
18115TIP3    H275837   0.326   1.475   4.672  2.4953  0.1328 -0.7626
18116TIP3   OH275838   1.632   6.335  16.441  0.0440  0.4443 -0.5722
18116TIP3    H175839   1.674   6.405  16.389 -0.3968  1.7381  0.7752
18116TIP3    H275840   1.625   6.372  16.529 -1.5928 -0.7343 -0.1951
18117TIP3   OH275841   5.435   2.520  14.947 -0.9066 -0.0351 -0.1005
18117TIP3    H175842   5.380   2.592  14.977 -0.8613 -0.0143 -0.0665
18117TIP3    H275843   5.507   2.517  15.010 -1.2265 -0.4938  0.2473
18118TIP3   OH275844   1.588   3.200  11.654 -0.3292  0.2739  0.0252
18118TIP3    H175845   1.576   3.290  11.623 -1.6413 -0.1522 -0.7018
18118TIP3    H275846   1.642   3.158  11.587 -1.6276 -0.1184 -0.8000
18119TIP3   OH275847   4.769   5.772   3.759 -0.0934 -0.4218 -0.2420
18119TIP3    H175848   4.773   5.836   3.831 -0.5278 -0.3164 -0.3056
18119TIP3    H275849   4.702   5.808   3.700  3.4005  1.8706 -3.0190
18120TIP3   OH275850   5.088   1.588  11.267  0.4351  0.2886 -0.9251
18120TIP3    H175851   5.033   1.519  11.304  0.7694  0.1373 -0.7102
18120TIP3    H275852   5.043   1.669  11.289  0.3743  0.1736 -0.6246
18121TIP3   OH275853   0.858   1.291  15.875 -0.0040  0.0133 -0.8634
18121TIP3    H175854   0.895   1.205  15.893 -0.7154 -0.0142  0.5079
18121TIP3    H275855   0.764   1.282  15.894  0.0407  1.2826  0.0521
18122TIP3   OH275856   1.812   3.156  15.276  0.7361  0.1525 -0.3756
18122TIP3    H175857   1.779   3.225  15.218  0.7874  0.4543 -0.0483
18122TIP3    H275858   1.873   3.107  15.222 -0.8341 -0.9032 -1.2391
18123TIP3   OH275859   6.049   0.140  15.199  0.2638 -0.1120 -0.4476
18123TIP3    H175860   6.039   0.235  15.190  0.3246 -0.0504  0.1093
18123TIP3    H275861   5.966   0.111  15.236 -0.0653 -0.3874 -1.4075
18124TIP3   OH275862   6.042   1.950  11.576 -0.5790 -0.1645  0.3511
18124TIP3    H175863   6.024   1.857  11.561 -1.7490  0.4212 -1.9624
18124TIP3    H275864   6.101   1.950  11.652 -1.5753 -2.7127  1.1924
18125TIP3   OH275865   0.322   2.992  16.205 -0.0935 -0.7105  0.1671
18125TIP3    H175866   0.262   3.026  16.272 -0.5756  0.2148 -0.7182
18125TIP3    H275867   0.372   2.924  16.250 -0.0668  0.2385  1.6012
18126TIP3   OH275868   0.804   5.705  11.153  0.3549  0.1900  0.5252
18126TIP3    H175869   0.822   5.622  11.196  0.6618  0.5854  1.1670
18126TIP3    H275870   0.850   5.700  11.069  0.6235 -0.1660  0.6937
18127TIP3   OH275871   0.351   3.669  11.437  0.3366  0.1826  0.4585
18127TIP3    H175872   0.374   3.654  11.345 -0.9402  1.0890 -0.0258
18127TIP3    H275873   0.428   3.710  11.474  1.2296 -1.0993  0.0351
18128TIP3   OH275874   2.654   5.689   0.686 -0.0041  0.0173  0.4387
18128TIP3    H175875   2.734   5.733   0.715 -1.4322  2.7962  0.3893
18128TIP3    H275876   2.659   5.691   0.590  0.2359 -0.5266  0.4392
18129TIP3   OH275877   6.189   0.512  10.330 -0.2609 -0.7632  0.5435
18129TIP3    H175878   6.225   0.424  10.320 -0.7103 -0.9537  0.5621
18129TIP3    H275879   6.248   0.568  10.280 -0.1569 -1.1229  0.2592
18130TIP3   OH275880   1.103   5.303   1.972  0.2931 -0.5879 -0.2585
18130TIP3    H175881   1.076   5.386   1.935  1.5810 -0.1468 -0.2624
18130TIP3    H275882   1.060   5.236   1.919  0.1953  0.0670 -0.9973
18131TIP3   OH275883   5.343   5.079   4.968 -0.0141  0.1942 -0.0381
18131TIP3    H175884   5.377   5.101   4.881 -0.8784  0.6710 -0.2630
18131TIP3    H275885   5.374   4.990   4.985  1.1972  0.5612 -0.3074
18132TIP3   OH275886   5.388   2.352   6.535 -0.7173 -0.2552 -0.2444
18132TIP3    H175887   5.458   2.310   6.484 -0.5747 -0.4465  0.1076
18132TIP3    H275888   5.432   2.425   6.579 -0.7570 -0.3291 -0.0834
18133TIP3   OH275889   5.111   2.501   4.866 -0.6693 -0.3023  0.0423
18133TIP3    H175890   5.166   2.579   4.863  0.5190 -1.1395 -0.6090
18133TIP3    H275891   5.106   2.472   4.775 -1.8582 -0.4711  0.1545
18134TIP3   OH275892   2.677   3.694   1.168 -0.5998 -0.4214 -0.6766
18134TIP3    H175893   2.745   3.720   1.105 -0.4977  1.6338  0.2519
18134TIP3    H275894   2.627   3.774   1.184 -0.6392 -0.9132  1.8548
18135TIP3   OH275895   4.973   5.935   4.192  0.1645  0.1983  0.2470
18135TIP3    H175896   4.927   5.917   4.273 -0.2486  0.8883  0.1696
18135TIP3    H275897   5.050   5.877   4.194 -0.3226 -0.4354  0.7016
18136TIP3   OH275898   1.070   1.954   1.448  0.0818 -0.7373 -0.1311
18136TIP3    H175899   1.110   1.872   1.478 -0.3065 -0.2253  1.8463
18136TIP3    H275900   0.979   1.930   1.428 -0.3274 -0.5850  1.4810
18137TIP3   OH275901   2.998   3.997   5.968  0.2363  0.0625  0.7220
18137TIP3    H175902   2.932   4.008   5.900  1.6316  2.3621 -0.3405
18137TIP3    H275903   3.034   3.910   5.951  0.2776  0.4249 -1.2832
18138TIP3   OH275904   2.878   2.289   0.442  0.4696  1.0406 -0.2593
18138TIP3    H175905   2.787   2.258   0.438  1.3233 -1.4511 -1.5327
18138TIP3    H275906   2.876   2.361   0.505 -1.6824 -1.4521  2.6916
18139TIP3   OH275907   1.796   5.749  13.691  0.3634 -0.1617 -0.1774
18139TIP3    H175908   1.733   5.714  13.755 -1.4986  0.6726 -1.4909
18139TIP3    H275909   1.836   5.824  13.736 -0.1373 -0.2349  0.4059
18140TIP3   OH275910   6.038   4.769  14.774 -0.1925 -0.2604  0.5203
18140TIP3    H175911   6.105   4.795  14.838 -1.7520  0.3053  1.9741
18140TIP3    H275912   5.959   4.756  14.827 -0.9109 -2.2340 -0.9918
18141TIP3   OH275913   4.501   1.909   3.689  0.0363  0.2829  0.4788
18141TIP3    H175914   4.588   1.943   3.670  0.1550 -0.1095  0.3113
18141TIP3    H275915   4.496   1.827   3.639 -0.1158 -0.1238  1.1581
18142TIP3   OH275916   5.048   3.390   0.568  0.1333 -0.1508  0.3023
18142TIP3    H175917   5.067   3.482   0.551  0.0363  0.0753  1.3892
18142TIP3    H275918   4.997   3.361   0.491 -0.8650  1.0181  0.5100
18143TIP3   OH275919   2.462   2.071   4.600  0.0884  0.2006 -0.2403
18143TIP3    H175920   2.498   2.017   4.530  1.2074 -0.1537  0.5916
18143TIP3    H275921   2.527   2.066   4.670  0.4589  3.0039 -0.2997
18144TIP3   OH275922   5.457   4.878   1.243 -0.4299 -0.1468  0.2534
18144TIP3    H175923   5.492   4.939   1.178 -0.1877 -1.1333 -0.5583
18144TIP3    H275924   5.519   4.881   1.316 -0.3861  0.5161  0.1885
18145TIP3   OH275925   6.361   1.486   0.706 -0.2709  0.5500  0.5048
18145TIP3    H175926   6.357   1.407   0.761  0.0259 -0.4098 -0.8252
18145TIP3    H275927   6.362   1.452   0.616  3.6110  1.9036 -0.0401
18146TIP3   OH275928   1.484   3.961   0.083  0.5964  0.2271  0.6692
18146TIP3    H175929   1.444   4.017   0.017 -0.7239 -0.6178  0.7383
18146TIP3    H275930   1.510   3.882   0.035  0.0587 -0.1916  1.0551
18147TIP3   OH275931   0.640   2.200  12.452  0.3013  0.1000 -0.6704
18147TIP3    H175932   0.634   2.128  12.515  1.2932  0.8569  0.3120
18147TIP3    H275933   0.704   2.260  12.490 -1.2600  2.0075 -0.9598
18148TIP3   OH275934   2.784   5.381  15.498  0.4932 -0.9985  0.0943
18148TIP3    H175935   2.844   5.403  15.427 -1.5078  1.2660 -0.9935
18148TIP3    H275936   2.814   5.433  15.572 -0.4146  0.6043 -0.6257
18149TIP3   OH275937   2.304   1.500   0.065 -0.2168  0.1504  0.1519
18149TIP3    H175938   2.325   1.410   0.042  0.6373  0.8860 -2.0750
18149TIP3    H275939   2.213   1.512   0.037  0.4078  0.6494 -1.7574
18150TIP3   OH275940   5.730   3.650  14.688 -0.0595 -0.1110  0.6313
18150TIP3    H175941   5.688   3.610  14.764 -0.6731  0.8136  0.7880
18150TIP3    H275942   5.665   3.710  14.654  0.0786 -0.8003 -0.8652
18151TIP3   OH275943   0.715   2.426   3.258 -0.0513 -0.9691 -0.2771
18151TIP3    H175944   0.807   2.451   3.247 -1.0765  2.8217 -1.0600
18151TIP3    H275945   0.700   2.428   3.352 -0.1323  1.8936 -0.2978
18152TIP3   OH275946   0.323   3.423   1.930 -0.2002  0.0790  0.3701
18152TIP3    H175947   0.249   3.386   1.881 -1.1613  0.9466  1.1358
18152TIP3    H275948   0.383   3.349   1.942 -2.4473 -1.4832  2.5403
18153TIP3   OH275949   4.255   4.718  15.106 -0.3345  0.0254  0.3215
18153TIP3    H175950   4.201   4.782  15.150  0.7654  1.1724  0.0303
18153TIP3    H275951   4.336   4.716  15.157  1.0088  1.4735 -1.6773
18154TIP3   OH275952   6.493   2.512   0.068  0.2733 -0.6788  0.7906
18154TIP3    H175953   6.568   2.469   0.108  0.6939 -0.2441  0.4834
18154TIP3    H275954   6.442   2.545   0.142  0.8555 -0.1930  0.9833
18155TIP3   OH275955   1.257   6.127  17.082  0.0211 -0.0914  0.3733
18155TIP3    H175956   1.211   6.078  17.014 -1.6959  0.2403  1.2398
18155TIP3    H275957   1.299   6.200  17.036 -1.8529  0.6386 -0.2340
18156TIP3   OH275958   6.223   1.002  13.760 -0.4915  0.0193 -0.2026
18156TIP3    H175959   6.309   1.034  13.732 -0.9645  1.6596  0.1365
18156TIP3    H275960   6.242   0.924  13.811  0.7181 -0.2676 -1.0728
18157TIP3   OH275961   1.934   2.109  11.566  0.4287 -0.8380 -0.5799
18157TIP3    H175962   1.933   2.033  11.507  0.0352  0.1523 -1.8904
18157TIP3    H275963   1.844   2.140  11.565  0.7286  0.0439 -0.5933
18158TIP3   OH275964   6.479   2.549   2.617 -0.6914 -0.4016 -0.3301
18158TIP3    H175965   6.457   2.501   2.697  0.2722  0.6728  0.5918
18158TIP3    H275966   6.572   2.570   2.626 -0.8152  0.5832 -1.2839
18159TIP3   OH275967   0.772   1.115  11.039  0.1448 -0.1759  0.2728
18159TIP3    H175968   0.696   1.059  11.023 -0.8480  0.6458  1.9930
18159TIP3    H275969   0.818   1.117  10.956 -1.6155 -0.8441 -0.7410
18160TIP3   OH275970   4.070   1.831  15.779  0.6247 -0.6820 -0.4148
18160TIP3    H175971   4.064   1.886  15.858 -0.8318 -1.9731  0.3966
18160TIP3    H275972   4.155   1.788  15.787  0.4983 -0.7852  0.4437
18161TIP3   OH275973   5.892   4.578  11.088 -0.6598 -0.5188 -0.4405
18161TIP3    H175974   5.818   4.585  11.028  0.3224  0.7302 -1.5346
18161TIP3    H275975   5.929   4.666  11.093  0.7698 -1.1135  0.0597
18162TIP3   OH275976   4.880   5.914   4.465  0.1257  0.0701  0.1965
18162TIP3    H175977   4.789   5.887   4.483 -1.0218  3.0527 -0.9467
18162TIP3    H275978   4.920   5.920   4.552 -0.7859 -1.1623  0.7197
18163TIP3   OH275979   4.049   4.246   0.140 -0.9784 -0.2476 -0.8116
18163TIP3    H175980   3.978   4.185   0.156 -0.0195 -1.1375  0.0814
18163TIP3    H275981   4.045   4.307   0.213 -1.4526  0.3164 -1.2989
18164TIP3   OH275982   4.657   5.014   1.937  0.3506  0.1804  0.1930
18164TIP3    H175983   4.670   5.105   1.964  0.4518  0.2900 -0.2350
18164TIP3    H275984   4.590   4.981   1.998 -0.0138  0.6699  0.0595
18165TIP3   OH275985   3.332   5.606   3.686  0.3938 -0.4746  0.4864
18165TIP3    H175986   3.237   5.618   3.693  0.6894  1.3981  1.5955
18165TIP3    H275987   3.363   5.608   3.776  1.7666  1.5465  0.0053
18166TIP3   OH275988   6.375   1.544   1.074  0.0837  0.2416 -0.2936
18166TIP3    H175989   6.340   1.479   1.013  0.8606  0.1286 -0.6256
18166TIP3    H275990   6.374   1.501   1.159 -1.8334  0.7011 -0.0591
18167TIP3   OH275991   6.556   5.623  13.674 -0.0520 -0.0563  0.6280
18167TIP3    H175992   6.551   5.670  13.757  0.2404  0.6504  0.2424
18167TIP3    H275993   6.465   5.600  13.655  0.0352 -1.6059  1.9245
18168TIP3   OH275994   5.949   5.870   2.867 -0.4307  0.5979  0.1273
18168TIP3    H175995   5.946   5.965   2.856  0.0306  0.5003 -0.9131
18168TIP3    H275996   6.023   5.855   2.926 -0.5421  0.8835  0.3397
18169TIP3   OH275997   2.911   4.399  11.116  0.0132 -0.3749  0.5639
18169TIP3    H175998   2.911   4.316  11.068  3.2749 -0.1265 -0.0081
18169TIP3    H275999   2.955   4.461  11.057  0.1988  1.0199  2.1247
18170TIP3   OH276000   4.752   2.064   3.684  0.6313  0.4344 -0.4727
18170TIP3    H176001   4.736   2.157   3.668  1.4229  0.6743  0.0924
18170TIP3    H276002   4.806   2.035   3.610  1.6030  0.7752  0.0992
18171TIP3   OH276003   0.789   6.153   0.664  0.5306 -0.1193  0.0008
18171TIP3    H176004   0.714   6.122   0.715 -0.1649  1.1086 -0.2476
18171TIP3    H276005   0.809   6.081   0.604  0.1384 -0.8180  0.7069
18172TIP3   OH276006   0.903   3.494   5.891 -0.2413  0.1861  0.1384
18172TIP3    H176007   0.927   3.408   5.925 -0.2345  0.4948  0.9234
18172TIP3    H276008   0.825   3.519   5.941 -1.1454 -0.0115 -1.1293
18173TIP3   OH276009   4.253   2.505  14.347 -0.5234 -0.3965  0.3076
18173TIP3    H176010   4.327   2.471  14.298 -0.2782  0.4814  0.0523
18173TIP3    H276011   4.208   2.563  14.286 -1.1109 -0.5067  0.6322
18174TIP3   OH276012   2.167   4.531  15.815 -0.4425  0.1745  0.2889
18174TIP3    H176013   2.256   4.547  15.846 -0.2549 -2.0515  1.0544
18174TIP3    H276014   2.167   4.437  15.793 -2.4211  0.2948 -0.2733
18175TIP3   OH276015   4.269   1.066   6.031 -0.2423 -0.2698  0.5159
18175TIP3    H176016   4.356   1.078   6.070 -1.1827  3.1721  1.6994
18175TIP3    H276017   4.266   1.130   5.960 -1.3094 -1.4273 -0.5161
18176TIP3   OH276018   1.397   0.819  15.690  0.1333 -0.2021 -0.1566
18176TIP3    H176019   1.303   0.830  15.703  0.0311  0.3062 -1.3078
18176TIP3    H276020   1.406   0.735  15.646  0.4408 -1.6437  2.5579
18177TIP3   OH276021   6.145   6.581  15.537  0.2609 -0.1943 -0.1549
18177TIP3    H176022   6.202   6.512  15.505  0.3810  0.0457 -0.4515
18177TIP3    H276023   6.131   6.560  15.630 -0.6973 -1.3060 -0.5397
18178TIP3   OH276024   0.082   5.120   5.275 -0.5056  0.2149 -0.0176
18178TIP3    H176025   0.024   5.147   5.204 -0.7951  0.2421  0.2294
18178TIP3    H276026   0.059   5.177   5.349  1.7691  2.1910 -0.7456
18179TIP3   OH276027   2.222   4.190   5.651  0.1756  0.2089  0.1970
18179TIP3    H176028   2.294   4.138   5.687  0.8217  1.8544  1.3064
18179TIP3    H276029   2.231   4.276   5.692 -0.2850  1.5357 -2.4115
18180TIP3   OH276030   0.400   4.927  12.292 -0.0594 -0.3715 -0.6444
18180TIP3    H176031   0.442   4.885  12.217 -0.0540 -1.1426 -0.2050
18180TIP3    H276032   0.322   4.875  12.309 -1.0827  0.9234 -1.3062
18181TIP3   OH276033   1.430   0.997   2.001 -0.1424  0.4199  0.1403
18181TIP3    H176034   1.363   1.011   1.934  3.1597 -2.7828 -4.0942
18181TIP3    H276035   1.502   1.055   1.976  0.3544  0.7648  2.2452
18182TIP3   OH276036   5.812   1.223   1.278 -0.0452 -0.0321  0.2276
18182TIP3    H176037   5.751   1.237   1.206  0.6268  1.0586 -0.1483
18182TIP3    H276038   5.858   1.142   1.256 -0.3728 -0.1076 -0.1830
18183TIP3   OH276039   0.923   4.402  15.095  0.3816 -0.1746 -0.6865
18183TIP3    H176040   1.019   4.401  15.094  0.3790  0.4208 -1.7168
18183TIP3    H276041   0.900   4.351  15.173  1.5390  0.0292 -0.1928
18184TIP3   OH276042   2.742   3.116  15.764 -0.2637 -0.1890 -0.1999
18184TIP3    H176043   2.776   3.125  15.853 -0.2879 -0.3918 -0.1685
18184TIP3    H276044   2.702   3.029  15.763 -2.0164  0.5959  0.1928
18185TIP3   OH276045   2.121   4.774   0.046 -0.2434 -0.4042 -0.6487
18185TIP3    H176046   2.098   4.738   0.132  1.7818 -1.2167 -0.4133
18185TIP3    H276047   2.056   4.842   0.030  0.5925  1.1987  2.4817
18186TIP3   OH276048   5.636   6.413   6.090  0.0111  0.3665  0.3804
18186TIP3    H176049   5.654   6.382   6.179 -1.4284 -3.3310 -0.4939
18186TIP3    H276050   5.720   6.407   6.045  0.5102  1.1817  1.2116
18187TIP3   OH276051   2.294   1.165  12.669 -0.0206 -0.1703  0.3672
18187TIP3    H176052   2.378   1.125  12.690 -0.8975 -1.7224  1.0518
18187TIP3    H276053   2.253   1.105  12.607 -1.1800 -0.1363  1.0767
18188TIP3   OH276054   1.879   4.445  12.062 -0.4009  0.2185  0.2234
18188TIP3    H176055   1.787   4.457  12.083 -0.0287  2.1607  0.8354
18188TIP3    H276056   1.916   4.534  12.061  0.9651 -0.3366 -2.2917
18189TIP3   OH276057   6.518   0.644  14.090 -0.1054  0.0867 -0.2882
18189TIP3    H176058   6.594   0.679  14.137  0.1647  0.5526 -1.0666
18189TIP3    H276059   6.454   0.625  14.159  0.5388  0.1349  0.3279
18190TIP3   OH276060   0.257   1.933  15.214 -0.0767 -0.6115  0.0224
18190TIP3    H176061   0.236   1.856  15.267 -0.2498 -0.6107 -0.0444
18190TIP3    H276062   0.347   1.917  15.185 -0.3489 -1.1233 -0.5600
18191TIP3   OH276063   2.369   5.786  12.432  0.1248  0.0691 -0.1318
18191TIP3    H176064   2.458   5.750  12.432  0.6790  1.3280 -2.3477
18191TIP3    H276065   2.327   5.745  12.356 -1.6085 -1.4475  1.6010
18192TIP3   OH276066   3.373   1.532  16.189  0.0231 -0.3664 -0.1108
18192TIP3    H176067   3.317   1.601  16.225 -0.4370 -0.7666 -0.0559
18192TIP3    H276068   3.325   1.451  16.206 -0.5387 -0.5187 -2.2164
18193TIP3   OH276069   6.275   2.119   4.576 -0.7460  0.5020 -0.1003
18193TIP3    H176070   6.246   2.118   4.484  0.4651  1.3515 -0.5011
18193TIP3    H276071   6.357   2.168   4.575 -0.8979  0.8287  1.4980
18194TIP3   OH276072   4.499   1.156   3.222 -0.2502  0.0909 -0.8468
18194TIP3    H176073   4.588   1.162   3.186 -1.1514  1.6662 -2.8930
18194TIP3    H276074   4.443   1.140   3.146 -1.8053 -0.2033  0.3270
18195TIP3   OH276075   1.639   4.270   6.307 -0.2807 -0.4101  0.4322
18195TIP3    H176076   1.623   4.185   6.349 -3.6171  0.2882  0.6791
18195TIP3    H276077   1.672   4.325   6.378  0.0796 -0.9517  0.6938
18196TIP3   OH276078   6.772   3.906   6.625  0.0994 -0.0632 -1.0270
18196TIP3    H176079   6.731   3.831   6.582  0.5575 -0.5086 -0.6938
18196TIP3    H276080   6.856   3.916   6.581 -0.1184  0.4942 -1.3244
18197TIP3   OH276081   1.334   2.542  14.016 -0.2310 -0.2901  0.4034
18197TIP3    H176082   1.368   2.537  13.927 -0.6720  0.7492  0.1642
18197TIP3    H276083   1.240   2.559  14.005 -0.7950 -2.8367  1.0534
18198TIP3   OH276084   4.596   4.655  12.359  0.3512 -0.2329 -0.4944
18198TIP3    H176085   4.595   4.734  12.413 -0.3990 -0.5203 -0.0728
18198TIP3    H276086   4.551   4.681  12.278 -0.1161 -0.2922 -0.2562
18199TIP3   OH276087   1.354   1.303   4.029  0.4582  0.4865 -0.3818
18199TIP3    H176088   1.374   1.306   3.936  0.1163  2.1511 -0.4125
18199TIP3    H276089   1.265   1.269   4.034  1.1275 -1.3745 -0.5414
18200TIP3   OH276090   5.584   4.206   1.739  0.6448 -0.4476  0.4284
18200TIP3    H176091   5.588   4.272   1.670 -0.2463 -1.1321 -0.2933
18200TIP3    H276092   5.549   4.253   1.815  0.0618 -0.0752 -0.0680
18201TIP3   OH276093   4.954   6.482   1.863 -0.0463  0.6550  0.5768
18201TIP3    H176094   5.027   6.443   1.816 -0.9543 -0.0388 -0.2671
18201TIP3    H276095   4.962   6.448   1.952 -0.8251 -1.4941 -0.1348
18202TIP3   OH276096   3.029   2.801   4.399  0.3968  0.1759 -0.2294
18202TIP3    H176097   3.024   2.850   4.317  1.4709  0.2255 -0.2744
18202TIP3    H276098   2.991   2.859   4.465  0.9465  0.7642 -0.4238
18203TIP3   OH276099   2.890   5.548   1.684  0.3913 -0.4523  0.3934
18203TIP3    H176100   2.798   5.573   1.673  0.9716  1.2637 -0.7510
18203TIP3    H276101   2.915   5.589   1.767  0.6332  0.6603 -0.2212
18204TIP3   OH276102   0.265   1.008   3.623 -0.4938 -0.2231  0.4280
18204TIP3    H176103   0.246   1.041   3.535  0.5728 -1.9692 -0.4651
18204TIP3    H276104   0.355   1.037   3.640  0.0132 -1.6074  0.1288
18205TIP3   OH276105   2.862   1.518   1.196  0.0374 -0.4494 -0.2405
18205TIP3    H176106   2.803   1.471   1.256  1.2853 -2.6736 -0.7132
18205TIP3    H276107   2.838   1.486   1.109  1.4984 -0.8972 -0.4868
18206TIP3   OH276108   2.395   3.879   4.032  0.4721 -0.8111  0.5486
18206TIP3    H176109   2.485   3.874   4.065  1.4646 -0.5883 -2.0268
18206TIP3    H276110   2.395   3.954   3.973 -0.7591 -2.2380 -1.3306
18207TIP3   OH276111   4.160   1.375   5.068  0.3675  0.4870 -0.5362
18207TIP3    H176112   4.073   1.366   5.030 -0.9087 -0.8824  2.5393
18207TIP3    H276113   4.165   1.466   5.097 -0.5520  0.2418  0.4188
18208TIP3   OH276114   5.747   1.604   2.081  0.0232  0.0904  0.5662
18208TIP3    H176115   5.749   1.531   2.019  0.1522 -0.3352  1.0787
18208TIP3    H276116   5.654   1.627   2.088  0.0905  0.6899 -0.4407
18209TIP3   OH276117   1.313   1.092   1.705 -0.0548 -0.1854  0.0062
18209TIP3    H176118   1.323   0.997   1.710 -1.9279 -0.3545  1.4930
18209TIP3    H276119   1.224   1.105   1.672 -0.3298  1.0141  1.1493
18210TIP3   OH276120   5.132   1.734   3.488  0.4524  0.1056 -0.4632
18210TIP3    H176121   5.150   1.650   3.446  0.4080 -0.1294 -0.0233
18210TIP3    H276122   5.086   1.785   3.422 -0.9352 -0.7928 -0.2255
18211TIP3   OH276123   0.755   6.266  16.390  0.1640 -0.1083  0.2358
18211TIP3    H176124   0.846   6.294  16.385 -0.2691  1.3477  0.2534
18211TIP3    H276125   0.736   6.264  16.484 -0.8461  3.1062  0.1621
18212TIP3   OH276126   5.751   4.991  12.989 -0.3174 -0.0474 -0.5562
18212TIP3    H176127   5.768   4.897  12.996  0.8358  0.2740  1.4189
18212TIP3    H276128   5.837   5.029  12.970 -0.2644  0.8274  1.2885
18213TIP3   OH276129   6.199   0.994  11.019 -0.0578 -0.2096  0.1308
18213TIP3    H176130   6.244   1.070  10.980  1.4162 -0.4980  1.2116
18213TIP3    H276131   6.107   1.008  11.000  0.5138  0.2387 -2.4512
18214TIP3   OH276132   1.864   3.436   2.216  0.1624 -0.2221  0.3846
18214TIP3    H176133   1.934   3.385   2.175  1.8136  0.0428  2.7365
18214TIP3    H276134   1.852   3.394   2.302 -3.0296 -0.6427 -0.1953
18215TIP3   OH276135   4.575   6.658   1.491 -0.3024 -0.2459 -0.6989
18215TIP3    H176136   4.491   6.701   1.506 -0.4243 -0.2888 -1.2617
18215TIP3    H276137   4.639   6.729   1.492 -0.4532 -0.1025 -1.1968
18216TIP3   OH276138   6.749   0.942   0.165  0.3675  0.5322 -0.1368
18216TIP3    H176139   6.823   0.985   0.208  0.6337 -0.5783  0.5303
18216TIP3    H276140   6.684   1.012   0.155  2.3155  2.0757 -2.7544
18217TIP3   OH276141   1.936   5.225   4.530 -0.3753 -0.2336  0.5582
18217TIP3    H176142   1.848   5.189   4.542 -0.6325 -0.2985 -1.3325
18217TIP3    H276143   1.923   5.319   4.523 -0.9819 -0.5430 -4.6988
18218TIP3   OH276144   1.077   0.041   2.669 -0.5992 -0.5645  0.5425
18218TIP3    H176145   1.035   0.031   2.754  0.6472  3.4215  1.7562
18218TIP3    H276146   1.028   0.111   2.627 -0.9012 -2.1796 -1.8882
18219TIP3   OH276147   1.706   5.415   1.698 -0.4683  0.3050 -0.1994
18219TIP3    H176148   1.725   5.480   1.766  0.2719 -1.2650  1.1318
18219TIP3    H276149   1.688   5.335   1.747  0.7225 -1.0109 -1.8973
18220TIP3   OH276150   3.843   2.618  14.654 -0.1163  0.3012  0.3095
18220TIP3    H176151   3.913   2.557  14.679 -0.8266 -0.3178  0.8199
18220TIP3    H276152   3.802   2.577  14.578 -1.7361 -0.7928  1.7057
18221TIP3   OH276153   3.560   4.157   2.665 -0.2351  0.4303  0.2120
18221TIP3    H176154   3.548   4.250   2.649  1.0347  0.1479 -2.6183
18221TIP3    H276155   3.639   4.133   2.617 -1.2437 -2.3533 -0.2085
18222TIP3   OH276156   0.139   1.991  12.425  0.1296 -0.1899  0.3700
18222TIP3    H176157   0.080   2.064  12.446 -0.3950  0.0655 -1.8324
18222TIP3    H276158   0.225   2.031  12.418  0.1507 -0.1151  1.0419
18223TIP3   OH276159   4.833   4.930  15.631 -0.0463  0.3423 -0.1010
18223TIP3    H176160   4.880   4.986  15.693  0.3632 -1.2217  1.0450
18223TIP3    H276161   4.901   4.900  15.570  0.1415 -0.5320  0.5224
18224TIP3   OH276162   2.778   0.462  10.718 -0.4583 -0.0743  0.6938
18224TIP3    H176163   2.751   0.554  10.710  0.0544 -0.1175 -1.9831
18224TIP3    H276164   2.712   0.414  10.668  1.5928 -0.7238 -1.4565
18225TIP3   OH276165   1.806   3.793  16.770  0.2395  0.2363 -0.0317
18225TIP3    H176166   1.839   3.864  16.826  0.9563  0.1061 -0.2793
18225TIP3    H276167   1.820   3.713  16.821  1.7098  0.0236 -0.7267
18226TIP3   OH276168   1.608   1.888  12.894 -0.4845 -0.1605 -0.3165
18226TIP3    H176169   1.551   1.833  12.948 -0.5909  0.3404  0.0835
18226TIP3    H276170   1.597   1.976  12.929  0.6938 -0.0902 -0.0910
18227TIP3   OH276171   3.893   4.290   4.719  0.1734 -0.2733 -0.1847
18227TIP3    H176172   3.811   4.255   4.685 -0.7208 -0.6467  2.2877
18227TIP3    H276173   3.904   4.374   4.673 -0.2094 -1.4191 -2.4589
18228TIP3   OH276174   0.117   4.365   6.509  0.0062 -0.1492  0.3058
18228TIP3    H176175   0.039   4.420   6.502 -0.3847 -0.7833 -0.4626
18228TIP3    H276176   0.189   4.427   6.519 -0.4905  0.4872 -0.0089
18229TIP3   OH276177   3.596   1.642   2.244 -0.0100  0.6918  0.0681
18229TIP3    H176178   3.628   1.563   2.288 -0.8941  0.1564 -0.2315
18229TIP3    H276179   3.609   1.712   2.308  2.5100  0.6450 -0.3630
18230TIP3   OH276180   5.927   4.957  11.469 -0.2101 -0.5627 -0.6801
18230TIP3    H176181   5.996   5.019  11.494 -1.0604  0.4895 -0.9106
18230TIP3    H276182   5.972   4.873  11.463  0.4497 -0.4700  2.2269
18231TIP3   OH276183   5.115   5.118   2.622  0.5630  0.4544 -0.4907
18231TIP3    H176184   5.168   5.043   2.651 -0.5393 -0.0543  0.2597
18231TIP3    H276185   5.035   5.078   2.588 -0.0089  1.2981 -0.1352
18232TIP3   OH276186   3.924   6.633  10.416  0.3673 -0.2979 -0.0882
18232TIP3    H176187   3.992   6.570  10.440  0.2799 -0.6146 -0.6547
18232TIP3    H276188   3.845   6.600  10.459  0.0710 -1.2202 -1.3100
18233TIP3   OH276189   3.133   2.432  16.453  0.2446  0.0732 -0.0712
18233TIP3    H176190   3.172   2.392  16.375 -0.5471 -0.0125 -0.4224
18233TIP3    H276191   3.066   2.371  16.481  1.0532 -0.2690  1.1419
18234TIP3   OH276192   3.618   6.453   0.258  0.4041 -0.3471 -0.5506
18234TIP3    H176193   3.610   6.546   0.277 -0.7464 -0.2133 -1.6656
18234TIP3    H276194   3.679   6.449   0.184  1.0383 -0.5418 -0.0264
18235TIP3   OH276195   6.185   1.875  11.785  0.3927  0.1613 -0.6429
18235TIP3    H176196   6.148   1.797  11.826 -1.7008  0.4178 -1.9885
18235TIP3    H276197   6.258   1.841  11.732  2.0956 -0.3518  1.9227
18236TIP3   OH276198   4.218   1.831  17.059  0.4979 -0.2604  0.0632
18236TIP3    H176199   4.146   1.892  17.073  0.0173 -0.9420  0.5720
18236TIP3    H276200   4.263   1.828  17.143 -0.0987 -1.4034  0.3490
18237TIP3   OH276201   3.629   6.449   0.578  0.3401  0.2457  1.0219
18237TIP3    H176202   3.647   6.443   0.484 -0.6647  1.5525  0.7281
18237TIP3    H276203   3.552   6.394   0.591  0.3959  0.1758  1.0539
18238TIP3   OH276204   1.844   5.197  13.642  0.4953 -0.1528  0.1186
18238TIP3    H176205   1.863   5.289  13.660  1.5800 -0.5174  0.8964
18238TIP3    H276206   1.906   5.172  13.573 -0.4646 -0.0447 -0.8038
18239TIP3   OH276207   0.596   4.362  14.280 -0.1560 -0.1558  0.5928
18239TIP3    H176208   0.623   4.383  14.370 -2.1291  0.6371  1.0203
18239TIP3    H276209   0.645   4.424  14.226  3.3357 -2.5823  0.8109
18240TIP3   OH276210   6.757   5.760   5.880  0.2355 -0.8961  0.3592
18240TIP3    H176211   6.755   5.710   5.798 -1.1592 -2.8926  1.5913
18240TIP3    H276212   6.836   5.815   5.872  0.5209 -1.5758 -1.9963
18241TIP3   OH276213   4.973   3.637   2.112  0.1464 -0.0860 -0.1650
18241TIP3    H176214   4.979   3.683   2.028  0.7442  0.6604  0.2809
18241TIP3    H276215   5.022   3.556   2.099  1.3587  0.6375 -0.1344
18242TIP3   OH276216   2.515   6.547  12.254 -0.4549 -0.2650 -0.0734
18242TIP3    H176217   2.590   6.519  12.201 -1.1477  0.3376 -1.4000
18242TIP3    H276218   2.504   6.640  12.231  0.2550  0.4626  2.3617
18243TIP3   OH276219   3.770   2.219   3.532  0.0160 -0.4887 -0.2369
18243TIP3    H176220   3.703   2.240   3.597 -0.5806 -0.9664 -0.6916
18243TIP3    H276221   3.739   2.138   3.491 -0.7712  0.9637 -2.6342
18244TIP3   OH276222   6.717   4.931   2.113  0.5357 -0.2717  0.6489
18244TIP3    H176223   6.796   4.944   2.061  0.3853  0.1916  0.5445
18244TIP3    H276224   6.676   5.017   2.118 -0.8239 -0.8174 -0.6656
18245TIP3   OH276225   6.474   0.271   3.787 -0.3995  0.0752 -0.0969
18245TIP3    H176226   6.543   0.328   3.752  0.3240  0.9333  2.6225
18245TIP3    H276227   6.394   0.323   3.778 -0.1263  0.5278  0.0833
18246TIP3   OH276228   6.619   4.327   5.157 -0.4778  0.3781 -0.4029
18246TIP3    H176229   6.556   4.386   5.116  0.0538  1.1800 -0.0865
18246TIP3    H276230   6.595   4.328   5.250 -0.9773 -0.5515 -0.5150
18247TIP3   OH276231   1.450   2.939   4.560 -0.4062 -0.2563 -0.1150
18247TIP3    H176232   1.466   2.845   4.557  0.8172 -0.0830  0.8090
18247TIP3    H276233   1.430   2.962   4.469  2.3934 -0.8820 -0.9489
18248TIP3   OH276234   6.505   2.038   6.082  0.0809  0.7541  0.3151
18248TIP3    H176235   6.549   2.097   6.143 -1.5974  3.0092 -0.5949
18248TIP3    H276236   6.509   1.953   6.125  1.0304  1.8396  2.4736
18249TIP3   OH276237   5.803   3.267  11.436 -0.0482 -0.2184  0.0458
18249TIP3    H176238   5.728   3.299  11.387 -0.8897 -1.5662  0.4344
18249TIP3    H276239   5.862   3.343  11.442 -0.8900  0.5509 -1.1599
18250TIP3   OH276240   3.691   5.516  12.969  0.2827 -0.0254 -0.5148
18250TIP3    H176241   3.706   5.549  13.058  0.8011  2.5756 -1.5360
18250TIP3    H276242   3.720   5.424  12.973  1.6857  0.4610  1.6238
18251TIP3   OH276243   2.391   0.449  15.197  0.1412  0.3607  0.3023
18251TIP3    H176244   2.416   0.357  15.191  1.1831  0.6311  0.4113
18251TIP3    H276245   2.304   0.448  15.237  0.9354 -0.4848  2.0475
18252TIP3   OH276246   3.809   6.424   1.932 -0.5884  0.6384  0.0030
18252TIP3    H176247   3.847   6.498   1.979 -1.0072  1.7689 -1.4057
18252TIP3    H276248   3.862   6.349   1.959  0.0994  1.5139  1.1281
18253TIP3   OH276249   3.582   4.844  12.688 -0.6655 -0.5902 -0.5766
18253TIP3    H176250   3.505   4.900  12.692 -0.1324  0.1197 -0.2392
18253TIP3    H276251   3.641   4.889  12.628  0.3656 -0.0215  0.8247
18254TIP3   OH276252   0.986   4.372  11.804  0.2565 -0.2808 -0.8186
18254TIP3    H176253   1.014   4.409  11.888  2.0570  1.9761 -2.3085
18254TIP3    H276254   0.960   4.449  11.752 -0.3095 -1.5703 -2.4901
18255TIP3   OH276255   2.152   2.464   1.727 -0.2627  0.1359 -0.0261
18255TIP3    H176256   2.149   2.398   1.658  2.3755  1.0183 -1.0362
18255TIP3    H276257   2.154   2.548   1.680 -2.5753  0.9356  1.2197
18256TIP3   OH276258   0.937   5.180  10.703 -0.4557 -0.1165  0.6331
18256TIP3    H176259   0.845   5.180  10.676  0.5682  0.5685 -3.1601
18256TIP3    H276260   0.957   5.088  10.722 -1.0952 -0.7861 -1.7470
18257TIP3   OH276261   2.515   4.713  16.729 -0.0950  0.2020  0.1396
18257TIP3    H176262   2.462   4.755  16.661  0.9436  0.1732 -0.6936
18257TIP3    H276263   2.476   4.626  16.738  0.6483 -0.3168 -1.4550
18258TIP3   OH276264   0.872   3.864   2.087  0.3774 -0.3484 -0.1177
18258TIP3    H176265   0.962   3.849   2.059  1.2067  0.2834  2.0738
18258TIP3    H276266   0.839   3.932   2.028  1.3309 -0.5707 -0.9204
18259TIP3   OH276267   5.537   1.118   3.100 -0.3748 -0.1577  0.4100
18259TIP3    H176268   5.608   1.121   3.165  1.7808  3.1480 -1.9123
18259TIP3    H276269   5.546   1.033   3.058  1.7578 -0.1398  0.7406
18260TIP3   OH276270   5.105   5.372  12.626  0.4421  0.5071 -0.0326
18260TIP3    H176271   5.144   5.459  12.612 -0.9803  1.1329 -0.2237
18260TIP3    H276272   5.111   5.329  12.541 -0.2108  0.9876 -0.3234
18261TIP3   OH276273   2.077   0.186   1.379  0.6022 -0.0123  0.6272
18261TIP3    H176274   2.151   0.246   1.391  0.3265  0.5462 -0.3537
18261TIP3    H276275   2.114   0.113   1.328  0.5042  0.2303  0.2032
18262TIP3   OH276276   3.300   4.596   1.150 -0.3527  0.5361  0.7324
18262TIP3    H176277   3.380   4.639   1.119  0.4423 -0.7295  0.9475
18262TIP3    H276278   3.263   4.554   1.073 -0.7533  1.0389  0.6523
18263TIP3   OH276279   4.671   4.888  12.513 -0.5669  0.3491 -0.0428
18263TIP3    H176280   4.607   4.945  12.470 -0.3853 -1.1186 -2.3646
18263TIP3    H276281   4.736   4.947  12.550 -0.9607  1.6811 -1.4584
18264TIP3   OH276282   4.982   2.336   0.248  0.6352 -0.5845  0.5411
18264TIP3    H176283   4.951   2.427   0.253 -0.6746 -1.0884  2.0496
18264TIP3    H276284   5.076   2.344   0.232  0.2989  1.0150 -0.8503
18265TIP3   OH276285   3.055   3.983  13.399 -0.2592  0.0773  0.4722
18265TIP3    H176286   3.012   3.906  13.360 -0.0247  0.6658 -0.9791
18265TIP3    H276287   2.991   4.017  13.462 -1.3670  0.1196 -0.6497
18266TIP3   OH276288   2.141   2.144   0.548 -0.0648  0.3116 -0.2492
18266TIP3    H176289   2.113   2.056   0.571  0.7494 -0.3173 -1.5980
18266TIP3    H276290   2.221   2.131   0.497  1.6770  1.9567  1.9724
18267TIP3   OH276291   1.041   1.817  16.951 -0.0552  0.4304  0.6309
18267TIP3    H176292   1.042   1.863  17.035  0.1556  1.7490 -0.0786
18267TIP3    H276293   1.134   1.806  16.929 -0.1164  0.8207  0.1776
18268TIP3   OH276294   1.353   4.505  15.443 -0.4598  0.4623 -0.4295
18268TIP3    H176295   1.396   4.561  15.508 -0.1688 -1.1924  0.8111
18268TIP3    H276296   1.372   4.548  15.359  4.7270 -0.8287 -0.0670
18269TIP3   OH276297   6.562   1.722   4.876  0.5168 -0.2896 -0.1515
18269TIP3    H176298   6.575   1.698   4.968 -0.9657  1.7777  0.6572
18269TIP3    H276299   6.485   1.673   4.848  0.6920 -0.5685 -0.1407
18270TIP3   OH276300   2.646   6.692  16.200  0.0788  0.0130 -0.0442
18270TIP3    H176301   2.650   6.785  16.224  0.5856  1.0044 -3.7714
18270TIP3    H276302   2.556   6.679  16.170  0.5406 -0.2469 -1.3111
18271TIP3   OH276303   5.779   2.164   5.961 -0.1506 -0.5373  0.3489
18271TIP3    H176304   5.862   2.199   5.991  0.0880  1.1198 -2.2007
18271TIP3    H276305   5.802   2.087   5.910 -0.1812 -0.0019 -0.4688
18272TIP3   OH276306   1.985   4.648  13.508 -0.4168  0.1501 -0.1886
18272TIP3    H176307   1.924   4.717  13.483  0.9772  1.0769 -1.1134
18272TIP3    H276308   1.959   4.573  13.454 -0.8470  0.4738 -0.4364
18273TIP3   OH276309   2.660   2.162   5.299  0.2743  0.3273  0.3357
18273TIP3    H176310   2.736   2.126   5.255 -0.4761 -1.7950  0.7133
18273TIP3    H276311   2.669   2.135   5.390 -0.2314  1.2573  0.6771
18274TIP3   OH276312   4.622   1.359   2.286  0.2549 -0.8082  0.2230
18274TIP3    H176313   4.609   1.400   2.371  0.8640 -1.6533  0.7297
18274TIP3    H276314   4.684   1.417   2.240 -0.4589 -0.0883  0.1509
18275TIP3   OH276315   3.829   1.179   3.233 -0.5724  0.1191 -0.5556
18275TIP3    H176316   3.853   1.248   3.295 -0.0184 -0.1656 -0.4552
18275TIP3    H276317   3.813   1.226   3.150  0.0685  0.3386 -0.5563
18276TIP3   OH276318   0.581   3.085   2.518 -0.5977 -0.0411  0.3736
18276TIP3    H176319   0.542   3.001   2.542 -1.7664  0.0957 -0.9981
18276TIP3    H276320   0.656   3.061   2.463 -1.5510 -0.1700 -0.8881
18277TIP3   OH276321   1.190   1.921  15.222 -0.1931 -0.6221 -0.1640
18277TIP3    H176322   1.171   1.858  15.153  2.0672 -2.1316  0.5506
18277TIP3    H276323   1.104   1.944  15.257 -1.1048 -2.9512 -0.7601
18278TIP3   OH276324   1.027   0.628  12.576 -0.1024 -0.3683 -0.0613
18278TIP3    H176325   1.001   0.661  12.662 -2.2663 -1.4015 -0.2865
18278TIP3    H276326   0.959   0.659  12.516  1.7735  0.9525 -1.5473
18279TIP3   OH276327   4.036   5.270   0.793  0.3665  0.4177 -0.0107
18279TIP3    H176328   4.018   5.318   0.712  0.0196 -0.3350 -0.3863
18279TIP3    H276329   4.042   5.179   0.766  0.5581  0.1963  0.7708
18280TIP3   OH276330   0.574   4.153  11.428 -0.5073 -0.2572  0.2218
18280TIP3    H176331   0.545   4.236  11.464  0.0105 -0.3006  0.7654
18280TIP3    H276332   0.556   4.158  11.334 -2.5508 -0.4275  0.5946
18281TIP3   OH276333   3.721   5.428  13.963 -0.3047  0.2021  0.2653
18281TIP3    H176334   3.657   5.357  13.954  0.1265 -0.1642  0.0756
18281TIP3    H276335   3.725   5.444  14.058 -0.9147  0.4506  0.2535
18282TIP3   OH276336   3.166   1.659   0.344  0.4998  0.3569  0.2889
18282TIP3    H176337   3.213   1.742   0.340 -0.9566  1.1553 -0.5775
18282TIP3    H276338   3.223   1.596   0.299  0.5326  1.4051 -1.1620
18283TIP3   OH276339   1.220   4.770  15.708 -0.0972  0.2103 -0.4827
18283TIP3    H176340   1.306   4.739  15.679  0.5922  1.8683 -0.2892
18283TIP3    H276341   1.205   4.850  15.656 -2.5330 -1.2442 -2.1354
18284TIP3   OH276342   2.547   0.566  15.594 -0.2165  0.2088 -0.1488
18284TIP3    H176343   2.619   0.583  15.533  0.1616  2.3544  0.8537
18284TIP3    H276344   2.472   0.612  15.555 -0.3182  0.4173  0.2933
18285TIP3   OH276345   0.694   2.150   2.137  0.3426 -0.3807 -0.0798
18285TIP3    H176346   0.778   2.134   2.095  0.7137  1.3349 -0.0152
18285TIP3    H276347   0.681   2.245   2.131 -1.2451 -0.5313  0.5549
18286TIP3   OH276348   1.015   2.562   4.913  0.2531  0.4687  0.2202
18286TIP3    H176349   0.979   2.631   4.857  1.7642  0.2551 -1.0606
18286TIP3    H276350   1.027   2.488   4.853  2.6519  0.4978  0.6556
18287TIP3   OH276351   6.369   0.244  14.359  0.5755 -0.2325 -0.4009
18287TIP3    H176352   6.428   0.192  14.304  1.2437  0.0219  0.0759
18287TIP3    H276353   6.361   0.328  14.313  1.7597  0.2638  0.2898
18288TIP3   OH276354   1.733   2.749   2.684  0.2510  0.0645 -0.6494
18288TIP3    H176355   1.753   2.656   2.676 -1.4894 -0.3003 -1.1347
18288TIP3    H276356   1.639   2.751   2.704  0.4448  1.6898  0.1262
18289TIP3   OH276357   4.936   5.981   3.377  0.4085 -0.5235  0.0203
18289TIP3    H176358   5.015   5.956   3.426  1.8666 -0.9745 -2.4729
18289TIP3    H276359   4.969   6.032   3.304 -1.7782  0.5115 -0.2757
18290TIP3   OH276360   3.459   3.933  17.007  0.7370  0.2492 -0.1710
18290TIP3    H176361   3.425   4.010  16.962 -1.0541 -1.0863 -1.2090
18290TIP3    H276362   3.425   3.939  17.096 -1.0060 -0.3126 -0.7918
18291TIP3   OH276363   1.048   3.975  11.496 -0.3673 -0.0487  0.7807
18291TIP3    H176364   0.978   4.034  11.526 -0.9682 -0.5992  0.4651
18291TIP3    H276365   1.123   3.998  11.550  0.7963  4.2037 -2.3566
18292TIP3   OH276366   4.319   0.694   2.711 -0.1338  0.4008 -0.4146
18292TIP3    H176367   4.410   0.716   2.729 -0.1284  1.0310 -1.1942
18292TIP3    H276368   4.289   0.762   2.651 -0.7938 -0.4300 -1.0456
18293TIP3   OH276369   3.047   3.263  14.429  0.0589  0.2132 -0.0833
18293TIP3    H176370   2.978   3.209  14.390  0.8481 -0.8155 -0.0646
18293TIP3    H276371   3.003   3.312  14.499 -0.7210 -0.1722 -0.2990
18294TIP3   OH276372   2.531   4.442   4.455 -0.0708 -0.3425  0.5260
18294TIP3    H176373   2.572   4.503   4.517 -1.8259  0.4863  0.8873
18294TIP3    H276374   2.514   4.364   4.508  1.1811 -0.7584  0.3317
18295TIP3   OH276375   6.026   5.384  13.492  0.1818  0.6162  0.0153
18295TIP3    H176376   5.948   5.437  13.476  0.7381  1.2763 -0.5649
18295TIP3    H276377   6.015   5.352  13.582 -1.2423 -0.1487 -0.4062
18296TIP3   OH276378   0.105   1.721   2.245  0.0618 -0.3316 -0.8138
18296TIP3    H176379   0.162   1.648   2.223  2.2028  0.7771  0.8237
18296TIP3    H276380   0.020   1.698   2.207  1.0177 -3.0491 -1.4091
18297TIP3   OH276381   2.826   3.904  13.706 -0.3322  0.3136 -0.0073
18297TIP3    H176382   2.753   3.897  13.767  0.2389  0.9476  0.7640
18297TIP3    H276383   2.798   3.969  13.641 -0.8239 -0.1420 -0.2471
18298TIP3   OH276384   5.211   3.716  13.308 -0.3406  0.4729 -0.5743
18298TIP3    H176385   5.159   3.748  13.382 -1.0056 -0.0840 -0.7909
18298TIP3    H276386   5.173   3.630  13.288  1.9821 -0.9019  0.6076
18299TIP3   OH276387   4.438   2.037   2.635 -0.0792  0.1049  0.3969
18299TIP3    H176388   4.353   2.079   2.627  0.2771  0.7403 -0.1332
18299TIP3    H276389   4.498   2.095   2.588  0.8012  0.1428  1.5261
18300TIP3   OH276390   3.336   4.134   6.164  0.3629  0.4196  0.0831
18300TIP3    H176391   3.404   4.201   6.173  1.8501 -0.9903 -0.4702
18300TIP3    H276392   3.356   4.071   6.233  1.0354 -1.2095 -1.5693
18301TIP3   OH276393   0.271   4.132  16.495 -0.4400  0.6302  0.1298
18301TIP3    H176394   0.255   4.198  16.562  0.1623 -0.2290  1.1261
18301TIP3    H276395   0.217   4.058  16.521 -2.7778  1.4724 -2.1458
18302TIP3   OH276396   6.215   3.815   5.316 -0.0686  0.0648 -0.1630
18302TIP3    H176397   6.230   3.809   5.221 -0.7198 -0.1141 -0.2570
18302TIP3    H276398   6.253   3.899   5.341  0.8533 -0.2581 -0.4395
18303TIP3   OH276399   2.022   2.327  13.517  0.1010  0.5436 -0.2973
18303TIP3    H176400   2.013   2.368  13.431  0.0633  0.6740 -0.2318
18303TIP3    H276401   2.116   2.316  13.529  0.0140 -1.6731 -1.3979
18304TIP3   OH276402   6.486   2.145   4.194 -0.4464  0.4841 -0.1532
18304TIP3    H176403   6.541   2.209   4.240  0.7612 -2.0830  2.1301
18304TIP3    H276404   6.405   2.143   4.245  0.7947 -2.1711  1.8550
18305TIP3   OH276405   2.897   1.203   3.866  0.0520  0.0964  0.1942
18305TIP3    H176406   2.962   1.205   3.937  0.7962  0.4166 -0.4887
18305TIP3    H276407   2.944   1.238   3.790 -0.7994 -0.0742 -0.4112
18306TIP3   OH276408   5.654   0.123  13.915 -0.0839  0.1978 -0.6078
18306TIP3    H176409   5.585   0.118  13.981  0.0435  0.0126 -0.4888
18306TIP3    H276410   5.704   0.201  13.939  0.3672 -0.2528 -0.0904
18307TIP3   OH276411   6.284   5.688  12.815 -0.2560 -0.0209  0.1727
18307TIP3    H176412   6.319   5.769  12.853 -0.2332  1.2694 -2.4887
18307TIP3    H276413   6.360   5.646  12.775 -0.3085 -1.2835  1.3783
18308TIP3   OH276414   3.770   5.722  11.448 -0.6220 -0.6097 -0.1807
18308TIP3    H176415   3.814   5.770  11.378  1.8622 -2.5254  0.0122
18308TIP3    H276416   3.770   5.781  11.522  1.2316 -0.4185 -0.3293
18309TIP3   OH276417   3.087   1.155  11.568 -0.0459  0.5673 -0.0394
18309TIP3    H176418   3.077   1.071  11.523 -0.2452  1.3295 -1.4469
18309TIP3    H276419   3.060   1.138  11.658 -0.2291 -0.8359 -0.3540
18310TIP3   OH276420   2.648   5.006  14.882  0.3528  0.7064  0.1603
18310TIP3    H176421   2.649   5.012  14.786 -0.1048 -2.2228 -0.0583
18310TIP3    H276422   2.612   5.090  14.910 -1.4638  0.8365 -2.3318
18311TIP3   OH276423   1.037   5.500  16.365 -0.2220  0.2030 -0.4735
18311TIP3    H176424   1.014   5.562  16.433 -1.4000 -0.6627 -0.0713
18311TIP3    H276425   1.129   5.519  16.345  0.3573  0.0158  1.8337
18312TIP3   OH276426   2.370   2.323   6.194  0.2925  0.6069  0.4653
18312TIP3    H176427   2.286   2.279   6.208 -0.2673  1.1828 -1.0701
18312TIP3    H276428   2.392   2.359   6.280 -1.2264  0.8201  0.7828
18313TIP3   OH276429   2.393   5.070  13.107  0.3952 -0.3435  0.0682
18313TIP3    H176430   2.445   5.039  13.033  2.1823  2.5559  0.0219
18313TIP3    H276431   2.316   5.014  13.108  0.3908 -0.4863 -3.9050
18314TIP3   OH276432   6.195   5.547  16.488  0.3193  0.2542 -0.0004
18314TIP3    H176433   6.244   5.507  16.416  0.5968  1.2423 -0.3713
18314TIP3    H276434   6.260   5.600  16.534 -0.4325  1.6842 -0.5774
18315TIP3   OH276435   0.908   6.164   5.636  0.5337  0.1809 -0.0881
18315TIP3    H176436   0.978   6.123   5.686  1.3021  1.5394 -0.0218
18315TIP3    H276437   0.829   6.149   5.688  0.4728 -2.7524 -0.9563
18316TIP3   OH276438   6.396   4.350  12.903 -0.3015  0.1284 -0.3167
18316TIP3    H176439   6.461   4.355  12.833  0.1344  0.0911  0.0825
18316TIP3    H276440   6.370   4.440  12.918  0.9229  0.3348  0.6919
18317TIP3   OH276441   6.275   6.260  12.367 -0.0639 -0.1324 -0.3225
18317TIP3    H176442   6.193   6.232  12.327  0.5517 -1.8353 -0.4396
18317TIP3    H276443   6.314   6.320  12.304  0.1554 -1.5890 -1.6193
18318TIP3   OH276444   5.753   3.440  12.966  0.0888  0.3540  0.7068
18318TIP3    H176445   5.813   3.365  12.966 -1.7493 -1.1584 -0.5328
18318TIP3    H276446   5.758   3.475  12.877  0.1686  1.0694  0.9919
18319TIP3   OH276447   4.257   6.377  15.847  0.6262  0.3611  0.0725
18319TIP3    H176448   4.307   6.329  15.782  0.8217  0.5381  0.0904
18319TIP3    H276449   4.180   6.323  15.863  2.3917 -1.5386  2.4908
18320TIP3   OH276450   5.129   4.791  13.316 -1.0134 -0.4918  0.1761
18320TIP3    H176451   5.152   4.715  13.262  0.5826  0.3954 -0.4249
18320TIP3    H276452   5.035   4.802  13.303 -0.7913 -0.7732 -1.7910
18321TIP3   OH276453   6.178   0.293  11.931  0.0587  0.6966  0.7140
18321TIP3    H176454   6.210   0.204  11.944 -2.3435 -0.0083  1.9537
18321TIP3    H276455   6.200   0.340  12.011 -1.5561  0.3274  1.3917
18322TIP3   OH276456   0.312   2.965   4.750  0.0794  0.1034  0.6263
18322TIP3    H176457   0.263   2.900   4.701  2.1593  0.2495 -1.7743
18322TIP3    H276458   0.328   3.035   4.687 -0.0076  1.8248  2.4698
18323TIP3   OH276459   1.579   6.075   6.509 -0.2881  0.1840  0.0097
18323TIP3    H176460   1.670   6.103   6.499  0.0783 -0.6621  0.9202
18323TIP3    H276461   1.575   5.990   6.465 -1.0073  0.8734 -1.3176
18324TIP3   OH276462   2.649   6.079  16.299 -0.1197 -0.2235 -0.5874
18324TIP3    H176463   2.573   6.094  16.243 -0.0392  0.3817 -0.5471
18324TIP3    H276464   2.628   6.126  16.380  0.7836  0.9269 -1.0004
18325TIP3   OH276465   3.566   2.263   4.528 -0.1427 -0.2502  0.2257
18325TIP3    H176466   3.540   2.281   4.618  1.8276 -0.6546  0.8899
18325TIP3    H276467   3.545   2.343   4.480 -1.7320 -0.2325  0.9038
18326TIP3   OH276468   1.007   3.022   0.244  0.1796 -0.1043 -0.2271
18326TIP3    H176469   0.954   2.984   0.173 -0.3118  1.1378 -0.5329
18326TIP3    H276470   0.950   3.017   0.321  0.1548 -0.0888 -0.2445
18327TIP3   OH276471   4.092   5.385   0.358  0.3650 -0.4955  0.4904
18327TIP3    H176472   4.125   5.310   0.309 -2.6121 -4.3666  4.0049
18327TIP3    H276473   4.000   5.391   0.333  0.5812  2.1761  0.1696
18328TIP3   OH276474   5.663   2.075   0.512 -0.0965 -0.0905 -0.2599
18328TIP3    H176475   5.630   2.149   0.563  1.4592  0.3569  0.1263
18328TIP3    H276476   5.633   2.091   0.423  1.1406  1.5847 -0.3954
18329TIP3   OH276477   1.076   5.276   0.079 -0.5028 -0.1100 -0.1494
18329TIP3    H176478   1.058   5.246   0.168  0.4466 -0.2949 -0.0190
18329TIP3    H276479   1.072   5.196   0.026 -2.2378  0.1660 -0.4631
18330TIP3   OH276480   0.763   4.549   2.273  0.1859 -0.3675 -0.1506
18330TIP3    H176481   0.722   4.564   2.188  0.8422  4.0437  0.1671
18330TIP3    H276482   0.734   4.622   2.327  0.2890 -2.7530  3.2753
18331TIP3   OH276483   2.775   1.801   3.025 -0.5720  0.4941 -0.2932
18331TIP3    H176484   2.773   1.800   3.120 -2.3197  0.9927 -0.3096
18331TIP3    H276485   2.744   1.888   3.000  1.9000  1.1234 -1.3021
18332TIP3   OH276486   4.489   0.719  15.318  0.3249 -0.7376 -0.4071
18332TIP3    H176487   4.584   0.705  15.322  0.1846 -2.5911 -2.4840
18332TIP3    H276488   4.467   0.712  15.225 -2.1882 -2.8628  0.2781
18333TIP3   OH276489   6.064   4.378  12.327 -0.1752 -0.6636  0.9873
18333TIP3    H176490   5.993   4.431  12.290 -0.3563  0.2472  2.6373
18333TIP3    H276491   6.126   4.368  12.254 -0.3042  1.4915  0.5419
18334TIP3   OH276492   3.632   3.669  13.911 -0.3577  0.3468 -0.0502
18334TIP3    H176493   3.588   3.594  13.869 -0.9414  1.6312 -1.7729
18334TIP3    H276494   3.574   3.694  13.983 -0.5673 -0.3396  0.0229
18335TIP3   OH276495   4.810   2.619  10.948 -0.5081  1.0063  0.1384
18335TIP3    H176496   4.897   2.581  10.942 -0.8719  0.0153  0.9489
18335TIP3    H276497   4.825   2.713  10.954  0.4539  0.9143 -0.7179
18336TIP3   OH276498   2.848   1.786  11.667 -0.3329 -0.2425 -0.0522
18336TIP3    H176499   2.831   1.692  11.654  1.4311 -0.7970  1.4028
18336TIP3    H276500   2.851   1.797  11.762  2.2127  0.7291 -0.2012
18337TIP3   OH276501   0.200   5.327   0.997 -0.0859 -0.3674 -0.3330
18337TIP3    H176502   0.164   5.241   1.019  0.3886 -0.5558 -0.2843
18337TIP3    H276503   0.289   5.325   1.032 -0.2760  0.3714  0.1931
18338TIP3   OH276504   4.495   5.988   0.717  0.2996  0.2029 -0.1885
18338TIP3    H176505   4.405   5.969   0.744  0.7878 -0.5942  0.9091
18338TIP3    H276506   4.487   6.012   0.624 -1.1396  0.9771  0.1212
18339TIP3   OH276507   5.874   5.363   5.838 -0.7154 -0.3623 -0.1085
18339TIP3    H176508   5.914   5.389   5.922 -0.1596 -0.2699 -0.3971
18339TIP3    H276509   5.929   5.404   5.772 -0.9750 -0.6896 -0.5289
18340TIP3   OH276510   2.530   0.932  13.661  0.1138 -0.6309  0.0864
18340TIP3    H176511   2.466   1.000  13.639  1.6152  0.0560 -2.4155
18340TIP3    H276512   2.613   0.980  13.669  0.2827 -1.4143  3.8408
18341TIP3   OH276513   3.282   2.191   5.100  0.5047 -0.1442  0.1263
18341TIP3    H176514   3.226   2.266   5.081  0.0800 -0.9133 -1.7979
18341TIP3    H276515   3.231   2.139   5.162  0.8219  1.1570  1.5004
18342TIP3   OH276516   6.790   5.127  15.397 -0.5307 -0.4817 -0.2231
18342TIP3    H176517   6.787   5.202  15.456  0.3652 -1.1685  0.7227
18342TIP3    H276518   6.726   5.146  15.329 -2.2903 -0.1349  1.5193
18343TIP3   OH276519   2.328   4.713  13.782 -0.5921  0.1369  0.5501
18343TIP3    H176520   2.408   4.763  13.798 -0.7792 -0.0014  1.9737
18343TIP3    H276521   2.350   4.623  13.806 -0.5051 -0.3342 -1.2294
18344TIP3   OH276522   0.929   2.588   6.437 -0.2472  0.2488  0.1073
18344TIP3    H176523   0.881   2.641   6.501  0.7596 -0.1561  1.2265
18344TIP3    H276524   0.871   2.583   6.361 -2.2111 -0.7009  1.6324
18345TIP3   OH276525   6.465   4.173  17.139 -0.9844 -0.9038 -0.1586
18345TIP3    H176526   6.489   4.181  17.047 -0.4942 -0.8944 -0.0288
18345TIP3    H276527   6.371   4.191  17.141 -0.6835  0.7433 -0.4253
18346TIP3   OH276528   3.573   0.353   5.523  0.0647 -0.6140  0.0574
18346TIP3    H176529   3.530   0.438   5.518 -2.3961 -1.8038  0.4354
18346TIP3    H276530   3.632   0.360   5.598 -0.0513  0.7692  0.0251
18347TIP3   OH276531   0.397   3.200  13.764 -0.0492 -0.2926  0.1582
18347TIP3    H176532   0.358   3.116  13.740  0.6949 -0.1466 -1.6008
18347TIP3    H276533   0.403   3.248  13.681  0.9380  0.9115  0.9211
18348TIP3   OH276534   1.458   4.321   5.197  0.0824  0.0991  0.4867
18348TIP3    H176535   1.400   4.279   5.134 -0.5638  2.2355 -0.3871
18348TIP3    H276536   1.540   4.272   5.191 -0.8152 -1.3383 -0.1205
18349TIP3   OH276537   2.419   0.229   1.238 -0.1653  0.1080  0.2676
18349TIP3    H176538   2.504   0.231   1.194 -1.0264 -2.5856 -1.6551
18349TIP3    H276539   2.359   0.273   1.177 -0.4476  0.6388  0.9214
18350TIP3   OH276540   3.356   1.202  12.699 -0.5565  0.2564 -0.0830
18350TIP3    H176541   3.418   1.202  12.772  0.0654 -1.5308 -0.5919
18350TIP3    H276542   3.310   1.285  12.707 -0.7483 -0.0442  2.5902
18351TIP3   OH276543   5.521   1.319  14.539 -0.5381  0.2594  0.1808
18351TIP3    H176544   5.470   1.334  14.460 -2.1496 -1.4132  0.8802
18351TIP3    H276545   5.512   1.400  14.590 -0.3056  0.9595 -0.8902
18352TIP3   OH276546   4.098   4.461  14.951 -0.2017 -0.5673  0.4863
18352TIP3    H176547   4.096   4.525  14.880  0.2994 -1.4686 -0.3601
18352TIP3    H276548   4.097   4.376  14.906  1.5762 -1.1569  1.4949
18353TIP3   OH276549   6.217   4.091  15.847 -0.0499 -0.7236  0.4248
18353TIP3    H176550   6.185   4.012  15.803 -0.8491  0.3884 -1.0599
18353TIP3    H276551   6.209   4.071  15.940  0.1756 -2.5514  0.0739
18354TIP3   OH276552   4.774   2.713  12.394 -0.9110 -0.0575  0.0872
18354TIP3    H176553   4.831   2.737  12.466 -2.5120 -0.0458  1.3780
18354TIP3    H276554   4.767   2.792  12.341  0.0429  0.0111  0.0527
18355TIP3   OH276555   3.430   5.291  12.006  0.2756  0.2748  0.5758
18355TIP3    H176556   3.337   5.272  11.992  0.8475 -1.9533 -0.2688
18355TIP3    H276557   3.435   5.318  12.098 -0.9106 -1.4985  1.1853
18356TIP3   OH276558   3.853   4.400   1.828 -0.1556 -0.1110 -0.1182
18356TIP3    H176559   3.785   4.337   1.847 -0.1614 -0.4481 -1.2161
18356TIP3    H276560   3.931   4.348   1.812 -0.0966  0.1700 -0.7654
18357TIP3   OH276561   5.994   2.003   0.358  0.4380 -0.2898 -0.1091
18357TIP3    H176562   5.923   2.030   0.416 -0.1221  1.2275 -1.4570
18357TIP3    H276563   6.047   1.943   0.411 -0.7562  0.0667  1.5316
18358TIP3   OH276564   2.037   1.932   1.456 -0.1014  0.1459 -0.1014
18358TIP3    H176565   2.065   1.975   1.375 -0.7382  2.3678  0.7920
18358TIP3    H276566   2.078   1.846   1.454  1.2408  0.8009 -1.9972
18359TIP3   OH276567   5.279   3.823   3.857  0.0979 -0.2436 -0.5192
18359TIP3    H176568   5.283   3.728   3.871  0.1889  0.1099  1.9474
18359TIP3    H276569   5.230   3.857   3.931 -1.2809  1.5094 -2.1652
18360TIP3   OH276570   6.424   1.636  13.846 -0.2660  0.0766  0.1998
18360TIP3    H176571   6.381   1.648  13.930 -1.6491  0.2005 -0.5135
18360TIP3    H276572   6.447   1.725  13.818 -3.5694  0.4992 -1.4716
18361TIP3   OH276573   3.797   4.899  13.956 -0.1203  0.1061 -0.2307
18361TIP3    H176574   3.847   4.964  13.907 -0.2927  0.5425  0.1772
18361TIP3    H276575   3.709   4.903  13.919 -0.7519  1.8107  1.4363
18362TIP3   OH276576   6.552   2.610   6.195 -0.1551 -0.3350 -0.1964
18362TIP3    H176577   6.486   2.561   6.245 -1.3628  2.7353  1.3105
18362TIP3    H276578   6.502   2.669   6.139  1.2827  0.1673 -0.9943
18363TIP3   OH276579   1.268   6.144  11.024 -0.0164 -0.2205  0.7347
18363TIP3    H176580   1.323   6.210  10.982  0.6386 -1.0755  0.2406
18363TIP3    H276581   1.254   6.077  10.957 -2.5371  0.4728  0.5230
18364TIP3   OH276582   1.866   0.577  15.143 -0.3572  0.3274  0.8398
18364TIP3    H176583   1.919   0.655  15.160 -0.6288  0.6625  0.1204
18364TIP3    H276584   1.928   0.504  15.155  0.7754  0.7955 -1.8908
18365TIP3   OH276585   1.436   5.541  12.885  0.4540 -0.1309  0.3218
18365TIP3    H176586   1.376   5.583  12.947  0.7417  0.1907  0.3844
18365TIP3    H276587   1.477   5.614  12.838  1.9056 -0.2944  1.3203
18366TIP3   OH276588   5.687   5.139  13.570 -0.3386 -0.6810 -0.2321
18366TIP3    H176589   5.755   5.181  13.517  0.7236 -1.2836  0.6336
18366TIP3    H276590   5.636   5.212  13.605  2.4652  0.0633  2.5760
18367TIP3   OH276591   1.921   5.396   2.504  0.2758 -0.2325 -0.8236
18367TIP3    H176592   1.894   5.467   2.563 -1.6733  0.6662 -2.7227
18367TIP3    H276593   1.981   5.344   2.556 -0.8484  0.9154  1.7453
18368TIP3   OH276594   1.099   6.793  13.274 -0.3151  0.0372 -0.4950
18368TIP3    H176595   1.109   6.888  13.274  1.4822 -0.0700  2.2183
18368TIP3    H276596   1.146   6.764  13.195 -0.3435  1.3476 -1.0075
18369TIP3   OH276597   0.319   6.645   1.497 -0.1049  0.0322 -0.0352
18369TIP3    H176598   0.308   6.740   1.493  0.0561  0.0011 -1.6537
18369TIP3    H276599   0.236   6.609   1.467 -1.2711 -0.4052  3.5348
18370TIP3   OH276600   6.319   4.631  14.815 -0.0853 -1.0451 -0.7759
18370TIP3    H176601   6.365   4.713  14.836 -1.3291 -0.5549  0.1129
18370TIP3    H276602   6.277   4.606  14.897 -1.5054 -1.4151 -1.6007
18371TIP3   OH276603   0.285   3.316  16.131  0.3522 -0.2043 -0.1915
18371TIP3    H176604   0.264   3.245  16.191  0.8918 -0.1585  0.0599
18371TIP3    H276605   0.216   3.314  16.065 -0.3733 -0.1004  0.5614
18372TIP3   OH276606   3.234   2.626  14.057 -0.2609 -0.0909  0.5255
18372TIP3    H176607   3.141   2.642  14.041 -0.1647  0.2815  0.3214
18372TIP3    H276608   3.264   2.581  13.979 -0.1449  0.3031  0.3399
18373TIP3   OH276609   1.239   5.062   5.803 -0.0531 -0.3642  0.2141
18373TIP3    H176610   1.253   4.977   5.845  1.3501 -1.3119 -2.1168
18373TIP3    H276611   1.197   5.041   5.720  0.6326  1.2067 -0.5376
18374TIP3   OH276612   0.986   5.686   0.799  0.0716  0.4888 -0.4254
18374TIP3    H176613   0.982   5.672   0.705 -4.1644 -0.7501 -0.1453
18374TIP3    H276614   1.022   5.604   0.834 -2.2474 -0.6840 -0.6946
18375TIP3   OH276615   0.152   1.828  16.910 -0.0009 -0.3220 -0.3592
18375TIP3    H176616   0.193   1.793  16.831  2.0371  1.4795 -0.1178
18375TIP3    H276617   0.193   1.779  16.982  1.0069  0.7800 -0.1803
18376TIP3   OH276618   6.627   3.025  12.001 -0.0870 -0.1089 -0.2406
18376TIP3    H176619   6.706   2.976  12.024  0.5412  1.3844  0.8505
18376TIP3    H276620   6.582   3.039  12.084 -0.4991  0.7660 -0.6024
18377TIP3   OH276621   3.607   0.613  12.670  0.4266  0.3828  0.1309
18377TIP3    H176622   3.698   0.607  12.699  0.3328  2.0445  0.8146
18377TIP3    H276623   3.591   0.707  12.659 -0.5639  0.0036 -2.0562
18378TIP3   OH276624   5.090   5.351   2.225  0.3419 -0.3071 -0.2838
18378TIP3    H176625   5.132   5.268   2.202  1.8485  0.2012  0.5751
18378TIP3    H276626   5.087   5.350   2.321  1.6704  1.2582 -0.2028
18379TIP3   OH276627   1.485   0.221  17.046  0.0084 -0.2147  0.3192
18379TIP3    H176628   1.493   0.207  17.140 -1.6479 -1.2356  0.3149
18379TIP3    H276629   1.400   0.183  17.022 -0.0147  0.8600 -1.4266
18380TIP3   OH276630   4.303   3.086  14.408  0.2674 -0.0843  0.1166
18380TIP3    H176631   4.266   3.001  14.430  1.4780 -1.4904 -2.9813
18380TIP3    H276632   4.397   3.071  14.401  0.4841  1.4811 -0.5901
18381TIP3   OH276633   6.687   3.570   0.004  0.2680 -0.2128 -0.1006
18381TIP3    H176634   6.737   3.601  -0.072 -0.0710  0.0058 -0.2392
18381TIP3    H276635   6.659   3.481  -0.020  0.0895 -0.1114 -0.2662
18382TIP3   OH276636   1.679   0.766   5.086  0.0580  0.3640  0.0619
18382TIP3    H176637   1.764   0.767   5.128 -0.1350 -0.0103  0.4682
18382TIP3    H276638   1.653   0.858   5.080  0.1224  0.4216  0.6903
18383TIP3   OH276639   5.512   4.493   5.230 -0.0441 -0.3583 -0.2684
18383TIP3    H176640   5.468   4.419   5.272 -0.3090 -0.6846 -1.1201
18383TIP3    H276641   5.467   4.570   5.265  0.6250 -0.5566  1.0812
18384TIP3   OH276642   5.863   4.557   1.774 -0.8729  0.1576 -0.5359
18384TIP3    H176643   5.781   4.605   1.764 -0.3720  0.7101 -2.2724
18384TIP3    H276644   5.922   4.618   1.817 -1.7767 -0.7327  2.0203
18385TIP3   OH276645   4.245   1.282   5.325 -0.1395  0.4395  0.4274
18385TIP3    H176646   4.179   1.351   5.325  0.6997  1.2736  1.2681
18385TIP3    H276647   4.236   1.238   5.241 -3.1417 -0.8091  1.3499
18386TIP3   OH276648   4.179   4.228  11.589  0.3059 -0.2187 -0.0071
18386TIP3    H176649   4.155   4.159  11.527  1.7930  0.4159 -1.3239
18386TIP3    H276650   4.266   4.203  11.621 -0.6083 -0.7371  2.1338
18387TIP3   OH276651   6.185   0.666   3.817 -0.0210 -1.2464  0.2032
18387TIP3    H176652   6.108   0.629   3.860 -0.4221 -3.1628 -2.0258
18387TIP3    H276653   6.260   0.629   3.865 -0.4818 -0.2710  1.6722
18388TIP3   OH276654   2.756   4.996  17.117 -0.2836  0.0662 -0.0577
18388TIP3    H176655   2.798   4.989  17.032 -0.5799  1.0434 -0.2950
18388TIP3    H276656   2.685   4.931  17.116  0.0482 -0.2857 -0.3556
18389TIP3   OH276657   0.244   1.941   2.354  0.3528  0.0029 -0.4561
18389TIP3    H176658   0.199   1.881   2.294 -0.1011  0.7982 -0.9157
18389TIP3    H276659   0.315   1.979   2.301  2.2435 -1.9928  0.5360
18390TIP3   OH276660   3.350   5.975   0.699  0.3418 -0.8133 -0.6833
18390TIP3    H176661   3.432   5.979   0.748 -0.5219 -0.5036  0.7669
18390TIP3    H276662   3.342   6.061   0.658  1.1162 -1.1075 -1.4835
18391TIP3   OH276663   5.609   3.788   2.165  0.0983  0.2232  0.6771
18391TIP3    H176664   5.543   3.753   2.104  0.2504  2.5482 -0.8913
18391TIP3    H276665   5.677   3.720   2.168 -0.4698 -0.4427 -0.8368
18392TIP3   OH276666   3.798   4.695  16.262  0.0257  0.1303  0.2052
18392TIP3    H176667   3.882   4.677  16.304  1.2750 -0.1525 -2.3595
18392TIP3    H276668   3.735   4.646  16.314  1.4446  0.2299  2.0847
18393TIP3   OH276669   2.905   6.817   3.510 -0.0500  0.7230 -0.2416
18393TIP3    H176670   2.810   6.822   3.501 -0.3028 -1.1601  1.1895
18393TIP3    H276671   2.936   6.792   3.423 -0.9317  0.4813 -0.4889
18394TIP3   OH276672   0.183   1.780  16.533  0.2340  0.2298  0.2633
18394TIP3    H176673   0.106   1.837  16.524 -0.7012 -1.1539 -0.7520
18394TIP3    H276674   0.151   1.694  16.507  1.9599 -0.5016  0.5555
18395TIP3   OH276675   5.776   1.234   4.415 -0.1533 -0.0551 -0.1763
18395TIP3    H176676   5.807   1.143   4.416  1.4005  0.4390  1.3086
18395TIP3    H276677   5.723   1.242   4.495  1.0776  0.7557  0.5816
18396TIP3   OH276678   1.780   2.742  11.902  0.2289 -0.5790 -0.5949
18396TIP3    H176679   1.800   2.796  11.825  0.8974 -1.7381 -1.2474
18396TIP3    H276680   1.750   2.659  11.865  1.6598 -1.5496  0.3890
18397TIP3   OH276681   3.299   6.718   6.568  0.0710  0.3016 -0.8669
18397TIP3    H176682   3.272   6.730   6.477 -2.3315 -0.9273 -0.3541
18397TIP3    H276683   3.217   6.708   6.617  1.3624 -0.4598  1.2439
18398TIP3   OH276684   6.541   4.110   3.016 -0.6894  0.9871  0.3361
18398TIP3    H176685   6.541   4.017   3.037  0.8575  0.3525 -2.2910
18398TIP3    H276686   6.503   4.115   2.928  0.6589  2.6390 -0.1872
18399TIP3   OH276687   2.437   2.355  15.415 -0.1270 -0.3947  0.5918
18399TIP3    H176688   2.373   2.284  15.422  0.0040 -0.6561 -0.6903
18399TIP3    H276689   2.393   2.431  15.455 -0.7709 -0.8650  0.7866
18400TIP3   OH276690   5.243   1.125   1.868 -0.3637 -0.0961  0.5165
18400TIP3    H176691   5.202   1.039   1.858 -0.1465 -0.2153  0.6264
18400TIP3    H276692   5.288   1.140   1.785  0.4942 -0.5747  0.8870
18401TIP3   OH276693   0.656   5.511  15.849 -0.0245  0.8073  0.1065
18401TIP3    H176694   0.582   5.451  15.857  0.3250  0.1864 -1.2998
18401TIP3    H276695   0.712   5.489  15.924 -0.1099 -0.3264 -0.1521
18402TIP3   OH276696   3.601   4.733   1.735  0.5375 -0.3594 -0.6309
18402TIP3    H176697   3.675   4.785   1.765  0.2448  0.5203 -1.4127
18402TIP3    H276698   3.524   4.780   1.767  0.2822 -0.6300 -0.8427
18403TIP3   OH276699   0.638   2.958  12.208  0.1726 -0.1637 -0.2568
18403TIP3    H176700   0.703   2.985  12.143  0.9449  0.1970  0.6533
18403TIP3    H276701   0.569   2.915  12.157  0.8783 -0.0883 -1.2851
18404TIP3   OH276702   2.232   1.065  11.468  0.6877 -0.2889 -0.4071
18404TIP3    H176703   2.218   1.015  11.388  3.1808 -1.7091 -0.0389
18404TIP3    H276704   2.226   0.999  11.538  0.8656  0.4957  0.3527
18405TIP3   OH276705   0.762   0.533   6.356  0.6217 -0.1755  0.1809
18405TIP3    H176706   0.669   0.547   6.372  1.0974  1.6013  1.6422
18405TIP3    H276707   0.805   0.565   6.436  2.3776 -2.6341  0.2801
18406TIP3   OH276708   0.040   5.456   0.592  0.3322  0.6758 -0.2358
18406TIP3    H176709   0.016   5.411   0.512 -1.1036  1.1370 -0.0821
18406TIP3    H276710   0.123   5.416   0.618  0.7692  0.4672 -1.8899
18407TIP3   OH276711   0.787   3.514  12.596 -0.2174 -0.3783 -0.5743
18407TIP3    H176712   0.784   3.445  12.662 -0.3755  0.3458  0.1841
18407TIP3    H276713   0.827   3.472  12.519  3.5173 -0.2328  1.1869
18408TIP3   OH276714   3.681   1.133  16.711  0.3340 -0.3675 -0.5739
18408TIP3    H176715   3.711   1.145  16.801 -1.0178  0.2956 -0.2008
18408TIP3    H276716   3.601   1.184  16.705  0.6728 -0.0064 -2.3071
18409TIP3   OH276717   4.360   0.352   4.307  0.2729  0.3810  0.3625
18409TIP3    H176718   4.419   0.314   4.372  1.7219  2.7024  0.4712
18409TIP3    H276719   4.416   0.410   4.255 -1.7055  1.8056 -0.2464
18410TIP3   OH276720   1.899   1.057  14.880 -0.1767 -0.0839 -0.1107
18410TIP3    H176721   1.894   1.152  14.879 -1.4440 -0.0860 -4.3500
18410TIP3    H276722   1.828   1.030  14.939 -2.7002  1.6036 -2.2171
18411TIP3   OH276723   4.514   3.740  12.641  0.0012  0.2491 -0.4810
18411TIP3    H176724   4.450   3.707  12.578  1.0572  1.3630 -2.1870
18411TIP3    H276725   4.550   3.818  12.599  1.1006  0.7257  1.3042
18412TIP3   OH276726   6.728   1.329  16.314 -0.2574  0.2948  0.4423
18412TIP3    H176727   6.659   1.297  16.373  0.2652  0.7386  1.3023
18412TIP3    H276728   6.691   1.317  16.226  0.0395 -2.9594  0.6835
18413TIP3   OH276729   5.140   3.425  16.709  0.3774 -0.1818 -0.1436
18413TIP3    H176730   5.175   3.401  16.623  2.8795  0.5593  0.6361
18413TIP3    H276731   5.058   3.470  16.689 -0.2112 -1.9855 -2.0248
18414TIP3   OH276732   5.226   4.702   1.123 -0.0539 -0.2647  0.3232
18414TIP3    H176733   5.308   4.750   1.123  0.6127 -1.3952  0.6314
18414TIP3    H276734   5.210   4.680   1.215 -0.8796  0.2468  0.3109
18415TIP3   OH276735   6.309   1.556  13.458 -0.2629  0.5366  0.2807
18415TIP3    H176736   6.268   1.601  13.532 -0.2121  0.8732  0.1075
18415TIP3    H276737   6.246   1.489  13.432 -0.9008  1.3474 -0.2680
18416TIP3   OH276738   4.267   4.350  11.849 -0.3340  0.4244 -0.0194
18416TIP3    H176739   4.335   4.286  11.828  0.4170  1.3161 -0.3653
18416TIP3    H276740   4.185   4.302  11.839  0.2240 -0.5627  0.0178
18417TIP3   OH276741   0.676   6.123   4.734 -0.3298  0.1991 -0.0746
18417TIP3    H176742   0.731   6.046   4.730 -0.0656  0.5047 -4.2907
18417TIP3    H276743   0.591   6.094   4.700 -0.7985  1.2829  0.1467
18418TIP3   OH276744   0.478   3.433  16.299  0.1039  0.1097 -0.2511
18418TIP3    H176745   0.497   3.339  16.311  0.9156  0.2921 -0.1007
18418TIP3    H276746   0.422   3.436  16.221 -0.5506 -0.5695  0.1743
18419TIP3   OH276747   3.522   0.500   6.054  0.9262 -0.1181  0.2232
18419TIP3    H176748   3.517   0.430   6.119  1.5154  0.1395  0.5600
18419TIP3    H276749   3.503   0.458   5.970 -0.9371 -0.2439  0.6887
18420TIP3   OH276750   4.241   2.912  14.116 -0.0605  0.3945 -0.7286
18420TIP3    H176751   4.226   3.005  14.131  0.1546  0.6163 -1.8853
18420TIP3    H276752   4.311   2.908  14.051 -0.8427 -0.5628 -1.5310
18421TIP3   OH276753   0.694   2.212   5.212  0.0294 -0.5984  0.1497
18421TIP3    H176754   0.674   2.228   5.120 -0.0807 -1.3655  0.0304
18421TIP3    H276755   0.749   2.285   5.239  0.3069 -0.5272 -0.6111
18422TIP3   OH276756   4.877   5.164  16.659  0.2175  0.4322  0.2562
18422TIP3    H176757   4.791   5.148  16.619 -0.9377  1.3276  2.3050
18422TIP3    H276758   4.893   5.257  16.647  1.1196  0.1877 -0.5043
18423TIP3   OH276759   1.516   2.550   1.469  0.6597  0.3579  0.8081
18423TIP3    H176760   1.581   2.615   1.444 -0.8924  1.0915 -1.5185
18423TIP3    H276761   1.443   2.600   1.504  0.0420 -0.2085  0.3538
18424TIP3   OH276762   2.814   1.115  15.061 -0.3148 -0.0424 -0.3245
18424TIP3    H176763   2.742   1.118  14.997 -0.3289 -2.2917 -0.4888
18424TIP3    H276764   2.892   1.096  15.008  0.1079  0.7083  0.0344
18425TIP3   OH276765   5.149   0.992  14.226 -0.2747 -0.2023 -0.6801
18425TIP3    H176766   5.241   1.010  14.245 -0.7714  0.2473  1.4001
18425TIP3    H276767   5.142   0.897  14.229  0.3712 -0.3040 -2.1080
18426TIP3   OH276768   0.613   0.720   1.058  0.3151  0.6384  0.1891
18426TIP3    H176769   0.617   0.717   1.153  1.3864 -1.9431  0.1008
18426TIP3    H276770   0.522   0.699   1.037 -0.3042  2.7640  0.6573
18427TIP3   OH276771   1.348   5.644   0.864 -0.8534 -0.0308 -0.5295
18427TIP3    H176772   1.425   5.587   0.869 -1.5706 -1.0805 -1.1294
18427TIP3    H276773   1.306   5.636   0.950 -1.0382 -0.5501 -0.6641
18428TIP3   OH276774   5.242   2.221   0.224 -0.0903 -0.6735  0.3658
18428TIP3    H176775   5.207   2.138   0.189  1.7672 -0.9628 -0.8747
18428TIP3    H276776   5.259   2.274   0.147  1.5147 -0.2694  0.9797
18429TIP3   OH276777   5.453   4.073   0.405 -0.0554 -0.0046  0.0497
18429TIP3    H176778   5.432   3.985   0.436  0.8246 -0.4637 -0.6238
18429TIP3    H276779   5.525   4.060   0.344  0.5052  1.2589  0.4240
18430TIP3   OH276780   4.204   5.616   4.565 -0.3928 -0.5614  0.5428
18430TIP3    H176781   4.269   5.605   4.497 -1.4499  1.1039 -0.8011
18430TIP3    H276782   4.254   5.639   4.643  0.7823 -1.7804  0.1519
18431TIP3   OH276783   4.579   0.233   2.451 -0.4328  0.6607 -0.3552
18431TIP3    H176784   4.558   0.229   2.357 -3.2513  1.3435  0.1922
18431TIP3    H276785   4.580   0.327   2.471  0.6911  0.5311  0.1943
18432TIP3   OH276786   1.291   6.767   6.214 -0.1582 -0.6381 -0.0300
18432TIP3    H176787   1.347   6.840   6.240 -1.1217  0.2876 -0.5082
18432TIP3    H276788   1.350   6.691   6.213  0.6271 -0.0712  1.4782
18433TIP3   OH276789   6.585   3.105   3.633  0.1767 -0.1113 -0.0860
18433TIP3    H176790   6.645   3.091   3.560 -0.0142  1.9720 -0.6748
18433TIP3    H276791   6.642   3.123   3.708  0.3124  1.8207 -0.6353
18434TIP3   OH276792   2.755   4.140  12.992 -0.0092 -0.0498 -0.3065
18434TIP3    H176793   2.836   4.168  12.949 -0.1641  0.5483 -0.2124
18434TIP3    H276794   2.710   4.221  13.014  0.7947 -0.3038  2.3969
18435TIP3   OH276795   1.164   4.329   2.857  0.0891  0.2423 -0.4500
18435TIP3    H176796   1.208   4.380   2.925  0.3518 -1.1713  0.4629
18435TIP3    H276797   1.219   4.339   2.780  0.2240  1.1904 -0.2385
18436TIP3   OH276798   3.139   2.974  13.094  0.2419  0.3847 -0.3342
18436TIP3    H176799   3.058   3.011  13.129  1.8540  2.6777  1.1186
18436TIP3    H276800   3.131   2.984  12.999 -1.3665  0.1723 -0.2238
18437TIP3   OH276801   1.891   3.921  16.530  0.2575  0.0008 -0.0504
18437TIP3    H176802   1.815   3.978  16.540 -1.4135 -2.2248  0.3093
18437TIP3    H276803   1.868   3.842  16.579  2.7146 -0.8072 -0.1280
18438TIP3   OH276804   6.010   4.631  15.840  0.4567  0.1501 -0.3648
18438TIP3    H176805   5.970   4.554  15.799  1.3959  0.0391 -1.0892
18438TIP3    H276806   6.048   4.599  15.921 -1.2997  0.3424  0.5551
18439TIP3   OH276807   1.712   5.946   5.911 -0.4709  0.4382  0.3598
18439TIP3    H176808   1.723   5.935   6.006  0.4690  0.4055  0.2486
18439TIP3    H276809   1.755   5.869   5.873 -1.0732  0.3203 -0.0881
18440TIP3   OH276810   1.186   4.393  14.004 -0.1443  0.4772 -0.1426
18440TIP3    H176811   1.123   4.427  13.941 -0.3296 -0.3750 -0.4253
18440TIP3    H276812   1.134   4.374  14.082  0.2965  2.7738  0.7535
18441TIP3   OH276813   5.115   6.620  16.832  0.5059 -0.4499  0.7224
18441TIP3    H176814   5.173   6.612  16.907 -0.9020 -3.0397  1.5963
18441TIP3    H276815   5.061   6.697  16.851  1.1736 -0.1976  1.6297
18442TIP3   OH276816   4.451   5.653   0.483  0.1452 -0.5496 -0.5411
18442TIP3    H176817   4.535   5.696   0.469 -0.7927  0.8867 -1.8424
18442TIP3    H276818   4.386   5.712   0.444 -1.8465  0.0283  3.3990
18443TIP3   OH276819   5.171   5.067   5.682  0.2771 -0.5043  0.1238
18443TIP3    H176820   5.125   5.140   5.641  1.9455  0.3323 -0.2628
18443TIP3    H276821   5.106   5.028   5.741 -1.1769  0.1664 -1.0093
18444TIP3   OH276822   6.573   4.040  16.594 -0.4614  0.2797  0.0956
18444TIP3    H176823   6.628   4.085  16.530  1.8263 -0.9362  1.1458
18444TIP3    H276824   6.550   3.957  16.553  1.1307 -0.5652  0.8753
18445TIP3   OH276825   6.041   2.208   4.275 -0.0487  0.2722  0.6837
18445TIP3    H176826   5.974   2.183   4.211 -0.4560  0.7839  0.9085
18445TIP3    H276827   6.034   2.303   4.281 -0.6217  0.1462  2.1469
18446TIP3   OH276828   5.049   3.568  12.858  0.2484  0.4842 -0.0956
18446TIP3    H176829   5.079   3.655  12.885  0.6902  0.7455 -1.3939
18446TIP3    H276830   5.126   3.511  12.870 -0.4433 -0.0435  2.1141
18447TIP3   OH276831   2.094   0.824  16.471  0.2089 -0.0361  0.1331
18447TIP3    H176832   2.051   0.780  16.398  0.0158  1.1338 -0.4682
18447TIP3    H276833   2.029   0.885  16.505  0.1404 -0.9078  1.5898
18448TIP3   OH276834   4.226   0.446   0.687 -0.2108  0.2086  0.5362
18448TIP3    H176835   4.297   0.432   0.624  0.0482 -1.8590  1.2643
18448TIP3    H276836   4.154   0.393   0.654 -0.8704  0.9611  0.7410
18449TIP3   OH276837   3.612   4.069   1.451  0.3668 -0.0243 -0.0679
18449TIP3    H176838   3.517   4.084   1.459  0.4940 -0.2145  1.8618
18449TIP3    H276839   3.637   4.028   1.533  2.1039 -0.1720 -0.6598
18450TIP3   OH276840   5.327   2.567  12.688 -0.2370 -0.2478  0.3888
18450TIP3    H176841   5.302   2.551  12.597 -0.5905  0.6114  0.3327
18450TIP3    H276842   5.368   2.653  12.687  1.2666 -0.9531  0.7635
18451TIP3   OH276843   5.369   5.616   3.621  0.0145 -0.0783 -0.1169
18451TIP3    H176844   5.297   5.591   3.680  1.7700 -1.2421  1.5833
18451TIP3    H276845   5.333   5.602   3.533 -2.3035  0.6815  0.6600
18452TIP3   OH276846   4.634   4.739  14.260  0.3591  0.3610  0.1094
18452TIP3    H176847   4.638   4.649  14.226 -0.5002  0.5930 -0.6462
18452TIP3    H276848   4.712   4.748  14.313  0.9796 -0.5120 -0.6300
18453TIP3   OH276849   6.549   2.235  15.388  0.2856  0.0736  0.2445
18453TIP3    H176850   6.614   2.179  15.430  0.4878  0.1154 -0.0109
18453TIP3    H276851   6.595   2.318  15.372  0.0775  0.2106  0.3474
18454TIP3   OH276852   2.597   1.694  15.898 -0.1677  0.0832 -0.1039
18454TIP3    H176853   2.691   1.684  15.914 -0.4324  0.3887  1.7432
18454TIP3    H276854   2.574   1.776  15.942 -1.8495 -1.4687  2.0200
18455TIP3   OH276855   1.264   4.013   5.412  0.0382 -0.1008  0.1026
18455TIP3    H176856   1.285   4.089   5.466 -0.7230 -0.8794  1.5199
18455TIP3    H276857   1.335   3.951   5.431  0.7470  0.2933 -1.1736
18456TIP3   OH276858   6.609   2.294  16.216 -0.0020  0.1747 -0.3875
18456TIP3    H176859   6.683   2.344  16.182  0.2627 -2.4591 -3.9855
18456TIP3    H276860   6.647   2.237  16.282  0.0624  3.0787  2.1604
18457TIP3   OH276861   3.863   6.702  11.531  0.1215 -0.1876 -0.4993
18457TIP3    H176862   3.773   6.712  11.501  0.4174 -0.3481 -1.4490
18457TIP3    H276863   3.915   6.699  11.451  1.5609  4.9518  0.0543
18458TIP3   OH276864   1.262   2.468   5.827  0.0107 -0.2476  0.7791
18458TIP3    H176865   1.191   2.482   5.890  1.2071  0.9147  1.9134
18458TIP3    H276866   1.249   2.537   5.762  0.6975  0.6280  1.5554
18459TIP3   OH276867   1.466   4.725   5.474  0.3079 -0.5397  0.3408
18459TIP3    H176868   1.388   4.669   5.476  0.1457 -0.3399 -0.1353
18459TIP3    H276869   1.539   4.665   5.461 -0.1028 -0.4727 -2.9368
18460TIP3   OH276870   0.661   4.197   4.422  0.2820 -0.4296 -0.0679
18460TIP3    H176871   0.676   4.266   4.357 -0.5834 -1.9917 -1.9657
18460TIP3    H276872   0.733   4.136   4.409  1.8151  0.7127  2.5241
18461TIP3   OH276873   3.153   1.214   2.124  0.4924 -0.4318  0.5762
18461TIP3    H176874   3.177   1.246   2.036 -0.2300  2.0909  1.2357
18461TIP3    H276875   3.068   1.172   2.111  1.2916 -1.8131 -0.2704
18462TIP3   OH276876   4.020   2.694   2.381  0.0682 -0.0694 -0.2665
18462TIP3    H176877   3.946   2.755   2.390  0.2867  0.4046 -1.5578
18462TIP3    H276878   3.979   2.608   2.372 -0.4015  0.4052 -2.8037
18463TIP3   OH276879   4.434   3.088  16.346  0.0123  0.5197 -0.3588
18463TIP3    H176880   4.475   3.082  16.432  3.1199  0.4422 -1.7870
18463TIP3    H276881   4.357   3.143  16.360  1.0714  1.4173  2.2578
18464TIP3   OH276882   6.652   4.127   2.009  0.0366 -0.5476  0.4461
18464TIP3    H176883   6.630   4.050   1.956 -1.2565  0.7687 -0.9968
18464TIP3    H276884   6.598   4.118   2.088 -0.5069 -0.8559  0.0459
18465TIP3   OH276885   2.457   2.120  13.226 -0.1016  0.3774  0.1788
18465TIP3    H176886   2.397   2.083  13.161  1.2482 -0.4617 -0.6043
18465TIP3    H276887   2.463   2.213  13.201 -1.4762  0.5972  0.5944
18466TIP3   OH276888   2.989   3.049   3.166  0.0098 -0.4331  0.7873
18466TIP3    H176889   3.055   3.041   3.235  1.5208 -1.4377 -0.7534
18466TIP3    H276890   3.012   3.128   3.119 -0.0385 -0.6547  0.3915
18467TIP3   OH276891   0.613   5.348   0.420  0.2154  0.2161 -0.4112
18467TIP3    H176892   0.606   5.263   0.377 -0.8905 -0.1277  0.4109
18467TIP3    H276893   0.696   5.345   0.468 -0.9151 -1.3111  1.5145
18468TIP3   OH276894   3.683   2.677  14.247 -0.6390 -0.3966 -0.2002
18468TIP3    H176895   3.591   2.651  14.248 -0.7242 -0.1881 -1.5276
18468TIP3    H276896   3.708   2.672  14.155  0.8224 -0.9406  0.2244
18469TIP3   OH276897   0.044   3.872   5.842 -0.0491 -0.1246  0.0477
18469TIP3    H176898   0.042   3.886   5.748  0.6986  3.1854  0.4803
18469TIP3    H276899   0.137   3.878   5.865 -0.3637  0.4761  1.1949
18470TIP3   OH276900   1.481   1.562  13.297  0.0383 -0.4544  0.5538
18470TIP3    H176901   1.487   1.585  13.389  1.6877 -0.8804  0.5803
18470TIP3    H276902   1.395   1.521  13.287 -0.2153 -0.2496  1.8638
18471TIP3   OH276903   0.012   4.834  12.113 -0.0608 -0.1091  0.3520
18471TIP3    H176904  -0.069   4.885  12.104 -0.6460 -1.0470  0.1898
18471TIP3    H276905   0.072   4.874  12.050 -0.9590 -0.4624 -0.7577
18472TIP3   OH276906   3.234   3.092   4.693 -0.0047  0.5468 -0.1241
18472TIP3    H176907   3.264   3.109   4.603 -0.8775 -0.0124 -0.5308
18472TIP3    H276908   3.311   3.107   4.747  0.4574  1.1699 -0.9425
18473TIP3   OH276909   0.222   5.884  14.803 -0.9062 -0.4065 -0.0966
18473TIP3    H176910   0.159   5.814  14.784  0.4006 -2.2836  2.1474
18473TIP3    H276911   0.188   5.925  14.882  0.3328 -1.0359  0.7767
18474TIP3   OH276912   3.576   3.312   5.003 -0.2032  0.8409  0.0552
18474TIP3    H176913   3.667   3.340   5.011  0.6612 -2.1777  1.4763
18474TIP3    H276914   3.550   3.290   5.092 -1.6426 -0.4017 -0.6518
18475TIP3   OH276915   2.004   0.304   2.936  0.5957  0.0208 -0.2469
18475TIP3    H176916   2.024   0.346   2.852 -0.8115  0.0492 -0.5871
18475TIP3    H276917   1.934   0.357   2.973 -0.7351 -1.6070 -0.3546
18476TIP3   OH276918   2.478   0.310   3.982  0.2159 -0.0432 -0.4928
18476TIP3    H176919   2.442   0.315   3.893  1.5740  1.8418 -0.9725
18476TIP3    H276920   2.421   0.248   4.028  0.1364 -1.8475 -2.9638
18477TIP3   OH276921   6.389   4.030   5.168  0.4518  0.6002 -0.1095
18477TIP3    H176922   6.353   3.973   5.101 -0.3699 -0.4706  1.2302
18477TIP3    H276923   6.353   4.117   5.147 -0.3028  0.1549 -0.6775
18478TIP3   OH276924   0.185   5.342  16.881 -1.1211  0.0282 -0.0782
18478TIP3    H176925   0.189   5.435  16.904 -1.1194 -0.5233  2.2473
18478TIP3    H276926   0.180   5.342  16.786 -1.5913  2.4343 -0.1002
18479TIP3   OH276927   1.380   5.273  12.850 -0.3468 -0.4930  0.1037
18479TIP3    H176928   1.324   5.257  12.926 -0.8714 -0.2888 -0.2439
18479TIP3    H276929   1.410   5.363  12.860 -1.1252 -0.1745 -0.3929
18480TIP3   OH276930   0.634   6.749   5.652 -0.2856  0.3133  0.9348
18480TIP3    H176931   0.589   6.829   5.680 -0.4261  0.4252  0.4071
18480TIP3    H276932   0.564   6.692   5.620 -0.0673  0.4566  0.1851
18481TIP3   OH276933   5.517   3.936   3.782 -0.1645  0.5523  0.2498
18481TIP3    H176934   5.479   3.997   3.718  1.7502 -0.2773 -1.7608
18481TIP3    H276935   5.442   3.889   3.818 -1.1908 -0.4054 -2.9477
18482TIP3   OH276936   1.573   0.372  11.801 -0.5661 -0.5856 -0.0500
18482TIP3    H176937   1.627   0.450  11.788  1.8643 -1.6708  3.0119
18482TIP3    H276938   1.484   0.405  11.804  0.0365  1.5209 -2.9306
18483TIP3   OH276939   2.522   4.827   2.293  0.2160 -0.5351  0.1848
18483TIP3    H176940   2.445   4.776   2.315  0.8596 -1.4654  0.3167
18483TIP3    H276941   2.574   4.769   2.237  1.0940 -0.1366  0.5798
18484TIP3   OH276942   3.653   2.234   3.009  0.3343 -0.2717 -0.7002
18484TIP3    H176943   3.618   2.146   3.023  1.5514 -0.7437 -0.5498
18484TIP3    H276944   3.709   2.226   2.931 -0.2024  0.5578 -1.1758
18485TIP3   OH276945   6.305   3.883   2.258 -0.1556 -0.0486  0.3291
18485TIP3    H176946   6.234   3.946   2.246 -1.6718 -1.6735  0.5651
18485TIP3    H276947   6.352   3.914   2.335 -1.6164  0.1413  1.1548
18486TIP3   OH276948   3.990   4.363   3.072 -0.2540 -0.2552  0.3816
18486TIP3    H176949   3.909   4.392   3.114 -0.4199 -1.2306  0.7577
18486TIP3    H276950   4.047   4.337   3.144  1.2803  2.5825  0.2535
18487TIP3   OH276951   2.778   0.784  15.952  0.4792 -0.1749 -0.4882
18487TIP3    H176952   2.851   0.737  15.991  0.2738 -0.6611 -0.6871
18487TIP3    H276953   2.701   0.732  15.973  0.4729 -0.9297 -2.2920
18488TIP3   OH276954   2.749   2.888   2.935  0.0602 -0.1755 -0.6010
18488TIP3    H176955   2.754   2.866   3.028 -0.7032 -0.0722 -0.5255
18488TIP3    H276956   2.838   2.877   2.902  0.3804  0.0086  0.1929
18489TIP3   OH276957   5.018   4.574  16.574  0.0912  0.0326 -0.1785
18489TIP3    H176958   5.035   4.520  16.651 -1.2495  1.8069  1.4093
18489TIP3    H276959   4.927   4.603  16.584  0.0750  0.7781 -2.1418
18490TIP3   OH276960   2.408   3.991   2.877  0.0497 -0.2838  0.5551
18490TIP3    H176961   2.371   3.917   2.829 -0.9529 -0.0572  0.9736
18490TIP3    H276962   2.371   3.984   2.965  1.2441 -0.2272  1.0679
18491TIP3   OH276963   6.186   2.003  16.027 -0.2781 -0.2064 -0.4791
18491TIP3    H176964   6.104   1.991  16.076  0.3001  0.9025  0.7887
18491TIP3    H276965   6.161   2.052  15.949 -0.8731 -0.1451 -0.2490
18492TIP3   OH276966   0.858   0.668   4.782 -0.0992 -0.3705  0.3935
18492TIP3    H176967   0.907   0.632   4.856  1.8431  0.7391 -0.3075
18492TIP3    H276968   0.861   0.599   4.715 -0.7643 -0.8717  0.8737
18493TIP3   OH276969   0.245   3.280  14.670  0.3994 -0.2723 -0.2433
18493TIP3    H176970   0.258   3.374  14.675  0.3798 -0.3423  1.7193
18493TIP3    H276971   0.324   3.247  14.627 -0.3808  0.7774 -2.5595
18494TIP3   OH276972   5.505   1.806  15.805  0.5843 -0.5103 -0.0806
18494TIP3    H176973   5.433   1.749  15.778  1.4966 -1.7028 -0.0772
18494TIP3    H276974   5.556   1.753  15.866 -0.2981  1.4444  2.4643
18495TIP3   OH276975   1.149   6.131   0.296  0.8402  0.7377 -0.1387
18495TIP3    H176976   1.244   6.141   0.284  1.1909 -0.8723  1.1060
18495TIP3    H276977   1.136   6.142   0.390 -0.0735 -0.0120 -0.1748
18496TIP3   OH276978   4.261   1.581   1.780 -0.2035 -0.5059  0.0060
18496TIP3    H176979   4.195   1.517   1.808  0.5211 -1.7401 -1.0195
18496TIP3    H276980   4.210   1.651   1.738 -0.8308 -1.8331 -1.5057
18497TIP3   OH276981   4.950   4.893   5.094  0.1643  0.1211 -0.7959
18497TIP3    H176982   4.998   4.892   5.012 -0.1541  0.7030 -0.9920
18497TIP3    H276983   4.874   4.948   5.077 -0.8673 -1.2374 -0.6545
18498TIP3   OH276984   0.237   1.263  13.401 -1.1643 -0.3185  0.0134
18498TIP3    H176985   0.194   1.221  13.326  0.9709  1.4873 -2.3526
18498TIP3    H276986   0.301   1.199  13.430 -0.5069 -0.2122 -1.1542
18499TIP3   OH276987   2.720   5.159   3.665  0.0449 -0.3534  0.5087
18499TIP3    H176988   2.672   5.127   3.741 -0.0226 -0.3977  0.4466
18499TIP3    H276989   2.734   5.082   3.611  2.3838 -0.8351  1.7100
18500TIP3   OH276990   3.306   3.869  13.141 -0.0867 -0.1941  0.4772
18500TIP3    H176991   3.229   3.886  13.087  0.1633 -0.6922 -0.0375
18500TIP3    H276992   3.318   3.949  13.192 -0.3153  0.2808 -0.2102
18501TIP3   OH276993   5.159   4.099  12.223  0.0934 -0.5356 -0.4132
18501TIP3    H176994   5.213   4.161  12.271  0.7194 -0.2358 -1.4820
18501TIP3    H276995   5.134   4.033  12.287 -1.1067  1.1485  0.8893
18502TIP3   OH276996   2.457   1.388   4.936  0.1043  0.5393 -0.2513
18502TIP3    H176997   2.397   1.365   5.007  0.1490 -2.3834 -1.0869
18502TIP3    H276998   2.543   1.391   4.977  0.4255 -3.2190 -0.4815
18503TIP3   OH276999   6.269   3.642  16.868  0.0561 -0.2012  0.1435
18503TIP3    H177000   6.237   3.731  16.882  0.5885  0.1438 -0.8420
18503TIP3    H277001   6.300   3.614  16.954 -1.3177  0.0807  0.7403
18504TIP3   OH277002   4.054   1.965  14.245 -0.0092  0.7144 -0.3496
18504TIP3    H177003   3.961   1.947  14.262  0.3776  1.3639  2.6690
18504TIP3    H277004   4.056   2.055  14.213 -0.6238 -0.0624 -2.6462
18505TIP3   OH277005   1.713   3.173  12.794  0.1989  0.0651  0.1324
18505TIP3    H177006   1.721   3.077  12.798 -0.3967 -0.1213 -2.5191
18505TIP3    H277007   1.803   3.204  12.806  0.2248 -0.7298  2.3827
18506TIP3   OH277008   4.781   2.563   1.623 -0.1053 -0.0333  0.2998
18506TIP3    H177009   4.854   2.567   1.685  0.6008 -1.5401 -0.4180
18506TIP3    H277010   4.705   2.590   1.675  0.6618 -0.1711  1.5243
18507TIP3   OH277011   2.860   1.686  13.670  0.3235  0.2681  0.1825
18507TIP3    H177012   2.877   1.732  13.588  0.8146 -1.5698 -0.7758
18507TIP3    H277013   2.779   1.725  13.703  0.3164  1.2707 -0.9903
18508TIP3   OH277014   6.747   4.504   6.278 -0.1162 -0.4903  0.0221
18508TIP3    H177015   6.754   4.547   6.193 -0.0511 -2.9821 -1.3026
18508TIP3    H277016   6.756   4.410   6.258  0.9292 -1.0684  2.8886
18509TIP3   OH277017   3.345   6.012  16.183 -0.7159 -0.0973 -0.0303
18509TIP3    H177018   3.408   6.035  16.251 -1.3879  2.9575 -0.3519
18509TIP3    H277019   3.260   6.031  16.221 -1.2661 -1.1737 -0.7001
18510TIP3   OH277020   2.762   1.473  10.782  0.3544  0.3761 -0.1440
18510TIP3    H177021   2.848   1.495  10.745 -0.1741 -0.4219 -1.9102
18510TIP3    H277022   2.706   1.547  10.758  0.3519  0.5156  0.2930
18511TIP3   OH277023   4.923   6.176   5.951 -0.1004 -0.1365 -0.7975
18511TIP3    H177024   4.880   6.094   5.975 -0.8337  0.3699 -0.3704
18511TIP3    H277025   4.851   6.236   5.929  0.4823 -0.1915 -3.0510
18512TIP3   OH277026   6.202   6.770  14.894 -0.3907  0.0892 -0.0479
18512TIP3    H177027   6.149   6.716  14.835 -1.4924  1.6623 -0.5495
18512TIP3    H277028   6.232   6.843  14.839 -0.7078  1.1085  1.1034
18513TIP3   OH277029   1.638   3.559  11.298  0.1267 -0.0518  0.6766
18513TIP3    H177030   1.698   3.507  11.244  0.7278  1.3041  0.0066
18513TIP3    H277031   1.555   3.555  11.252 -0.1744 -1.4801  1.3136
18514TIP3   OH277032   2.879   4.614  16.603 -0.0472  0.1517 -0.0919
18514TIP3    H177033   2.929   4.539  16.635  2.8333  1.4056 -1.4075
18514TIP3    H277034   2.906   4.686  16.660 -0.7055  0.7597 -0.5466
18515TIP3   OH277035   5.289   5.589   1.213 -0.2019 -0.3747  0.5540
18515TIP3    H177036   5.280   5.608   1.306 -1.3626 -2.6786  0.9482
18515TIP3    H277037   5.379   5.556   1.203  0.3824  1.1872  0.6033
18516TIP3   OH277038   4.437   3.111   5.501 -0.1575  1.0957  0.1716
18516TIP3    H177039   4.451   3.066   5.583  0.9790  1.2858  0.0862
18516TIP3    H277040   4.523   3.147   5.477 -0.2572  0.2324 -1.5753
18517TIP3   OH277041   3.579   5.196  16.608  0.3065 -0.1841 -0.3840
18517TIP3    H177042   3.586   5.104  16.583  1.1017  0.5703 -3.0742
18517TIP3    H277043   3.667   5.221  16.636 -0.3331 -0.7229  2.2272
18518TIP3   OH277044   4.414   3.213  11.192 -0.0779  0.4692  0.5324
18518TIP3    H177045   4.383   3.170  11.113  0.8098 -1.5153  1.2397
18518TIP3    H277046   4.498   3.172  11.211 -0.3284  0.8309  2.5703
18519TIP3   OH277047   4.027   4.231  15.597 -0.5336  0.0872  0.2535
18519TIP3    H177048   4.020   4.197  15.686 -0.7366 -3.7581 -1.1681
18519TIP3    H277049   4.091   4.302  15.604  0.5042 -1.0626  3.2008
18520TIP3   OH277050   6.316   2.369   2.252  0.0436  0.3434 -0.4526
18520TIP3    H177051   6.406   2.401   2.258  0.4569 -0.9018  0.3954
18520TIP3    H277052   6.266   2.425   2.312  1.3192 -2.3926  3.4291
18521TIP3   OH277053   2.660   0.936   2.731 -0.4179 -0.5748  0.3564
18521TIP3    H177054   2.750   0.929   2.762  0.1958 -1.2054 -1.4919
18521TIP3    H277055   2.638   0.848   2.701 -0.8869  0.0643 -1.2123
18522TIP3   OH277056   1.412   0.472  12.673  0.1064 -0.0828 -0.6019
18522TIP3    H177057   1.340   0.437  12.621  0.4149 -1.8917  0.1645
18522TIP3    H277058   1.371   0.500  12.754 -0.2690  2.1442 -1.5139
18523TIP3   OH277059   5.590   6.650  15.046 -0.1120 -0.0756  0.3719
18523TIP3    H177060   5.588   6.633  14.952 -1.5107 -0.3400  0.4376
18523TIP3    H277061   5.662   6.595  15.079  0.7873  0.5016 -0.6249
18524TIP3   OH277062   5.109   1.225   2.795  0.3939 -0.0590 -0.3915
18524TIP3    H177063   5.102   1.204   2.702  0.3571 -0.4851 -0.2928
18524TIP3    H277064   5.167   1.158   2.831  2.4251  1.5572 -0.5765
18525TIP3   OH277065   2.273   4.171  12.933 -0.1230 -0.3995  0.0355
18525TIP3    H177066   2.236   4.228  12.867  0.4938 -0.3861 -0.3035
18525TIP3    H277067   2.207   4.103  12.947 -1.2581  0.8869  1.0996
18526TIP3   OH277068   4.837   6.297   5.600  0.1046  0.4181 -1.0361
18526TIP3    H177069   4.780   6.298   5.677 -2.9544 -1.9982 -3.1364
18526TIP3    H277070   4.797   6.359   5.540 -1.4797 -2.6053 -3.2362
18527TIP3   OH277071   6.577   1.047   3.426 -0.0648 -0.6712 -0.8548
18527TIP3    H177072   6.516   1.025   3.356  0.5644 -0.4967 -1.4554
18527TIP3    H277073   6.549   0.993   3.500 -0.7289 -0.8511 -1.2383
18528TIP3   OH277074   1.089   3.183   2.791  0.6793 -0.8693  0.3493
18528TIP3    H177075   1.172   3.228   2.775 -0.0359  0.4760  0.2917
18528TIP3    H277076   1.052   3.228   2.867 -1.5118  0.7960 -1.5853
18529TIP3   OH277077   5.986   5.014  13.732  0.4450 -0.1676 -0.0707
18529TIP3    H177078   5.987   5.104  13.764  2.2781  0.5206 -1.9753
18529TIP3    H277079   5.895   4.999  13.706  0.3803  1.5750 -0.9320
18530TIP3   OH277080   0.239   1.412  12.698 -0.4706 -0.3105 -0.2529
18530TIP3    H177081   0.161   1.438  12.746  0.6187  0.1290  1.3397
18530TIP3    H277082   0.208   1.389  12.611 -2.3736 -0.2538  0.3996
18531TIP3   OH277083   1.803   1.584   0.802 -0.4435 -0.2087  0.0298
18531TIP3    H177084   1.870   1.576   0.870  0.8166 -0.5850 -1.2103
18531TIP3    H277085   1.720   1.571   0.848  0.2221  1.6382  1.8376
18532TIP3   OH277086   1.997   3.222  15.538 -0.1803 -0.0659  0.6155
18532TIP3    H177087   2.011   3.139  15.584  0.0150  0.8601  2.2345
18532TIP3    H277088   1.958   3.196  15.454 -0.4499 -1.7672  1.2487
18533TIP3   OH277089   1.225   4.958  16.868  0.3394 -0.2429 -0.1996
18533TIP3    H177090   1.246   4.968  16.775  0.2355 -0.8511 -0.2904
18533TIP3    H277091   1.156   4.892  16.870 -0.2832  0.4172  0.2454
18534TIP3   OH277092   0.521   3.359  11.703  0.5274  0.0509 -0.4678
18534TIP3    H177093   0.614   3.364  11.724  0.3423  0.5057  0.2668
18534TIP3    H277094   0.477   3.393  11.781 -0.2612 -0.3381 -0.7363
18535TIP3   OH277095   3.524   3.164  13.821 -0.0086  1.0412 -0.0809
18535TIP3    H177096   3.571   3.149  13.903 -1.0447  0.2196  0.3713
18535TIP3    H277097   3.592   3.169  13.755  0.6718 -0.8043  0.4672
18536TIP3   OH277098   5.732   2.651  14.992  0.3980 -0.5042 -0.8593
18536TIP3    H177099   5.741   2.610  15.078 -1.8814 -1.9471 -1.2914
18536TIP3    H277100   5.809   2.621  14.943  2.4492  1.4089  1.0393
18537TIP3   OH277101   2.128   4.770   0.483  0.6159 -0.0714  0.0840
18537TIP3    H177102   2.139   4.692   0.537  1.7169  0.9356  1.3414
18537TIP3    H277103   2.036   4.793   0.493  0.7277 -0.1101  1.2460
18538TIP3   OH277104   2.016   4.968   4.883  0.8568 -0.4341 -0.1501
18538TIP3    H177105   1.956   5.026   4.929  1.1098 -1.7081  1.8613
18538TIP3    H277106   2.095   5.021   4.869 -0.0339  0.6515 -1.1024
18539TIP3   OH277107   1.349   2.578   3.787 -0.6033 -0.1110 -0.2550
18539TIP3    H177108   1.327   2.485   3.796  0.5764 -0.3992 -0.2511
18539TIP3    H277109   1.282   2.624   3.837 -1.0171 -0.9833 -0.0006
18540TIP3   OH277110   3.529   5.887  12.264  0.1415  0.2928 -0.6037
18540TIP3    H177111   3.460   5.935  12.218  1.2372  1.8359 -0.6866
18540TIP3    H277112   3.504   5.795  12.256 -1.4349  0.7697 -1.3878
18541TIP3   OH277113   3.193   5.472   1.345 -0.1228 -0.0664  0.7575
18541TIP3    H177114   3.211   5.565   1.334  1.8364 -0.5720 -0.4302
18541TIP3    H277115   3.183   5.438   1.256  1.7099 -1.4758  1.0562
18542TIP3   OH277116   0.205   5.899   1.391 -0.4953  0.2221  0.4786
18542TIP3    H177117   0.212   5.930   1.481  1.0873 -2.3922  1.3120
18542TIP3    H277118   0.293   5.866   1.370 -0.6230  1.4520 -2.2966
18543TIP3   OH277119   5.602   5.751   4.086 -0.3870  0.4177 -0.3886
18543TIP3    H177120   5.656   5.737   4.008  0.0074 -1.1034  0.1354
18543TIP3    H277121   5.520   5.705   4.066  0.1031 -0.8534  0.4950
18544TIP3   OH277122   0.337   4.338  13.226  0.4283  0.2158  0.0824
18544TIP3    H177123   0.303   4.428  13.229  1.9732  0.8086  0.4299
18544TIP3    H277124   0.305   4.303  13.143 -0.6876  0.8747  0.2202
18545TIP3   OH277125   6.054   4.422  11.601  0.5918  0.4269 -0.2819
18545TIP3    H177126   5.960   4.439  11.597  0.3367 -0.6874  0.6330
18545TIP3    H277127   6.090   4.496  11.649 -0.1417 -0.2613  1.3708
18546TIP3   OH277128   0.742   6.099  15.492 -0.0335  0.0029 -0.2286
18546TIP3    H177129   0.801   6.167  15.460 -0.0631 -0.5911 -1.5819
18546TIP3    H277130   0.655   6.135  15.478 -0.0724 -0.6945 -1.8440
18547TIP3   OH277131   4.525   5.917  13.689 -0.3985  0.0183 -0.1737
18547TIP3    H177132   4.488   5.917  13.778 -0.4073 -1.1551 -0.1779
18547TIP3    H277133   4.461   5.871  13.636  0.7016 -1.3724 -0.3266
18548TIP3   OH277134   5.440   5.242  16.381  0.0658  0.2068  0.5418
18548TIP3    H177135   5.447   5.290  16.298 -0.7570  1.8515  1.3948
18548TIP3    H277136   5.372   5.288  16.430  0.8950 -0.4226  2.3447
18549TIP3   OH277137   5.270   5.112  14.474 -0.1612 -0.1728  0.5936
18549TIP3    H177138   5.339   5.156  14.425 -0.5304 -0.0468  0.1817
18549TIP3    H277139   5.199   5.101  14.410 -0.2075 -1.0315  0.7966
18550TIP3   OH277140   1.315   4.880  13.570 -0.2554 -0.0475 -0.1960
18550TIP3    H177141   1.226   4.886  13.536 -0.2823  1.2502  0.0873
18550TIP3    H277142   1.308   4.901  13.663  0.6632  2.5739 -0.6640
18551TIP3   OH277143   6.660   6.526  14.798 -0.6264  0.3822 -0.5598
18551TIP3    H177144   6.635   6.612  14.833  1.5687  0.5858  0.5948
18551TIP3    H277145   6.748   6.511  14.832 -0.9654 -2.3291 -0.7750
18552TIP3   OH277146   5.503   0.313  11.695 -0.3667 -0.5479 -0.3899
18552TIP3    H177147   5.515   0.369  11.772  0.7458 -0.8425 -0.3353
18552TIP3    H277148   5.411   0.289  11.697 -0.2263 -1.0252  1.1780
18553TIP3   OH277149   0.624   4.696   1.560  0.4294  0.3183 -0.2643
18553TIP3    H177150   0.594   4.698   1.651  1.7866  0.1050  0.1965
18553TIP3    H277151   0.597   4.610   1.528 -0.6583  0.6557 -0.2864
18554TIP3   OH277152   3.095   2.094  16.985  0.3133  0.5576 -0.2615
18554TIP3    H177153   3.093   2.050  16.900  1.1213  1.0321 -0.5338
18554TIP3    H277154   3.155   2.041  17.038 -0.4147  0.0966  0.1104
18555TIP3   OH277155   3.419   1.358  11.577  0.4297 -0.1531  0.1134
18555TIP3    H177156   3.375   1.442  11.594  0.9683 -0.1005  1.3130
18555TIP3    H277157   3.423   1.352  11.481 -0.2727  0.8403  0.0086
18556TIP3   OH277158   6.368   5.840  16.620  0.1538  0.7995  0.5998
18556TIP3    H177159   6.288   5.893  16.620 -0.2431  0.2079  1.9048
18556TIP3    H277160   6.415   5.867  16.699  1.3688  1.3175 -0.2846
18557TIP3   OH277161   1.837   0.771   4.131 -0.2107 -0.2204 -0.3622
18557TIP3    H177162   1.812   0.679   4.144  1.9801 -0.9765 -1.2809
18557TIP3    H277163   1.915   0.783   4.185  0.3099  0.7183 -1.3021
18558TIP3   OH277164   4.386   3.652  15.368 -0.0260  0.1478  0.3193
18558TIP3    H177165   4.338   3.728  15.399 -0.8896  0.0916 -0.8428
18558TIP3    H277166   4.364   3.582  15.429 -0.0935  0.5519  0.7562
18559TIP3   OH277167   5.118   6.112  12.448  0.1267  0.1702 -0.2648
18559TIP3    H177168   5.082   6.126  12.535  1.2706  1.7029 -0.0120
18559TIP3    H277169   5.061   6.162  12.390 -0.1944 -0.2337 -0.2938
18560TIP3   OH277170   5.749   6.157   5.346 -0.2188  0.1544 -0.3127
18560TIP3    H177171   5.842   6.179   5.343 -0.3204  0.5491 -0.5500
18560TIP3    H277172   5.704   6.241   5.350 -0.5231 -0.0576  1.0329
18561TIP3   OH277173   4.017   1.655   4.642  0.0455  0.5337  0.0256
18561TIP3    H177174   4.045   1.730   4.590 -0.9031 -0.6372 -2.2124
18561TIP3    H277175   4.039   1.579   4.588  1.1005 -0.8335  2.3116
18562TIP3   OH277176   5.303   4.685  14.753  0.0525  0.0012 -0.0954
18562TIP3    H177177   5.212   4.714  14.759  0.0999  0.3973 -1.3193
18562TIP3    H277178   5.304   4.622  14.681  1.0966  1.3965 -1.3348
18563TIP3   OH277179   2.780   5.961  13.368  0.0638  0.3357 -0.2580
18563TIP3    H177180   2.743   5.883  13.408  1.4933 -1.1682 -1.7615
18563TIP3    H277181   2.705   6.018  13.352 -1.0985 -1.0544  0.1337
18564TIP3   OH277182   2.395   1.099  13.972 -0.8090  0.1883  0.2148
18564TIP3    H177183   2.367   1.011  13.948  0.8637  0.2199 -1.9935
18564TIP3    H277184   2.490   1.099  13.955 -0.9318  2.6797 -0.6498
18565TIP3   OH277185   1.778   0.677  16.821  0.6451  0.3496 -0.2030
18565TIP3    H177186   1.855   0.679  16.764  0.7160  0.4216 -0.1035
18565TIP3    H277187   1.736   0.593  16.801  0.9704  0.1259  0.0357
18566TIP3   OH277188   2.938   0.863   0.983  1.2458 -0.2983 -0.2678
18566TIP3    H177189   2.920   0.957   0.979 -1.0873 -0.7202  0.1289
18566TIP3    H277190   2.959   0.846   1.075  1.4728 -0.2116 -0.3026
18567TIP3   OH277191   1.003   1.250   4.330  0.2029 -0.5707 -0.6884
18567TIP3    H177192   0.939   1.233   4.400 -0.1020 -0.3137 -0.9036
18567TIP3    H277193   1.034   1.163   4.304  0.0456 -0.6885 -0.4832
18568TIP3   OH277194   0.770   0.250  11.196 -0.0237  0.1416 -0.1360
18568TIP3    H177195   0.832   0.272  11.127  0.9442 -2.1147 -0.0420
18568TIP3    H277196   0.801   0.297  11.273  1.0281 -0.2307 -0.3241
18569TIP3   OH277197   4.206   6.469   3.768 -0.2872 -0.2511  0.5050
18569TIP3    H177198   4.135   6.420   3.728 -0.9715  0.4348  0.8645
18569TIP3    H277199   4.258   6.403   3.815  0.8162 -1.1344 -1.8794
18570TIP3   OH277200   0.555   0.910   5.686 -0.1657 -0.0471 -0.3499
18570TIP3    H177201   0.650   0.922   5.685 -0.0628 -0.7614  0.2721
18570TIP3    H277202   0.539   0.845   5.617 -0.1648 -0.1611 -0.2432
18571TIP3   OH277203   6.002   5.374  14.581  0.9082  0.2154  0.2459
18571TIP3    H177204   6.007   5.426  14.662 -0.7916  0.1288  0.4188
18571TIP3    H277205   6.083   5.323  14.580  2.0384  1.9448  0.7048
18572TIP3   OH277206   6.326   4.801   4.035 -0.0655  0.0550  0.0758
18572TIP3    H177207   6.344   4.849   4.116 -2.1391  0.4533  0.3302
18572TIP3    H277208   6.412   4.786   3.996  0.8702  0.8264  1.8017
18573TIP3   OH277209   3.376   3.771   0.088  0.0055  0.1078  0.6860
18573TIP3    H177210   3.291   3.810   0.109 -0.7743 -1.0797 -0.1765
18573TIP3    H277211   3.375   3.686   0.132 -0.0961 -0.7756 -0.9841
18574TIP3   OH277212   6.382   4.372  16.912  0.3089  0.1550  0.4787
18574TIP3    H177213   6.443   4.362  16.839  0.4901  0.4201  0.5923
18574TIP3    H277214   6.315   4.305  16.898 -1.6813  2.5147 -1.9460
18575TIP3   OH277215   1.398   6.392  11.950  0.0932  0.1192 -0.4131
18575TIP3    H177216   1.480   6.346  11.937 -0.6447 -1.4388  0.3272
18575TIP3    H277217   1.368   6.412  11.861  0.2353 -1.1755 -0.7627
18576TIP3   OH277218   3.494   4.157   5.299  0.1367 -0.1063 -0.0499
18576TIP3    H177219   3.402   4.184   5.288 -0.1048 -0.3642  1.2677
18576TIP3    H277220   3.490   4.062   5.311  0.5068  0.0044  0.9243
18577TIP3   OH277221   5.315   6.360  12.518  0.3507  0.1288 -0.2766
18577TIP3    H177222   5.227   6.384  12.491  0.1280  0.6152  0.8749
18577TIP3    H277223   5.368   6.370  12.439 -0.4756  0.5732 -0.7768
18578TIP3   OH277224   6.274   5.941   5.367  1.0804  0.6112  0.1631
18578TIP3    H177225   6.183   5.921   5.386  1.6589 -0.1576  2.2511
18578TIP3    H277226   6.293   6.020   5.419  1.8456  0.2392  0.4665
18579TIP3   OH277227   6.503   4.454   2.341  0.3076 -0.3125 -0.1888
18579TIP3    H177228   6.485   4.360   2.341  0.7862 -0.4165  0.9836
18579TIP3    H277229   6.499   4.479   2.433  0.0626  0.8459 -0.5022
18580TIP3   OH277230   4.218   4.418  12.730  0.4435  0.3739  0.5632
18580TIP3    H177231   4.256   4.377  12.807  1.0518 -0.3891 -0.1264
18580TIP3    H277232   4.128   4.385  12.726  1.1588 -1.5404 -0.4203
18581TIP3   OH277233   0.464   4.157   1.566  0.3138 -0.0237 -0.1718
18581TIP3    H177234   0.394   4.194   1.513 -0.8629 -1.2457  0.4957
18581TIP3    H277235   0.467   4.211   1.645 -0.8392 -0.8046  0.4251
18582TIP3   OH277236   1.055   1.647   1.859 -0.4240 -0.0450  0.4533
18582TIP3    H177237   1.040   1.560   1.897 -1.9142  0.4908  1.1145
18582TIP3    H277238   1.082   1.701   1.933  0.8639 -0.0117 -0.0218
18583TIP3   OH277239   3.806   3.171   2.216 -0.1665 -0.3152 -0.0259
18583TIP3    H177240   3.716   3.185   2.247 -0.1138  0.3369 -0.1496
18583TIP3    H277241   3.851   3.253   2.237  0.1364 -0.2550 -0.8789
18584TIP3   OH277242   5.110   5.515   1.449  0.0022 -0.1265 -0.2900
18584TIP3    H177243   5.138   5.425   1.433  2.7318  1.1293 -2.8548
18584TIP3    H277244   5.175   5.551   1.508  0.3810  0.9493 -1.3481
18585TIP3   OH277245   4.823   5.445  15.891 -0.4434  0.6882  0.3847
18585TIP3    H177246   4.735   5.482  15.885  0.1546  2.2515  1.0724
18585TIP3    H277247   4.880   5.521  15.905  0.7954 -0.4832  1.8561
18586TIP3   OH277248   1.279   0.359   4.966  0.2003  0.0908  0.0022
18586TIP3    H177249   1.277   0.280   4.911  0.3475  0.0569  0.0446
18586TIP3    H277250   1.187   0.376   4.986  0.2718 -1.1160  1.4860
18587TIP3   OH277251   0.224   4.693  16.989 -0.6048  0.1260  0.5413
18587TIP3    H177252   0.140   4.738  17.000 -0.3735  0.6186  0.2632
18587TIP3    H277253   0.206   4.625  16.925 -1.3319 -1.1440  2.0410
18588TIP3   OH277254   6.169   5.173   6.306  0.5321 -0.1464 -0.3839
18588TIP3    H177255   6.196   5.262   6.328 -0.6011 -0.0180  0.5407
18588TIP3    H277256   6.249   5.130   6.278  1.5450  0.5026  1.4223
18589TIP3   OH277257   3.625   5.234   5.984  0.0001  0.0060 -0.0727
18589TIP3    H177258   3.672   5.214   5.903  1.6888 -1.0196  1.1188
18589TIP3    H277259   3.548   5.178   5.980 -0.7507  1.1165 -1.6861
18590TIP3   OH277260   5.893   2.404   2.211 -0.4500 -0.5643 -0.4133
18590TIP3    H177261   5.892   2.466   2.138 -0.3928  0.0979  0.1413
18590TIP3    H277262   5.985   2.375   2.216 -0.2065  0.2743  0.1254
18591TIP3   OH277263   5.745   2.682   4.035 -0.1485 -0.4328  0.8298
18591TIP3    H177264   5.677   2.722   4.089 -0.9931  2.2628 -2.0334
18591TIP3    H277265   5.715   2.592   4.020 -2.8607  0.5273  0.1027
18592TIP3   OH277266   5.731   0.843  15.878 -0.4822  0.2337 -0.2251
18592TIP3    H177267   5.680   0.923  15.892 -1.9091 -0.9295  1.3301
18592TIP3    H277268   5.803   0.849  15.940 -1.1196 -0.1386  0.5471
18593TIP3   OH277269   5.211   5.769  10.902  0.5342 -0.0971  0.5041
18593TIP3    H177270   5.216   5.864  10.913 -0.6836 -0.0977  1.1244
18593TIP3    H277271   5.157   5.756  10.824 -2.0322 -0.3042  2.2501
18594TIP3   OH277272   2.900   0.143  14.483  0.1737 -0.1397 -0.0039
18594TIP3    H177273   2.955   0.159  14.561 -0.0367 -0.3394  0.1859
18594TIP3    H277274   2.920   0.216  14.425 -1.3857  1.2974  1.2031
18595TIP3   OH277275   6.611   5.443   4.406 -0.4115 -0.5740  0.1480
18595TIP3    H177276   6.670   5.518   4.412 -0.3871 -0.5019 -0.8872
18595TIP3    H277277   6.545   5.470   4.342  0.1116 -1.7593 -0.9182
18596TIP3   OH277278   5.932   4.824   3.693 -0.0832  0.0801 -0.1337
18596TIP3    H177279   5.913   4.915   3.667  2.2825  0.3668 -0.9687
18596TIP3    H277280   5.992   4.792   3.626  0.7519 -1.4162  1.2980
18597TIP3   OH277281   5.158   3.544  11.797 -0.2556  0.6221  0.6003
18597TIP3    H177282   5.174   3.452  11.778 -1.7805  0.2798  0.9590
18597TIP3    H277283   5.169   3.588  11.712 -1.8004 -0.2020 -0.0414
18598TIP3   OH277284   0.567   0.057  11.289 -0.0159  0.1506 -0.1895
18598TIP3    H177285   0.609   0.140  11.267 -1.4893  0.9413 -0.0579
18598TIP3    H277286   0.587   0.045  11.382  1.0472 -0.1596 -0.4451
18599TIP3   OH277287   0.557   2.258   1.436  0.3104 -0.3365 -0.2114
18599TIP3    H177288   0.560   2.196   1.509  2.3096 -1.6459 -1.3682
18599TIP3    H277289   0.467   2.290   1.436 -0.1932 -1.6475  1.7136
18600TIP3   OH277290   6.255   6.314  10.665  0.1357 -0.3167 -0.0618
18600TIP3    H177291   6.218   6.230  10.691  0.3454 -0.4443 -0.1721
18600TIP3    H277292   6.187   6.354  10.611  0.2377 -0.6394 -0.4341
18601TIP3   OH277293   2.777   5.734  15.021 -0.1163 -0.0335 -0.3057
18601TIP3    H177294   2.803   5.680  14.946 -0.8641 -0.2029 -0.4450
18601TIP3    H277295   2.775   5.824  14.986  0.8988  0.0691 -0.1294
18602TIP3   OH277296   4.201   0.362   4.649 -0.5224 -0.3791 -0.4322
18602TIP3    H177297   4.256   0.433   4.683 -1.4690 -0.7073  1.8636
18602TIP3    H277298   4.208   0.371   4.554  0.5540  1.8784 -0.1931
18603TIP3   OH277299   2.873   2.518  14.360 -0.4309 -0.1687  0.2060
18603TIP3    H177300   2.908   2.429  14.370 -0.3580 -0.4483 -2.2203
18603TIP3    H277301   2.791   2.506  14.312 -1.2918  0.9481  1.3539
18604TIP3   OH277302   1.670   1.777   0.037 -0.5307 -0.6816 -0.5009
18604TIP3    H177303   1.701   1.852  -0.014 -1.2923 -0.2632 -0.3507
18604TIP3    H277304   1.735   1.708   0.020  1.0191  0.4823  0.5856
18605TIP3   OH277305   0.878   0.654   3.327  0.4302 -0.3847 -0.0135
18605TIP3    H177306   0.897   0.568   3.289  0.1843  0.3752 -1.8850
18605TIP3    H277307   0.937   0.714   3.282 -0.3991  0.6562  0.2702
18606TIP3   OH277308   0.450   1.681   2.278  0.0430  0.4298 -0.3235
18606TIP3    H177309   0.401   1.645   2.351 -0.4752 -0.0529 -0.9044
18606TIP3    H277310   0.411   1.767   2.263 -1.5666 -0.5095 -1.6721
18607TIP3   OH277311   4.361   2.273   5.644  0.8814  0.5282  0.1393
18607TIP3    H177312   4.386   2.188   5.679 -1.8579 -0.6154 -0.5036
18607TIP3    H277313   4.306   2.312   5.713 -1.1409  0.0385 -1.1598
18608TIP3   OH277314   1.839   5.629   1.866  0.1251  0.3585 -0.0265
18608TIP3    H177315   1.932   5.610   1.851  0.5010  1.5368  0.6926
18608TIP3    H277316   1.819   5.699   1.805 -0.0595  0.7087  0.4369
18609TIP3   OH277317   0.401   3.169  15.373  0.1849 -0.7243 -0.0589
18609TIP3    H177318   0.363   3.147  15.288  0.9071 -0.1877 -0.5292
18609TIP3    H277319   0.391   3.089  15.425 -0.6791 -0.9036 -0.5008
18610TIP3   OH277320   5.157   2.328  13.465 -0.1861  0.0914  0.2383
18610TIP3    H177321   5.159   2.414  13.424 -1.1106  0.6372  1.2920
18610TIP3    H277322   5.170   2.266  13.394 -1.7198  1.0150 -0.8590
18611TIP3   OH277323   3.911   5.784  16.358 -0.1268  0.3974  0.3630
18611TIP3    H177324   3.873   5.719  16.299 -1.2127  1.5954 -0.3006
18611TIP3    H277325   3.982   5.738  16.402 -1.3832 -1.4654  0.5087
18612TIP3   OH277326   1.990   1.925  14.019 -0.6076  0.3105 -0.0717
18612TIP3    H177327   1.985   1.959  13.929 -1.8434  0.3769  0.0180
18612TIP3    H277328   2.019   2.000  14.071 -1.3514  0.6866 -0.1911
18613TIP3   OH277329   1.722   0.989   6.717  0.5070  0.4536 -0.0135
18613TIP3    H177330   1.641   1.039   6.711  0.6853  0.8411  0.8457
18613TIP3    H277331   1.695   0.902   6.749  0.4755  0.6990  0.6305
18614TIP3   OH277332   4.814   0.593  16.885 -0.2237  0.1538 -0.0834
18614TIP3    H177333   4.828   0.526  16.819  2.6506  0.5564  0.0666
18614TIP3    H277334   4.793   0.672  16.835  2.0421  0.4804 -0.5496
18615TIP3   OH277335   4.764   3.403  10.687  0.1076 -0.1690  0.2579
18615TIP3    H177336   4.829   3.455  10.640  0.1696 -0.8224 -0.3781
18615TIP3    H277337   4.760   3.320  10.640 -0.7769 -0.3470  0.6351
18616TIP3   OH277338   4.312   3.689   4.912 -0.2263  0.2346  0.0099
18616TIP3    H177339   4.285   3.779   4.891  1.7225  0.8604  0.1455
18616TIP3    H277340   4.305   3.684   5.007 -0.3407  0.2247  0.0023
18617TIP3   OH277341   3.234   0.134  11.624 -0.1277  0.0836 -0.1797
18617TIP3    H177342   3.283   0.173  11.697  0.0976  0.3695 -0.4808
18617TIP3    H277343   3.171   0.076  11.666 -0.6977  1.0267  0.2883
18618TIP3   OH277344   1.896   4.216   5.319 -0.3930  0.2839 -0.6196
18618TIP3    H177345   1.905   4.291   5.260  4.6547 -0.5321 -1.1069
18618TIP3    H277346   1.932   4.246   5.402  0.3343 -1.1372 -0.4027
18619TIP3   OH277347   6.416   1.848  12.100 -0.5597  0.4083  0.0864
18619TIP3    H177348   6.327   1.870  12.128 -1.3429  0.2994 -2.2460
18619TIP3    H277349   6.417   1.752  12.094 -0.6532  0.4769 -1.0676
18620TIP3   OH277350   3.102   2.203   0.738 -0.1231  0.3664  0.4313
18620TIP3    H177351   3.014   2.239   0.729 -0.6214 -0.6562  1.1786
18620TIP3    H277352   3.133   2.193   0.648 -0.2678  1.9132  0.1893
18621TIP3   OH277353   0.981   4.267   1.624  0.1418  0.1752  0.2928
18621TIP3    H177354   0.913   4.205   1.600  0.1233 -0.0550  0.9251
18621TIP3    H277355   0.977   4.271   1.719  0.8171  0.3748  0.3174
18622TIP3   OH277356   5.515   3.468  11.351 -0.1235  0.1388  0.1509
18622TIP3    H177357   5.479   3.556  11.359 -0.8798 -0.0815 -0.7118
18622TIP3    H277358   5.576   3.473  11.277 -0.9200 -0.2907 -0.5454
18623TIP3   OH277359   5.112   2.058   1.113  0.4137  0.0661  0.2243
18623TIP3    H177360   5.056   1.997   1.161  0.9735 -1.7608 -1.3918
18623TIP3    H277361   5.187   2.072   1.172 -0.2554  0.0945  1.0825
18624TIP3   OH277362   3.031   1.973   1.217 -0.4134 -0.6580  0.6541
18624TIP3    H177363   3.081   1.995   1.138 -1.7020 -0.3376 -0.0804
18624TIP3    H277364   3.078   2.016   1.287  0.2387 -0.1862 -0.0616
18625TIP3   OH277365   1.795   6.232   4.449  0.0950 -0.0141  0.2149
18625TIP3    H177366   1.725   6.261   4.507 -1.0055 -0.9742 -0.6183
18625TIP3    H277367   1.864   6.201   4.509 -0.0124  1.2812  1.0386
18626TIP3   OH277368   2.640   1.702   6.023 -0.0188  0.1582 -0.1301
18626TIP3    H177369   2.731   1.716   6.049  0.4804 -1.3441 -1.0050
18626TIP3    H277370   2.598   1.665   6.101  0.7468 -1.5238 -0.4941
18627TIP3   OH277371   1.134   3.984  13.663  0.3548  0.1463  0.3922
18627TIP3    H177372   1.228   3.967  13.667  0.6621  1.7428  0.2350
18627TIP3    H277373   1.126   4.068  13.619 -1.2769 -0.9959 -1.5857
18628TIP3   OH277374   6.584   0.913  12.744 -0.5901 -0.7750  0.9905
18628TIP3    H177375   6.615   0.877  12.661  0.8977  0.4510  0.9971
18628TIP3    H277376   6.491   0.892  12.746 -0.8248 -0.0452 -1.3829
18629TIP3   OH277377   2.678   0.326   1.596  0.4586 -0.1077  0.4651
18629TIP3    H177378   2.607   0.388   1.582  1.4083  1.1376  1.0332
18629TIP3    H277379   2.721   0.357   1.676  1.2835 -1.1651  0.4371
18630TIP3   OH277380   5.574   2.779   3.276 -0.0888  0.2601 -0.2177
18630TIP3    H177381   5.522   2.716   3.324  1.6364 -1.0459 -0.0125
18630TIP3    H277382   5.515   2.812   3.208 -0.4058 -3.1730 -1.7159
18631TIP3   OH277383   5.487   0.236  11.448 -0.7797 -0.2134  0.5378
18631TIP3    H177384   5.508   0.268  11.536 -1.1993  0.5769  0.3624
18631TIP3    H277385   5.481   0.141  11.458 -0.8924 -0.1276  1.3781
18632TIP3   OH277386   0.584   2.548  14.128  0.7791 -0.4122 -0.7221
18632TIP3    H177387   0.651   2.610  14.104  1.4228 -0.4003  1.0039
18632TIP3    H277388   0.557   2.574  14.216 -3.3275  1.1577 -2.3145
18633TIP3   OH277389   5.273   0.848  16.360 -0.1238  0.0397 -0.2884
18633TIP3    H177390   5.182   0.839  16.333  0.0839 -0.5973 -0.7872
18633TIP3    H277391   5.290   0.772  16.415  0.2134 -0.0409 -0.5001
18634TIP3   OH277392   5.656   4.539   0.042 -0.4476 -0.1842 -0.5998
18634TIP3    H177393   5.694   4.568  -0.041 -1.4642 -0.0939 -1.0336
18634TIP3    H277394   5.654   4.443   0.035  0.4425 -0.2341 -0.2449
18635TIP3   OH277395   4.194   0.016   0.387  0.5142 -0.1132  0.1165
18635TIP3    H177396   4.224  -0.063   0.430  0.9277  0.4724  0.9238
18635TIP3    H277397   4.101   0.023   0.411  0.4280 -0.4505 -0.1177
18636TIP3   OH277398   5.656   4.773  17.079  0.1324  0.0181 -0.2305
18636TIP3    H177399   5.641   4.690  17.035  1.1048 -0.0439 -0.4569
18636TIP3    H277400   5.748   4.770  17.106 -0.0757  0.6243  0.5878
18637TIP3   OH277401   2.622   5.485  12.900  0.4415 -0.7111  0.2417
18637TIP3    H177402   2.527   5.474  12.898  0.2874  0.7074 -0.2916
18637TIP3    H277403   2.644   5.487  12.993 -0.2340  0.5499  0.3777
18638TIP3   OH277404   6.525   5.512  16.983 -0.0974 -0.1793  0.0463
18638TIP3    H177405   6.559   5.460  16.910 -1.1126  1.6383 -1.7777
18638TIP3    H277406   6.435   5.481  16.995 -0.5747  0.8128 -0.7898
18639TIP3   OH277407   1.132   1.756   4.267 -0.5597  0.2787 -0.1963
18639TIP3    H177408   1.067   1.727   4.331  2.6120 -1.3014  2.4606
18639TIP3    H277409   1.117   1.700   4.191 -2.9219  0.6343 -0.0475
18640TIP3   OH277410   5.595   2.113   1.608 -0.1219 -0.0097  0.2692
18640TIP3    H177411   5.517   2.086   1.558 -0.9871  0.8131  1.1422
18640TIP3    H277412   5.563   2.184   1.663  1.0245 -0.3616  1.3891
18641TIP3   OH277413   3.648   5.104  12.026 -0.0376 -0.3223  0.4837
18641TIP3    H177414   3.627   5.128  11.936  1.5630  0.2425  0.2444
18641TIP3    H277415   3.570   5.059  12.058 -0.6840 -0.3731 -1.1281
18642TIP3   OH277416   6.765   6.042   4.042  0.4424 -0.3542 -0.2687
18642TIP3    H177417   6.738   6.059   3.952 -1.1387 -0.2920  0.1984
18642TIP3    H277418   6.788   6.128   4.078 -0.5162 -0.1581 -0.1183
18643TIP3   OH277419   0.085   2.155   0.113 -0.4006 -0.1192 -0.0793
18643TIP3    H177420   0.165   2.107   0.093  0.6510  0.9907  1.4191
18643TIP3    H277421   0.034   2.151   0.032  1.2787 -0.6114 -1.1294
18644TIP3   OH277422   4.602   3.974  12.480  0.1105 -0.0460  0.0637
18644TIP3    H177423   4.695   3.989  12.464  0.2989 -1.3072 -0.0004
18644TIP3    H277424   4.559   4.054  12.448  0.7206 -1.2722 -4.0183
18645TIP3   OH277425   3.993   4.288   5.838 -0.3958 -0.0069 -0.0872
18645TIP3    H177426   3.949   4.326   5.762  2.4338  0.7091 -1.4382
18645TIP3    H277427   4.012   4.362   5.895 -1.1907 -0.3528  0.6395
18646TIP3   OH277428   3.229   0.225  16.388  0.2306 -0.3905  0.0963
18646TIP3    H177429   3.257   0.140  16.423  1.0889 -0.3618 -0.5077
18646TIP3    H277430   3.217   0.210  16.295  0.7103  0.2454 -0.0681
18647TIP3   OH277431   2.146   1.545   3.261  0.4121 -0.3293 -0.1731
18647TIP3    H177432   2.198   1.483   3.313  0.8602  0.0340 -0.1775
18647TIP3    H277433   2.169   1.631   3.298  1.8819  0.0690 -1.9420
18648TIP3   OH277434   2.456   2.757  11.761  0.2303  0.0474 -0.3450
18648TIP3    H177435   2.522   2.693  11.735 -0.5529 -0.7703 -0.3547
18648TIP3    H277436   2.458   2.823  11.692  1.2934  0.2306 -0.1522
18649TIP3   OH277437   1.137   4.046  16.967  0.0801  0.1870 -0.5438
18649TIP3    H177438   1.171   4.001  17.044  0.1854  0.3889 -0.4700
18649TIP3    H277439   1.047   4.067  16.990 -0.0437 -0.2020 -0.6699
18650TIP3   OH277440   3.946   4.237   2.568 -0.2708  0.3943  0.2444
18650TIP3    H177441   3.898   4.263   2.489 -1.3528  1.4892  1.2317
18650TIP3    H277442   3.885   4.256   2.640  1.0797  0.3632  1.4098
18651TIP3   OH277443   0.647   0.492  15.390 -0.8664  0.1467 -0.1326
18651TIP3    H177444   0.581   0.541  15.340 -0.8720 -0.3259 -0.5970
18651TIP3    H277445   0.605   0.408  15.408 -0.8454  0.3029  0.6306
18652TIP3   OH277446   4.934   3.115  14.154  0.4878 -0.2188 -0.2479
18652TIP3    H177447   4.879   3.051  14.109  1.0339 -1.1095  0.3109
18652TIP3    H277448   5.014   3.118  14.101 -0.1675  1.2102 -1.1627
18653TIP3   OH277449   2.266   2.029  13.841 -0.2026  0.6817 -0.0786
18653TIP3    H177450   2.245   2.058  13.752  1.3094  0.9393 -0.3745
18653TIP3    H277451   2.322   2.099  13.876  1.3540 -0.6329  0.1223
18654TIP3   OH277452   4.028   3.962   4.052 -0.4172  0.2838 -0.4993
18654TIP3    H177453   3.992   3.959   3.963  0.5887 -1.7699 -0.8644
18654TIP3    H277454   4.005   3.878   4.090  2.3125 -0.3288 -0.0856
18655TIP3   OH277455   4.697   4.032  13.410 -0.4323  0.0098 -0.3535
18655TIP3    H177456   4.610   4.001  13.435  0.0622 -1.2460 -0.1906
18655TIP3    H277457   4.721   3.980  13.334 -0.0329  0.7137 -0.7221
18656TIP3   OH277458   5.810   1.030   3.018  0.2850 -0.1048  0.7445
18656TIP3    H177459   5.851   0.957   3.063  2.0025  0.1617 -0.3314
18656TIP3    H277460   5.770   0.992   2.940  2.7193  0.2973 -0.7689
18657TIP3   OH277461   3.708   5.418   4.448  0.3598  0.0746 -0.3539
18657TIP3    H177462   3.643   5.459   4.391 -0.4199 -0.4266  0.1725
18657TIP3    H277463   3.741   5.490   4.501 -0.7114  0.1015  0.2834
18658TIP3   OH277464   6.204   2.121   4.944  0.3254  0.2870 -0.2089
18658TIP3    H177465   6.284   2.068   4.939  0.3705  0.1753  1.4817
18658TIP3    H277466   6.152   2.080   5.012  0.5996  2.7104  1.5379
18659TIP3   OH277467   2.854   5.340   3.518  0.7465 -0.6271  0.1455
18659TIP3    H177468   2.836   5.282   3.592  1.8699  2.0778  2.6455
18659TIP3    H277469   2.948   5.334   3.505  1.0995  1.6094  1.3651
18660TIP3   OH277470   2.479   3.258  14.385  0.1733  0.0236 -0.1659
18660TIP3    H177471   2.437   3.186  14.432  1.6376 -1.2525 -0.7478
18660TIP3    H277472   2.464   3.335  14.440 -0.5933 -0.9055  0.9501
18661TIP3   OH277473   4.893   3.681   4.513 -0.6461  0.3767  0.2873
18661TIP3    H177474   4.915   3.696   4.605 -0.8805  0.4224  0.3351
18661TIP3    H277475   4.831   3.751   4.491 -1.9677 -0.6801  0.5915
18662TIP3   OH277476   0.618   2.709  12.960  0.6502 -0.0170 -0.0627
18662TIP3    H177477   0.615   2.658  12.879 -1.1855  2.1100 -1.3592
18662TIP3    H277478   0.639   2.644  13.027  0.9593 -2.0349 -2.0310
18663TIP3   OH277479   5.267   5.482  15.237 -0.4015  0.5671 -0.2659
18663TIP3    H177480   5.282   5.440  15.153  0.3553 -1.1652  0.7094
18663TIP3    H277481   5.340   5.543  15.248 -0.1762  0.3532 -0.5869
18664TIP3   OH277482   6.023   4.443  13.108 -0.5549  0.5370  0.1986
18664TIP3    H177483   6.027   4.508  13.037 -3.4905 -0.0463 -0.5906
18664TIP3    H277484   6.033   4.358  13.063  0.5548  0.3018  0.8760
18665TIP3   OH277485   5.352   2.902   5.490 -0.1695  0.1716 -0.1599
18665TIP3    H177486   5.292   2.975   5.472  1.0494  1.8405  2.1890
18665TIP3    H277487   5.312   2.856   5.564  0.6274  0.3498  0.3872
18666TIP3   OH277488   0.170   4.369   1.125  0.0851  0.3737  0.6170
18666TIP3    H177489   0.141   4.328   1.044 -0.4807  0.5694  0.7168
18666TIP3    H277490   0.241   4.313   1.157 -1.6103 -1.3517  1.4931
18667TIP3   OH277491   4.236   0.325   3.084 -0.0332 -0.1628  0.5785
18667TIP3    H177492   4.237   0.307   2.990 -2.0971  0.3774  0.4232
18667TIP3    H277493   4.320   0.367   3.101  0.2077  0.0887 -1.0983
18668TIP3   OH277494   5.048   3.026  11.648 -0.3859 -0.0663  0.0381
18668TIP3    H177495   5.053   2.939  11.689  1.9082 -0.4698 -1.0563
18668TIP3    H277496   4.954   3.043  11.642 -0.9216 -3.0255 -0.8582
18669TIP3   OH277497   0.293   6.805   3.287  0.1377 -0.3144  0.3966
18669TIP3    H177498   0.381   6.806   3.326 -0.1114  0.5120  0.9548
18669TIP3    H277499   0.277   6.713   3.267  0.9128 -0.5449  0.7984
18670TIP3   OH277500   5.854   3.938   5.998 -0.1122  0.5088  0.3438
18670TIP3    H177501   5.818   4.021   6.028 -0.3877  0.1648  0.9791
18670TIP3    H277502   5.915   3.912   6.067  1.0762  0.8991 -0.5508
18671TIP3   OH277503   6.039   2.600   1.326 -0.0161  0.5249 -0.4131
18671TIP3    H177504   6.062   2.655   1.251  1.8153 -0.6656 -0.7579
18671TIP3    H277505   6.113   2.541   1.336 -0.6166  0.1101  1.8347
18672TIP3   OH277506   4.284   4.086   0.142 -0.0899 -0.0176  0.5144
18672TIP3    H177507   4.319   4.173   0.161  1.1037 -0.5374  0.7098
18672TIP3    H277508   4.189   4.098   0.146  0.0594  1.3451  0.2096
18673TIP3   OH277509   3.995   5.052   2.577 -0.5118  0.1822  0.4132
18673TIP3    H177510   4.001   5.139   2.538  0.8037 -0.2478 -0.3765
18673TIP3    H277511   3.998   4.992   2.502 -1.4789 -0.5460  0.9415
18674TIP3   OH277512   6.614   3.278  17.253 -0.2424  0.0700  0.2254
18674TIP3    H177513   6.561   3.294  17.175  1.7638 -0.4699 -1.2858
18674TIP3    H277514   6.704   3.288  17.223  0.5290  0.9625  2.7477
18675TIP3   OH277515   3.571   4.638  17.126  0.3721  0.0309 -0.7786
18675TIP3    H177516   3.578   4.724  17.167  0.6776  0.2700 -1.3252
18675TIP3    H277517   3.600   4.576  17.194 -1.5380  0.1977  0.2100
18676TIP3   OH277518   1.364   6.789   5.344  0.0785 -0.3685  0.5583
18676TIP3    H177519   1.291   6.769   5.402 -1.2713 -1.6400 -1.4933
18676TIP3    H277520   1.403   6.703   5.326 -1.0318 -0.3166 -2.2958
18677TIP3   OH277521   0.034   1.195   5.416 -0.0959  0.3466  0.5173
18677TIP3    H177522   0.025   1.100   5.422 -0.0092  0.2531 -0.6766
18677TIP3    H277523   0.128   1.208   5.400 -0.1342  0.6161  0.5193
18678TIP3   OH277524   0.067   5.407  15.272  0.4257  0.1454 -0.1081
18678TIP3    H177525   0.032   5.453  15.195 -1.5331  0.5303  1.0056
18678TIP3    H277526   0.054   5.314  15.253  2.8136  0.0462 -1.5915
18679TIP3   OH277527   1.210   1.814  17.273 -0.1849  0.0293  0.1221
18679TIP3    H177528   1.211   1.909  17.286 -0.1254  0.4768 -2.7343
18679TIP3    H277529   1.294   1.795  17.231 -0.8439 -1.0600 -0.7212
18680TIP3   OH277530   6.008   3.477   4.099  0.1036  0.0296  0.2775
18680TIP3    H177531   5.925   3.464   4.053  0.3037  0.2716 -0.1534
18680TIP3    H277532   6.027   3.571   4.089  1.1975 -0.3174 -0.9354
18681TIP3   OH277533   0.569   4.016   3.175 -0.0684 -0.1301  0.1820
18681TIP3    H177534   0.574   4.024   3.080  0.8348  1.9892  0.3735
18681TIP3    H277535   0.520   3.935   3.190  0.7225 -1.0551 -2.0685
18682TIP3   OH277536   0.709   4.967  12.086  0.4269 -0.1301 -0.0353
18682TIP3    H177537   0.790   4.927  12.052 -1.0460 -1.5820 -1.9369
18682TIP3    H277538   0.643   4.898  12.079 -1.1372  1.2281  0.9413
18683TIP3   OH277539   1.001   2.095   0.478  0.1016 -0.0185 -0.1372
18683TIP3    H177540   0.957   2.032   0.421 -0.9932 -0.7290  1.4627
18683TIP3    H277541   0.930   2.141   0.522  0.9450  0.2197  0.9705
18684TIP3   OH277542   2.584   0.737   1.071  0.3372  0.2527 -0.0730
18684TIP3    H177543   2.641   0.774   1.004 -0.9703  1.1543 -0.7144
18684TIP3    H277544   2.573   0.808   1.134 -0.8489  0.4290 -0.4578
18685TIP3   OH277545   3.133   3.062  16.178 -0.2750  0.4234  0.1178
18685TIP3    H177546   3.171   2.983  16.217  1.1776  1.9305  1.8142
18685TIP3    H277547   3.196   3.087  16.109  0.0084  0.8995  0.5437
18686TIP3   OH277548   3.329   4.229   4.591  0.0443  0.1119  0.1502
18686TIP3    H177549   3.336   4.137   4.563 -0.7012 -0.0028  0.3127
18686TIP3    H277550   3.335   4.279   4.510  0.8044 -0.0651  0.0982
18687TIP3   OH277551   1.095   2.903  11.949 -0.1095 -0.2747 -0.3084
18687TIP3    H177552   1.039   2.826  11.951 -0.6543  0.1488  0.8796
18687TIP3    H277553   1.171   2.879  12.002 -0.3965  0.0862  0.2731
18688TIP3   OH277554   6.195   6.295   3.676  0.1029  0.4854 -0.5258
18688TIP3    H177555   6.267   6.303   3.738 -1.7913  0.1806  1.7509
18688TIP3    H277556   6.166   6.205   3.684 -1.5495  1.0258 -0.2824
18689TIP3   OH277557   3.526   1.093  10.347  0.2771 -0.0322 -0.1000
18689TIP3    H177558   3.575   1.013  10.369  1.4440  0.6991  0.0224
18689TIP3    H277559   3.580   1.164  10.381  0.8252  0.9841 -2.9062
18690TIP3   OH277560   1.633   4.576  10.878  0.2932 -0.0421 -0.2461
18690TIP3    H177561   1.727   4.592  10.874  0.3465 -0.0844  0.6292
18690TIP3    H277562   1.623   4.484  10.852  0.6493 -0.4556  1.0098
18691TIP3   OH277563   0.240   6.116   2.037 -0.9544  0.0014 -0.3891
18691TIP3    H177564   0.326   6.100   1.999 -1.8814  0.1533 -2.5859
18691TIP3    H277565   0.199   6.030   2.043 -1.2110  0.0980 -0.7219
18692TIP3   OH277566   4.049   0.835   0.591 -0.2263  0.9723  0.1324
18692TIP3    H177567   4.058   0.792   0.675 -0.4821 -0.8885 -0.7776
18692TIP3    H277568   3.955   0.830   0.570 -0.3034  2.1883  0.1251
18693TIP3   OH277569   5.514   0.910   6.753  0.1473 -0.0099  0.4315
18693TIP3    H177570   5.490   0.818   6.737  0.0347  0.1478 -0.3220
18693TIP3    H277571   5.431   0.957   6.752  0.4831  0.6079 -2.6387
18694TIP3   OH277572   3.093   3.948   2.923 -0.6716 -0.7287  0.1551
18694TIP3    H177573   3.083   3.905   2.838 -0.7412  0.9061 -0.6738
18694TIP3    H277574   3.182   3.982   2.922 -0.0741 -2.1901  1.4473
18695TIP3   OH277575   4.871   6.146  16.194  0.4340 -0.3341  0.1700
18695TIP3    H177576   4.951   6.101  16.167 -1.1782 -3.5531  0.5107
18695TIP3    H277577   4.828   6.167  16.111  0.0315 -1.6635  0.0265
18696TIP3   OH277578   2.032   2.044  15.583 -0.1693 -0.4867 -0.4204
18696TIP3    H177579   1.987   1.960  15.589 -0.4727 -0.4969 -2.4393
18696TIP3    H277580   2.038   2.074  15.674 -1.5893 -1.8764  0.1718
18697TIP3   OH277581   6.470   1.991   4.943 -0.0741  0.3640 -0.1274
18697TIP3    H177582   6.498   1.907   4.907 -0.6864  0.1839 -0.1880
18697TIP3    H277583   6.486   2.054   4.872  0.1416  0.2563 -0.1738
18698TIP3   OH277584   3.468   3.911   4.573 -0.6003 -0.6753  0.3703
18698TIP3    H177585   3.508   3.863   4.645 -0.3987  0.5503  1.0851
18698TIP3    H277586   3.535   3.911   4.505 -0.2462 -0.5809  0.7200
18699TIP3   OH277587   4.031   4.518  14.459 -0.2752  0.3281  0.3417
18699TIP3    H177588   4.073   4.507  14.373  2.1571 -1.0924  1.6299
18699TIP3    H277589   3.955   4.460  14.456  0.2857 -0.3745 -0.5629
18700TIP3   OH277590   4.151   2.774  16.848  0.0547 -0.1052  0.4659
18700TIP3    H177591   4.133   2.790  16.941  2.0545  1.9394  0.5385
18700TIP3    H277592   4.127   2.856  16.805  1.3892 -0.2225 -0.5107
18701TIP3   OH277593   4.496   3.995   4.209  0.1229 -0.1404 -0.0409
18701TIP3    H177594   4.428   3.933   4.237  0.7950 -1.8137 -1.9724
18701TIP3    H277595   4.450   4.060   4.157 -0.5193  0.7514  1.6095
18702TIP3   OH277596   6.564   4.747  13.736  0.4112 -0.1513  0.3764
18702TIP3    H177597   6.546   4.709  13.650 -1.0568 -0.0178  0.6193
18702TIP3    H277598   6.625   4.685  13.777  0.3430 -0.7186 -0.3654
18703TIP3   OH277599   2.293   0.674  15.824 -0.2081  0.3176  0.2843
18703TIP3    H177600   2.273   0.765  15.800  0.1219  0.3933  0.2882
18703TIP3    H277601   2.288   0.626  15.742  0.4922  0.4997  0.1257
18704TIP3   OH277602   5.474   0.367   3.719  0.3815 -0.5376  0.2319
18704TIP3    H177603   5.474   0.285   3.670 -1.0398 -0.2614 -0.2498
18704TIP3    H277604   5.551   0.361   3.776  1.8038 -1.0332 -1.7142
18705TIP3   OH277605   4.952   1.917   1.298  0.0253 -0.2027 -0.1883
18705TIP3    H177606   4.961   1.843   1.359  0.6839 -1.2995 -1.5983
18705TIP3    H277607   4.860   1.913   1.270  0.8038 -2.4424 -2.6593
18706TIP3   OH277608   4.171   4.577   3.375  0.1858 -0.6649 -0.0196
18706TIP3    H177609   4.193   4.518   3.302 -0.5574 -0.4681 -0.4064
18706TIP3    H277610   4.081   4.604   3.357  0.5668  0.6897  0.0952
18707TIP3   OH277611   4.858   3.167  12.659 -0.3611 -0.0968  0.7278
18707TIP3    H177612   4.945   3.198  12.685 -0.0185  0.1207 -0.6065
18707TIP3    H277613   4.841   3.092  12.715 -0.0638  0.9080  2.1961
18708TIP3   OH277614   3.822   6.739   1.302  0.1060  0.3960  0.4078
18708TIP3    H177615   3.744   6.726   1.356 -0.7530 -2.2571 -1.3837
18708TIP3    H277616   3.790   6.783   1.224  0.5755  0.2167  0.1132
18709TIP3   OH277617   0.612   2.349  14.678 -0.4926 -0.2784  0.1676
18709TIP3    H177618   0.536   2.353  14.735  0.1858 -0.5981  1.1079
18709TIP3    H277619   0.647   2.438  14.677  0.6631 -0.6902  1.8809
18710TIP3   OH277620   2.377   0.217   1.754  0.1725 -0.0140  0.5347
18710TIP3    H177621   2.294   0.265   1.760  0.9463  1.2307  1.7928
18710TIP3    H277622   2.392   0.207   1.660 -1.1905  0.1081  0.2858
18711TIP3   OH277623   0.173   0.035   1.601 -0.2729  0.3079 -0.3352
18711TIP3    H177624   0.124  -0.031   1.650 -2.3662  1.3373 -0.9775
18711TIP3    H277625   0.241   0.065   1.662 -1.2255 -0.2471  1.0116
18712TIP3   OH277626   1.777   0.496   4.225 -0.1505 -0.3534  0.0276
18712TIP3    H177627   1.791   0.435   4.152  0.4222  1.0328 -1.0455
18712TIP3    H277628   1.849   0.479   4.285 -0.8091 -1.7377  0.4479
18713TIP3   OH277629   2.725   4.179   6.696 -0.5777  0.3655  0.1007
18713TIP3    H177630   2.765   4.242   6.756 -2.1947  0.8192  0.7261
18713TIP3    H277631   2.710   4.101   6.750 -1.6156  0.6172  0.1948
18714TIP3   OH277632   6.154   5.639   5.442 -0.4344 -0.4699 -0.4642
18714TIP3    H177633   6.142   5.733   5.460 -0.7083 -0.5004 -0.4798
18714TIP3    H277634   6.072   5.613   5.400 -0.4798 -0.7832 -0.1813
18715TIP3   OH277635   4.850   1.984   4.716 -0.0517 -0.0681 -0.5612
18715TIP3    H177636   4.885   1.899   4.690 -0.4198 -0.6199  0.7258
18715TIP3    H277637   4.900   2.008   4.794 -1.9177 -0.4873  0.8087
18716TIP3   OH277638   3.996   3.493   2.707  0.4930 -0.3891  0.2972
18716TIP3    H177639   4.022   3.562   2.768  0.9618 -1.1881  1.0150
18716TIP3    H277640   4.029   3.523   2.622 -0.3525  0.8311  0.3917
18717TIP3   OH277641   3.217   2.119   3.203  0.3236 -0.1227  0.0061
18717TIP3    H177642   3.253   2.054   3.143  0.9726  0.6941 -0.4925
18717TIP3    H277643   3.268   2.108   3.283  0.5140 -0.1480 -0.1176
18718TIP3   OH277644   2.350   3.070   5.344  0.2650  0.4824 -0.2196
18718TIP3    H177645   2.284   3.097   5.281  0.5741 -0.5504 -0.9877
18718TIP3    H277646   2.305   3.008   5.401  0.5512 -0.1910 -0.7186
18719TIP3   OH277647   6.424   3.759   0.904 -0.0776 -0.0153 -0.1138
18719TIP3    H177648   6.467   3.774   0.821 -0.5693 -1.1493 -0.5878
18719TIP3    H277649   6.376   3.840   0.922  0.1109  0.2640 -0.8792
18720TIP3   OH277650   4.254   5.970   2.009  0.5921  0.1509 -0.1342
18720TIP3    H177651   4.334   5.965   1.957  0.1808 -2.2647 -0.5928
18720TIP3    H277652   4.183   5.974   1.944  0.3744  3.7037  0.2593
18721TIP3   OH277653   0.693   3.302  13.262 -0.1697  0.2181 -0.1094
18721TIP3    H177654   0.689   3.230  13.198  0.8283 -0.2321  0.3318
18721TIP3    H277655   0.676   3.259  13.346  1.2180  0.3678  0.2509
18722TIP3   OH277656   3.263   5.678  15.531  0.4575  0.0088  0.4991
18722TIP3    H177657   3.313   5.708  15.607  1.2488  0.1076 -0.0493
18722TIP3    H277658   3.288   5.739  15.461  1.7547 -1.6453 -0.5186
18723TIP3   OH277659   3.456   3.848   1.917 -0.2052  0.0154  0.4652
18723TIP3    H177660   3.433   3.755   1.910 -0.6685 -0.2042  4.0563
18723TIP3    H277661   3.428   3.886   1.833 -0.3874 -2.9723 -0.8961
18724TIP3   OH277662   4.981   6.311  11.443  0.1851  0.1947 -0.1284
18724TIP3    H177663   5.069   6.346  11.430  1.1713 -0.6057  3.6305
18724TIP3    H277664   4.944   6.364  11.514 -2.1175  0.0824 -1.2011
18725TIP3   OH277665   4.895   6.337  10.805  0.2584 -0.8339 -0.2395
18725TIP3    H177666   4.855   6.281  10.872 -0.7845  0.9984  0.6967
18725TIP3    H277667   4.854   6.309  10.723 -3.0874  1.0680  0.7130
18726TIP3   OH277668   6.241   1.142   1.681  0.4575  0.0863 -0.4233
18726TIP3    H177669   6.254   1.152   1.775  0.5447  0.7105 -0.5017
18726TIP3    H277670   6.159   1.188   1.663 -0.0510 -0.8417 -0.5008
18727TIP3   OH277671   2.367   5.215  13.968  0.0665  0.0675  0.2293
18727TIP3    H177672   2.331   5.199  13.881  0.3995  0.7252 -0.0350
18727TIP3    H277673   2.455   5.250  13.952 -0.5327  1.8981  0.7847
18728TIP3   OH277674   6.817   1.580  13.616  0.1529  0.0613  0.1114
18728TIP3    H177675   6.898   1.560  13.664 -0.1358  0.7838  0.9008
18728TIP3    H277676   6.747   1.546  13.671 -0.0872 -0.7214 -0.6543
18729TIP3   OH277677   0.956   5.141  13.267 -0.1170  0.1150  0.0181
18729TIP3    H177678   0.943   5.174  13.178 -0.8899  2.4134  0.9470
18729TIP3    H277679   0.869   5.147  13.307 -0.0858 -2.2562  0.5220
18730TIP3   OH277680   3.331   0.142  14.397  0.0077 -0.0663  0.1833
18730TIP3    H177681   3.315   0.214  14.457  1.2937  2.1080 -1.9924
18730TIP3    H277682   3.274   0.160  14.322 -0.8088 -2.1746  0.2549
18731TIP3   OH277683   2.106   1.506   0.886 -0.4733 -0.0807 -0.7148
18731TIP3    H177684   2.148   1.434   0.839 -1.7157 -0.6691 -0.9414
18731TIP3    H277685   2.097   1.474   0.976  0.0809  0.2653 -0.5360
18732TIP3   OH277686   1.699   4.588   2.204 -0.5769  0.0136 -0.2883
18732TIP3    H177687   1.730   4.519   2.262 -1.8942  0.8057  1.3852
18732TIP3    H277688   1.636   4.637   2.256 -1.4469  1.0239 -2.2388
18733TIP3   OH277689   6.290   3.466  12.526 -0.1011 -0.5614 -0.0438
18733TIP3    H177690   6.277   3.531  12.458  0.6262 -1.0985 -0.6939
18733TIP3    H277691   6.202   3.433  12.544 -0.3412 -0.1362 -0.4319
18734TIP3   OH277692   5.842   2.327  12.940  0.0083  0.1187  0.5967
18734TIP3    H177693   5.819   2.346  12.849  1.0295 -0.1700  0.2707
18734TIP3    H277694   5.867   2.412  12.976 -0.6640  0.2801  0.6910
18735TIP3   OH277695   3.864   1.380  15.083 -0.0710 -0.4349  0.2372
18735TIP3    H177696   3.932   1.345  15.141  2.4327  2.1957 -1.0285
18735TIP3    H277697   3.805   1.428  15.141  2.3453  2.0776  0.6883
18736TIP3   OH277698   6.283   4.805  17.126  0.3714  0.6704  0.0488
18736TIP3    H177699   6.217   4.873  17.115  0.2570  0.5128 -0.2222
18736TIP3    H277700   6.323   4.825  17.211 -1.3083 -0.3427  1.1146
18737TIP3   OH277701   1.750   5.825  12.908  0.0477 -0.9221  0.7099
18737TIP3    H177702   1.730   5.778  12.827 -0.0959  0.2062  0.0917
18737TIP3    H277703   1.740   5.758  12.977  0.1377 -1.8709 -0.1855
18738TIP3   OH277704   3.483   3.139   4.815 -0.2681 -0.1928 -0.5157
18738TIP3    H177705   3.559   3.134   4.758  0.7496 -1.5836  0.9282
18738TIP3    H277706   3.503   3.209   4.877 -1.5833  1.6582 -2.1044
18739TIP3   OH277707   5.607   6.400  12.750  0.1010  0.3836  0.6195
18739TIP3    H177708   5.634   6.487  12.782 -0.7641  0.8345  0.1355
18739TIP3    H277709   5.512   6.400  12.760  0.0559 -0.3286  0.1522
18740TIP3   OH277710   3.194   4.600   1.488  0.1765 -0.0001  0.1392
18740TIP3    H177711   3.220   4.645   1.408  1.7330  0.4759  0.8750
18740TIP3    H277712   3.222   4.509   1.475  0.7541  0.1547  0.2677
18741TIP3   OH277713   1.099   0.926  14.330  0.2110 -0.3289  0.1040
18741TIP3    H177714   1.157   0.907  14.257  0.4209  0.2641  0.1155
18741TIP3    H277715   1.119   0.858  14.395  0.7008 -0.2804  0.0018
18742TIP3   OH277716   1.086   4.536  13.396  0.1622 -0.2722 -0.1275
18742TIP3    H177717   1.158   4.527  13.459  0.7747 -1.2712 -0.9531
18742TIP3    H277718   1.082   4.451  13.352 -0.6406  0.2227 -1.0290
18743TIP3   OH277719   3.971   4.717   3.091 -0.1574 -0.4261  0.2153
18743TIP3    H177720   4.056   4.681   3.067 -0.9818 -2.0016 -0.4591
18743TIP3    H277721   3.953   4.683   3.178 -0.1724 -0.2354  0.2876
18744TIP3   OH277722   5.304   3.199  14.874 -0.0591 -0.4435 -0.1995
18744TIP3    H177723   5.282   3.208  14.782  0.2860  2.2260 -0.0610
18744TIP3    H277724   5.397   3.222  14.880  0.1252 -1.3728  0.7037
18745TIP3   OH277725   3.689   6.109   3.688 -0.0111  0.0385  0.0296
18745TIP3    H177726   3.771   6.072   3.654  0.6339  0.8464  0.6688
18745TIP3    H277727   3.641   6.034   3.722  0.1061 -0.5500 -1.0695
18746TIP3   OH277728   1.657   0.490  13.135  0.0536  0.1649 -0.6785
18746TIP3    H177729   1.604   0.491  13.055  0.6739 -1.7223 -1.1532
18746TIP3    H277730   1.744   0.516  13.105 -0.3644  2.2955 -0.0792
18747TIP3   OH277731   4.290   3.353   5.473  0.1399  0.5997 -0.2560
18747TIP3    H177732   4.347   3.288   5.514 -0.6568 -0.3180 -0.5679
18747TIP3    H277733   4.340   3.434   5.475  0.9547  0.0852  0.5916
18748TIP3   OH277734   4.578   1.624   5.046 -0.4752 -0.0739 -0.2721
18748TIP3    H177735   4.657   1.596   5.091 -0.9555  0.0051  0.6438
18748TIP3    H277736   4.609   1.677   4.973  0.2595  2.5523  1.8528
18749TIP3   OH277737   4.853   5.994  12.875 -0.6614  0.4685 -0.2934
18749TIP3    H177738   4.892   6.064  12.926  1.7425  0.1404 -1.6057
18749TIP3    H277739   4.811   5.937  12.940  0.2086  1.3652  1.0755
18750TIP3   OH277740   4.921   6.460  16.774 -0.5661 -0.1380  0.2243
18750TIP3    H177741   4.981   6.535  16.773 -0.1170 -0.4722  1.0931
18750TIP3    H277742   4.977   6.386  16.799 -0.5990 -1.1279 -2.5527
18751TIP3   OH277743   0.560   4.958  11.764  0.1254 -0.3600 -0.3204
18751TIP3    H177744   0.527   4.973  11.853 -0.6391 -0.1304 -0.6427
18751TIP3    H277745   0.486   4.977  11.707 -0.4733 -3.8982 -0.8465
18752TIP3   OH277746   4.269   5.548   0.143  0.3247  0.0227 -0.4721
18752TIP3    H177747   4.273   5.593   0.227 -1.9465 -1.4641  0.5021
18752TIP3    H277748   4.274   5.617   0.077 -2.2394  1.6648  0.9724
18753TIP3   OH277749   3.546   0.973  11.352 -0.4119  0.0300 -0.7230
18753TIP3    H177750   3.519   0.974  11.260  0.4558 -1.3501 -1.0018
18753TIP3    H277751   3.588   1.058  11.366 -1.4903  0.6700 -1.2981
18754TIP3   OH277752   5.759   4.274  10.646 -0.0272  0.0641  0.2721
18754TIP3    H177753   5.735   4.347  10.588  0.4082 -1.0592 -1.3657
18754TIP3    H277754   5.793   4.316  10.724  0.7200  1.6291 -0.8633
18755TIP3   OH277755   2.975   2.878   0.456  0.0007  0.0909  0.4754
18755TIP3    H177756   2.953   2.939   0.526 -1.6822 -0.6977  0.6507
18755TIP3    H277757   3.071   2.869   0.461  0.0621  1.2860  1.6104
18756TIP3   OH277758   2.317   1.066   4.529 -0.0675  0.2041 -0.4190
18756TIP3    H177759   2.286   1.032   4.445 -1.1358  1.1442 -0.4180
18756TIP3    H277760   2.411   1.045   4.530 -0.5946 -2.3366 -0.5967
18757TIP3   OH277761   5.247   6.424   5.095 -0.2484  0.1142  0.0114
18757TIP3    H177762   5.264   6.483   5.169  0.7172 -0.7682  0.5036
18757TIP3    H277763   5.225   6.340   5.135  2.4204 -0.9677 -0.6783
18758TIP3   OH277764   5.587   4.071  16.686  0.3196  0.1666  0.1327
18758TIP3    H177765   5.564   4.093  16.596  0.3300 -2.1822 -0.4795
18758TIP3    H277766   5.637   3.990  16.679 -0.0036 -0.2626  2.3021
18759TIP3   OH277767   3.126   6.073  13.361  0.6328  0.0045 -0.4085
18759TIP3    H177768   3.083   6.097  13.443  0.0638 -1.8533 -0.1210
18759TIP3    H277769   3.067   6.104  13.293 -0.7871 -1.7376 -0.0239
18760TIP3   OH277770   6.678   4.313   4.365 -0.0595 -0.1698 -0.2365
18760TIP3    H177771   6.669   4.219   4.379 -0.4256 -0.3921 -1.9196
18760TIP3    H277772   6.606   4.351   4.416 -0.0862 -0.8013  0.2074
18761TIP3   OH277773   3.924   1.855   6.370 -0.7138  0.3019 -0.4299
18761TIP3    H177774   4.017   1.866   6.348 -0.3651 -0.0580  0.8307
18761TIP3    H277775   3.883   1.831   6.287  0.6353 -1.3706 -0.6413
18762TIP3   OH277776   4.491   4.460   1.229  0.3461 -0.1063  0.1225
18762TIP3    H177777   4.555   4.497   1.290  0.8071  1.5948 -1.3231
18762TIP3    H277778   4.451   4.537   1.187 -2.2354 -1.1605  0.5745
18763TIP3   OH277779   0.237   4.315   3.510 -0.2658  0.3541  0.6951
18763TIP3    H177780   0.330   4.332   3.524  0.0973 -1.0884  0.0447
18763TIP3    H277781   0.212   4.374   3.439 -0.0870  1.4167  1.4952
18764TIP3   OH277782   3.295   3.168  16.448  0.2142 -0.2588 -0.2518
18764TIP3    H177783   3.348   3.094  16.476  0.8892  0.1222 -0.5004
18764TIP3    H277784   3.271   3.149  16.358  1.1323  0.2432 -0.6008
18765TIP3   OH277785   4.172   0.557   4.137 -0.1090 -0.0278  0.0941
18765TIP3    H177786   4.213   0.557   4.051 -1.3960  0.9783 -0.5439
18765TIP3    H277787   4.115   0.480   4.137  1.0126 -0.8763  0.6211
18766TIP3   OH277788   4.379   0.197   0.372  0.0281 -0.2815  0.2660
18766TIP3    H177789   4.343   0.274   0.416  1.2948 -0.7723  2.2264
18766TIP3    H277790   4.308   0.132   0.375  0.4270 -0.6693  2.5948
18767TIP3   OH277791   1.712   3.949  13.190 -0.0419 -0.2041  0.3147
18767TIP3    H177792   1.692   4.033  13.231  0.9410  0.0863  0.2080
18767TIP3    H277793   1.701   3.885  13.260  2.1889  0.3470  1.2004
18768TIP3   OH277794   3.299   0.482   0.424  0.1354  1.1924 -0.1283
18768TIP3    H177795   3.214   0.521   0.441 -0.0058  0.4121  1.0132
18768TIP3    H277796   3.299   0.463   0.330 -0.6457  1.9043 -0.2708
18769TIP3   OH277797   0.967   1.537   0.468  0.1276  0.2333  0.2361
18769TIP3    H177798   0.994   1.577   0.385  1.4984  0.6506  0.8568
18769TIP3    H277799   0.916   1.461   0.443  0.4278  0.4220 -0.9918
18770TIP3   OH277800   5.084   0.823   0.278 -0.5728  0.1409 -0.3873
18770TIP3    H177801   5.166   0.870   0.291 -0.6998 -0.0314  1.1316
18770TIP3    H277802   5.020   0.870   0.333 -1.5279  0.3711 -1.6751
18771TIP3   OH277803   2.876   0.850   4.405  0.4791  0.1414  0.5200
18771TIP3    H177804   2.924   0.772   4.376  0.7466 -0.7417  3.1182
18771TIP3    H277805   2.814   0.868   4.335  2.1521 -0.8710 -1.2753
18772TIP3   OH277806   6.798   5.967  11.550  0.4243  0.4617 -0.5357
18772TIP3    H177807   6.784   5.943  11.458 -2.7926  0.4169 -0.0744
18772TIP3    H277808   6.760   6.054  11.558 -2.5636 -0.9609  1.5398
18773TIP3   OH277809   5.069   4.703   6.145  0.2929  0.0571  0.0884
18773TIP3    H177810   5.046   4.712   6.052  0.6785 -0.4131 -0.0586
18773TIP3    H277811   5.006   4.758   6.191 -0.6010 -0.5634 -0.3709
18774TIP3   OH277812   2.459   6.434  11.569 -0.3234  0.7937  0.4536
18774TIP3    H177813   2.429   6.490  11.641 -0.9895 -1.6929  2.1631
18774TIP3    H277814   2.439   6.345  11.597 -3.6576 -0.1392 -4.1992
18775TIP3   OH277815   0.205   6.434   4.620  0.4025  0.1929 -0.5474
18775TIP3    H177816   0.211   6.524   4.651  1.8214  0.4360 -1.4783
18775TIP3    H277817   0.188   6.382   4.699  2.7705  0.9179  0.4937
18776TIP3   OH277818   6.306   3.217   4.015 -0.5708 -0.2124 -1.0619
18776TIP3    H177819   6.322   3.307   3.989 -1.4717  0.4900  0.7067
18776TIP3    H277820   6.211   3.211   4.024 -0.3400 -0.4948  1.6380
18777TIP3   OH277821   0.761   0.010  14.685  0.5674  0.2947 -0.0728
18777TIP3    H177822   0.779   0.069  14.758  0.3970  0.9094 -0.5235
18777TIP3    H277823   0.699  -0.054  14.721  0.2853  0.7427  0.2508
18778TIP3   OH277824   1.646   4.363   4.670  0.2770 -0.0023 -0.2467
18778TIP3    H177825   1.553   4.341   4.657  0.2583  0.7223 -1.3588
18778TIP3    H277826   1.644   4.429   4.739  0.1468 -1.6138  1.3290
18779TIP3   OH277827   2.344   1.430  11.045  0.2888 -0.0532 -0.0765
18779TIP3    H177828   2.330   1.492  11.117  0.5331 -0.2546  0.1419
18779TIP3    H277829   2.431   1.452  11.011  1.0446 -1.3114  1.0142
18780TIP3   OH277830   1.165   1.499   4.497  0.1973  0.7007  0.1072
18780TIP3    H177831   1.128   1.419   4.459  2.2237  0.1846 -0.8417
18780TIP3    H277832   1.243   1.516   4.446  1.2525  1.7863  2.0255
18781TIP3   OH277833   3.945   3.393  15.589  0.0472 -0.3071 -0.1566
18781TIP3    H177834   4.000   3.323  15.553 -0.3686 -1.1405  0.7947
18781TIP3    H277835   3.979   3.407  15.677 -0.4237  0.0933 -0.0387
18782TIP3   OH277836   0.168   3.276  16.895 -0.2289  0.4846  0.3566
18782TIP3    H177837   0.191   3.335  16.822  0.8455  0.1611  0.4217
18782TIP3    H277838   0.247   3.223  16.907 -0.7339 -0.0712  1.1679
18783TIP3   OH277839   6.416   4.029  13.837  0.2980 -0.0561  0.4667
18783TIP3    H177840   6.339   4.087  13.830 -0.4522 -0.9692  1.0073
18783TIP3    H277841   6.379   3.942  13.852  1.2952 -1.1494 -2.8584
18784TIP3   OH277842   1.083   0.021  14.972 -0.3752 -0.1817  0.6606
18784TIP3    H177843   1.142  -0.053  14.986  2.8535  2.3107  0.7344
18784TIP3    H277844   1.064   0.054  15.060 -2.1726 -1.1575  0.6557
18785TIP3   OH277845   5.259   4.486  14.552 -0.0011 -0.0655  0.2209
18785TIP3    H177846   5.350   4.459  14.555 -0.5878 -2.0489  0.7126
18785TIP3    H277847   5.210   4.406  14.535 -1.7673  0.7389  1.3347
18786TIP3   OH277848   4.698   1.758   4.523 -0.0134 -0.1628  1.1628
18786TIP3    H177849   4.751   1.699   4.470  0.8242  0.0561  1.7509
18786TIP3    H277850   4.755   1.832   4.542 -0.8603  0.5574  0.9407
18787TIP3   OH277851   5.360   1.267   6.535  0.7010 -0.5521  0.6258
18787TIP3    H177852   5.424   1.196   6.545 -0.0140 -1.0259  2.0187
18787TIP3    H277853   5.275   1.225   6.552  0.1804  0.4240  0.4442
18788TIP3   OH277854   3.923   3.736  11.929 -0.2682 -0.0384 -0.3712
18788TIP3    H177855   3.886   3.648  11.915 -1.8696  0.5938 -0.2129
18788TIP3    H277856   3.972   3.754  11.849  1.2907 -1.6661  0.1983
18789TIP3   OH277857   0.910   1.138   3.150  0.4724 -0.5666  0.6308
18789TIP3    H177858   0.984   1.101   3.102  0.5400 -0.2978  0.5279
18789TIP3    H277859   0.938   1.228   3.171 -0.5381  0.1180 -0.9281
18790TIP3   OH277860   0.465   3.656  11.192  0.3301 -0.1264 -0.2745
18790TIP3    H177861   0.552   3.617  11.195  1.6286  2.8539  1.9720
18790TIP3    H277862   0.474   3.734  11.137 -1.0594 -0.0886 -0.4871
18791TIP3   OH277863   0.536   0.974  11.072 -0.6586  0.4475  0.1653
18791TIP3    H177864   0.482   1.048  11.101 -0.6252  0.6880 -0.3634
18791TIP3    H277865   0.575   0.940  11.152 -0.9564  0.7820  0.4585
18792TIP3   OH277866   6.317   6.190   5.475 -0.2255  0.0830  0.1833
18792TIP3    H177867   6.328   6.276   5.433 -2.0994 -0.0972 -0.7528
18792TIP3    H277868   6.259   6.208   5.550 -2.6995 -0.7204 -1.4612
18793TIP3   OH277869   4.706   0.241  10.973  0.4144  0.5472  0.6478
18793TIP3    H177870   4.740   0.327  10.998  1.8176  0.1189  0.3079
18793TIP3    H277871   4.625   0.259  10.925  1.6105  1.8074 -0.9833
18794TIP3   OH277872   3.791   6.432   5.166 -0.6521  0.1205  0.4551
18794TIP3    H177873   3.733   6.501   5.132 -0.7451 -0.1190  0.1228
18794TIP3    H277874   3.878   6.457   5.134 -0.7237 -0.0476  0.1316
18795TIP3   OH277875   5.067   1.620  12.752  0.5735  0.6618  0.5164
18795TIP3    H177876   5.029   1.648  12.835 -1.0969 -1.1332  0.3875
18795TIP3    H277877   5.057   1.525  12.752  0.3908  0.6543 -1.7959
18796TIP3   OH277878   0.360   6.074   3.080  0.4083  0.2007 -0.6098
18796TIP3    H177879   0.425   6.037   3.140 -0.3794  0.1759  0.2374
18796TIP3    H277880   0.355   6.011   3.008 -0.1798 -0.8437  0.3329
18797TIP3   OH277881   5.365   6.609   0.879  0.4682 -0.0352  0.1192
18797TIP3    H177882   5.330   6.521   0.864 -0.1489  0.2513 -0.1400
18797TIP3    H277883   5.335   6.633   0.966 -0.1114  0.2730 -0.1653
18798TIP3   OH277884   3.182   1.318   0.635  0.1299  0.2448  0.1167
18798TIP3    H177885   3.118   1.388   0.638 -1.3165 -1.1068  2.8996
18798TIP3    H277886   3.256   1.351   0.687 -0.2591 -0.0112  0.8356
18799TIP3   OH277887   2.036   0.716  15.996  0.9642  0.5712 -0.0280
18799TIP3    H177888   2.122   0.678  15.978  0.7266  0.2206 -0.4316
18799TIP3    H277889   2.004   0.744  15.910  0.0957 -0.5273 -0.0679
18800TIP3   OH277890   3.471   0.421   5.093  0.4468 -0.2332 -0.0778
18800TIP3    H177891   3.496   0.329   5.083  0.3528 -0.4310  1.3691
18800TIP3    H277892   3.377   0.422   5.074  0.7850 -0.1253 -1.8240
18801TIP3   OH277893   1.517   0.358   4.260  0.5832  0.1499  0.6915
18801TIP3    H177894   1.431   0.398   4.274 -1.0891 -1.9418 -2.6472
18801TIP3    H277895   1.569   0.427   4.220 -0.5408  0.5812 -0.0761
18802TIP3   OH277896   5.117   1.318   2.020  0.2231  0.2223  0.9044
18802TIP3    H177897   5.152   1.273   1.943 -0.1069 -0.0320  0.9044
18802TIP3    H277898   5.178   1.297   2.090 -1.0332 -1.8937  1.3884
18803TIP3   OH277899   1.246   0.323  17.248  0.3346 -0.1770 -0.2011
18803TIP3    H177900   1.207   0.338  17.162  1.8274  0.8937 -0.7154
18803TIP3    H277901   1.296   0.402  17.266  2.3029 -1.5301  0.4095
18804TIP3   OH277902   5.276   4.579   3.798  0.0131  0.0560  0.0963
18804TIP3    H177903   5.268   4.528   3.878  1.9393  0.8440  0.8258
18804TIP3    H277904   5.208   4.544   3.740 -0.8859 -1.0437  1.7770
18805TIP3   OH277905   0.580   3.753   5.819 -0.0019 -0.2407  0.1092
18805TIP3    H177906   0.664   3.797   5.834 -0.1385  0.4008 -0.9939
18805TIP3    H277907   0.604   3.662   5.798  0.3018 -0.5932  1.8504
18806TIP3   OH277908   1.920   2.630  12.952 -0.2857  0.0733 -0.1997
18806TIP3    H177909   1.988   2.675  13.003 -0.0890 -0.8765  0.3904
18806TIP3    H277910   1.965   2.603  12.871  0.0656 -0.6315  0.2285
18807TIP3   OH277911   3.927   3.495   4.123 -0.4478  0.0540 -0.2099
18807TIP3    H177912   4.021   3.513   4.125 -0.4753  0.1243  0.4671
18807TIP3    H277913   3.893   3.537   4.202 -1.3728  1.8950 -1.5401
18808TIP3   OH277914   1.078   4.979   4.358 -0.1850 -0.3029  0.1890
18808TIP3    H177915   0.985   4.993   4.371 -0.1487 -0.6229  0.7725
18808TIP3    H277916   1.104   5.049   4.298 -0.4990  0.6824  1.1882
18809TIP3   OH277917   3.466   3.124  14.797 -0.0460  0.3857  0.0704
18809TIP3    H177918   3.537   3.181  14.769 -0.3762  0.0082 -1.5834
18809TIP3    H277919   3.426   3.170  14.871  1.2978  1.0600  0.3890
18810TIP3   OH277920   3.152   1.296   1.008  0.0964 -0.0142  0.0978
18810TIP3    H177921   3.207   1.328   0.936  0.9864  1.8303  1.5665
18810TIP3    H277922   3.132   1.374   1.060 -4.2358 -0.5549 -0.5564
18811TIP3   OH277923   4.009   0.564  12.124 -0.5505 -0.0559  0.1039
18811TIP3    H177924   4.061   0.483  12.127  0.7826  0.8317  1.7788
18811TIP3    H277925   3.922   0.535  12.098  0.2535 -1.8652 -0.6577
18812TIP3   OH277926   3.203   1.373  13.046 -0.2882  0.5717 -0.2403
18812TIP3    H177927   3.206   1.322  12.965 -0.9993  0.1741 -0.0210
18812TIP3    H277928   3.195   1.464  13.016  2.7373  0.7314 -0.6446
18813TIP3   OH277929   4.129   6.706   3.618 -0.5397  0.0668 -0.0382
18813TIP3    H177930   4.157   6.656   3.695 -0.2429  0.7376  0.2910
18813TIP3    H277931   4.144   6.646   3.544 -0.5152 -0.4573  0.3874
18814TIP3   OH277932   2.017   2.769  17.227 -0.2179 -0.3562 -0.1384
18814TIP3    H177933   2.055   2.847  17.187 -1.6632  0.5954  0.2628
18814TIP3    H277934   2.045   2.773  17.319  0.5990 -0.8896 -0.3658
18815TIP3   OH277935   5.875   3.861  11.949 -0.1258  0.2605 -0.3339
18815TIP3    H177936   5.905   3.844  12.039 -0.1191 -0.2698 -0.4359
18815TIP3    H277937   5.852   3.954  11.949  1.6458  0.7287 -0.2867
18816TIP3   OH277938   0.253   6.692   4.697 -0.0596 -0.0443  0.0435
18816TIP3    H177939   0.292   6.744   4.768 -1.1896  1.0753 -0.1420
18816TIP3    H277940   0.193   6.752   4.654 -0.8349 -1.3039 -0.6450
18817TIP3   OH277941   2.264   3.759  17.206 -0.1553 -0.2643  0.5271
18817TIP3    H177942   2.253   3.854  17.206 -0.1031 -0.2563 -1.1200
18817TIP3    H277943   2.175   3.724  17.215 -0.6214 -0.0823 -2.8415
18818TIP3   OH277944   3.989   1.043   0.293  0.2098  0.4005  0.2801
18818TIP3    H177945   3.983   0.949   0.312  0.8376  0.5272  1.1166
18818TIP3    H277946   4.077   1.055   0.259 -0.5673  0.3466 -1.8333
18819TIP3   OH277947   3.922   0.718   2.093 -0.3430 -0.0042  0.3002
18819TIP3    H177948   3.974   0.661   2.150 -0.7138  0.0351  0.6858
18819TIP3    H277949   3.889   0.787   2.152  1.2197  1.3838 -0.4354
18820TIP3   OH277950   3.233   4.278   5.621 -0.4979  0.0779 -0.3713
18820TIP3    H177951   3.234   4.291   5.716  2.3072 -1.3971 -0.1523
18820TIP3    H277952   3.254   4.364   5.585  0.4204  0.1932  0.4205
18821TIP3   OH277953   3.082   4.282  13.599 -0.2183 -0.7742  0.3352
18821TIP3    H177954   3.055   4.365  13.560 -0.0088 -0.6092  0.5430
18821TIP3    H277955   3.002   4.247  13.639  0.1612  0.3868  2.1727
18822TIP3   OH277956   3.474   1.764   3.190 -0.1627  0.6206  0.0514
18822TIP3    H177957   3.403   1.796   3.245  0.6593  1.0057  0.9107
18822TIP3    H277958   3.437   1.689   3.144 -1.5292  1.6370 -0.5407
18823TIP3   OH277959   2.288   6.655   0.978 -0.5932 -0.0289 -0.1181
18823TIP3    H177960   2.338   6.587   0.933  1.0277  2.0876 -1.6089
18823TIP3    H277961   2.198   6.623   0.977  0.2663 -2.5637  0.0239
18824TIP3   OH277962   3.443   2.926  13.717 -0.3018  0.0892 -0.2390
18824TIP3    H177963   3.524   2.893  13.754 -0.9819 -0.0439  1.1447
18824TIP3    H277964   3.441   3.019  13.741 -0.6860  0.0348 -0.0594
18825TIP3   OH277965   5.888   2.946   3.901  0.0250  0.1052  0.0968
18825TIP3    H177966   5.861   3.011   3.836 -2.2028 -0.3177  0.5280
18825TIP3    H277967   5.806   2.920   3.943  1.2448 -0.7935  1.9819
18826TIP3   OH277968   5.591   2.526   1.494  0.6856 -0.5493  0.3754
18826TIP3    H177969   5.591   2.579   1.574 -0.9227  0.3283 -0.1913
18826TIP3    H277970   5.516   2.468   1.504 -0.0114  0.1248 -0.8513
18827TIP3   OH277971   5.229   4.571  13.196 -0.5742  0.5180 -0.1576
18827TIP3    H177972   5.236   4.592  13.103 -1.4832  1.4501 -0.0334
18827TIP3    H277973   5.286   4.496  13.209 -0.2892  0.5129 -1.4310
18828TIP3   OH277974   4.236   0.215  11.430  0.0620 -0.4523 -0.1419
18828TIP3    H177975   4.193   0.164  11.498 -0.3219  0.7682  0.5435
18828TIP3    H277976   4.329   0.214  11.453  0.4720 -3.2276 -1.7133
18829TIP3   OH277977   2.054   0.399  14.946 -0.0582  0.8651  0.2148
18829TIP3    H177978   2.132   0.347  14.926  0.5777  2.1064 -0.5625
18829TIP3    H277979   2.033   0.444  14.864  0.1231  2.7997  1.2108
18830TIP3   OH277980   4.816   3.365  14.123 -0.0760  0.2962  0.6576
18830TIP3    H177981   4.824   3.363  14.028 -2.0741  1.1241  0.4597
18830TIP3    H277982   4.838   3.276  14.151  0.4061  0.0213 -0.5656
18831TIP3   OH277983   1.364   2.768   1.602  0.1468  0.4275  0.4487
18831TIP3    H177984   1.344   2.693   1.658  3.4316  0.0845  1.2418
18831TIP3    H277985   1.392   2.837   1.662  1.1724  0.9077 -0.5495
18832TIP3   OH277986   6.228   1.899  15.175  0.0968 -0.6321 -0.2435
18832TIP3    H177987   6.247   1.953  15.252 -0.2898 -0.7496 -0.0654
18832TIP3    H277988   6.211   1.962  15.106 -0.6001 -0.5160  0.0243
18833TIP3   OH277989   1.549   3.827  16.935 -0.3377 -0.2205 -0.5506
18833TIP3    H177990   1.615   3.888  16.902  0.9656 -1.6804 -0.7518
18833TIP3    H277991   1.537   3.852  17.027 -1.0009  1.3364 -1.0600
18834TIP3   OH277992   0.669   5.190  14.475  0.6118 -0.0659  0.1524
18834TIP3    H177993   0.627   5.243  14.544  2.2795  1.5445 -0.0288
18834TIP3    H277994   0.613   5.203  14.398  0.1696  0.2154  0.5206
18835TIP3   OH277995   5.484   4.006   3.042  0.2342  0.1203  0.2967
18835TIP3    H177996   5.571   3.999   3.003 -0.2566 -0.9483 -0.6740
18835TIP3    H277997   5.454   4.094   3.018  1.6474  1.0916  1.9845
18836TIP3   OH277998   5.537   3.863  15.810  0.1913  0.1379 -0.0794
18836TIP3    H177999   5.476   3.801  15.770 -0.8404  1.0379  0.1038
18836TIP3    H278000   5.486   3.942  15.824  1.1355  0.5622  1.0110
18837TIP3   OH278001   3.469   5.737   1.952 -0.7157 -0.3814 -0.0031
18837TIP3    H178002   3.509   5.711   1.869  0.8462 -2.2564  1.2919
18837TIP3    H278003   3.375   5.737   1.934 -0.3211  1.1179 -2.2718
18838TIP3   OH278004   2.795   2.756   3.175 -0.1077 -0.5712 -0.1554
18838TIP3    H178005   2.887   2.778   3.185 -0.2236 -0.0549 -0.1771
18838TIP3    H278006   2.787   2.668   3.212  0.3026 -0.4289  0.2811
18839TIP3   OH278007   1.460   3.241  13.305  0.6156  0.3306 -0.0590
18839TIP3    H178008   1.448   3.177  13.375  0.9499 -0.0605 -0.3565
18839TIP3    H278009   1.548   3.224  13.271 -0.3244 -0.9040 -2.0014
18840TIP3   OH278010   4.195   2.269  15.658  0.2921 -0.1256 -0.0571
18840TIP3    H178011   4.108   2.260  15.696  1.2339  0.3666  2.3226
18840TIP3    H278012   4.200   2.361  15.631 -1.3521 -1.1052 -3.9802
18841TIP3   OH278013   6.181   3.810   1.132  0.2733 -0.3677 -0.1052
18841TIP3    H178014   6.128   3.876   1.178 -1.5390 -0.1975 -2.3632
18841TIP3    H278015   6.144   3.726   1.160 -0.2261 -0.2983 -0.5696
18842TIP3   OH278016   6.133   3.869   4.598 -0.1416  0.1041  0.4980
18842TIP3    H178017   6.188   3.795   4.625 -0.9576 -0.4212  0.7483
18842TIP3    H278018   6.190   3.946   4.608  0.1592 -0.2877  1.9364
18843TIP3   OH278019   0.335   0.573   2.692  0.3273  0.2477  0.2665
18843TIP3    H178020   0.392   0.532   2.626  0.3836 -0.5908  0.8363
18843TIP3    H278021   0.327   0.664   2.662  2.0491  0.4115  0.2288
18844TIP3   OH278022   0.831   3.396   3.565 -0.0061  0.3299  0.0556
18844TIP3    H178023   0.755   3.431   3.519 -0.0313 -0.2665 -0.3648
18844TIP3    H278024   0.862   3.324   3.510  0.6309  0.3187  0.4171
18845TIP3   OH278025   3.173   3.321  16.697 -0.3221  0.2114  0.5427
18845TIP3    H178026   3.214   3.271  16.767 -2.3341  0.0402  1.6156
18845TIP3    H278027   3.219   3.292  16.618  0.8731 -0.7766  1.5664
18846TIP3   OH278028   3.336   4.724   5.025 -0.3447  0.3896 -0.1136
18846TIP3    H178029   3.360   4.812   4.998  0.1209  0.5631  0.8415
18846TIP3    H278030   3.284   4.689   4.952 -1.2433  1.7584 -0.1450
18847TIP3   OH278031   6.554   2.175   4.625  0.3242  0.2395 -0.1154
18847TIP3    H178032   6.608   2.172   4.546  0.3980  1.4483 -0.1075
18847TIP3    H278033   6.598   2.236   4.684 -0.5698  0.5683  0.2331
18848TIP3   OH278034   3.146   0.896   6.075 -0.5234  0.5187 -0.3450
18848TIP3    H178035   3.087   0.967   6.047 -0.0404  0.9698 -0.2314
18848TIP3    H278036   3.103   0.858   6.151 -1.1304  0.2349 -0.8215
18849TIP3   OH278037   1.048   1.682  16.156  0.5058 -0.2007  0.2654
18849TIP3    H178038   1.044   1.618  16.085  0.6814  1.1778 -1.0058
18849TIP3    H278039   1.142   1.693  16.172  0.6335  2.0556 -1.6956
18850TIP3   OH278040   3.629   1.237  14.556 -0.2814  0.0642  0.3871
18850TIP3    H178041   3.657   1.314  14.507  1.9220 -1.0945 -0.2490
18850TIP3    H278042   3.646   1.259  14.648 -1.6354  1.1179  0.3906
18851TIP3   OH278043   6.351   0.775  13.875 -0.0030  0.6046 -0.8595
18851TIP3    H178044   6.358   0.799  13.967  1.0507 -2.1643 -0.1423
18851TIP3    H278045   6.274   0.718  13.871  1.2834 -1.1854 -1.1780
18852TIP3   OH278046   0.246   6.626  11.555 -0.1245  0.2681 -0.2036
18852TIP3    H178047   0.223   6.553  11.612 -2.5636  0.4318 -0.8887
18852TIP3    H278048   0.283   6.692  11.613  3.2413 -1.9164  0.2651
18853TIP3   OH278049   4.394   4.221   4.892  0.1292 -0.1795 -0.2225
18853TIP3    H178050   4.356   4.160   4.956  1.8762  0.3694  1.3975
18853TIP3    H278051   4.431   4.292   4.945  0.5362  0.9190 -1.9236
18854TIP3   OH278052   4.484   2.516  14.150  0.9135  0.1370 -0.5001
18854TIP3    H178053   4.570   2.556  14.164  0.7942  0.6013 -1.0756
18854TIP3    H278054   4.502   2.427  14.121  1.1923  0.1054 -0.2321
18855TIP3   OH278055   5.280   3.199  16.888 -0.2218  0.0005 -0.6872
18855TIP3    H178056   5.337   3.122  16.895 -0.7456 -0.3719 -0.4638
18855TIP3    H278057   5.193   3.163  16.873 -0.0600  0.6321 -3.3222
18856TIP3   OH278058   6.201   2.433   1.618  0.6342  0.4586 -0.3821
18856TIP3    H178059   6.108   2.452   1.624  0.3906 -1.2993  2.9673
18856TIP3    H278060   6.241   2.515   1.589 -1.6741  2.0843  0.8715
18857TIP3   OH278061   1.058   5.287   3.461 -0.1294  0.1164  0.2591
18857TIP3    H178062   1.137   5.234   3.450 -0.1445  0.2623 -0.6056
18857TIP3    H278063   1.089   5.377   3.454 -0.2760  0.1900  0.5650
18858TIP3   OH278064   4.698   4.462   4.194 -0.7083  0.2823  0.2961
18858TIP3    H178065   4.610   4.495   4.179 -1.7369 -2.0643  0.9763
18858TIP3    H278066   4.692   4.416   4.278  0.9932 -0.4570  0.0266
18859TIP3   OH278067   5.834   4.657   0.651  0.5068  0.2010 -0.5271
18859TIP3    H178068   5.877   4.649   0.736  0.8327 -2.2211 -0.8673
18859TIP3    H278069   5.743   4.633   0.668  0.4732  0.1428 -0.7859
18860TIP3   OH278070   4.644   2.150   4.693  0.4219 -0.6747 -0.4298
18860TIP3    H178071   4.601   2.121   4.774  0.5224 -0.1268 -0.1795
18860TIP3    H278072   4.725   2.099   4.689 -0.6368 -2.3038 -1.3222
18861TIP3   OH278073   5.842   6.022   0.981  0.1119  0.3651  0.1898
18861TIP3    H178074   5.877   6.048   0.896 -0.3114 -0.9848 -0.4249
18861TIP3    H278075   5.896   6.068   1.045  3.2414 -1.8534 -0.7147
18862TIP3   OH278076   4.846   1.704  17.151 -0.4592 -0.1299  0.1191
18862TIP3    H178077   4.843   1.648  17.073 -0.4327  5.7133 -4.4284
18862TIP3    H278078   4.754   1.722  17.170 -0.4375 -0.9553  1.0492
18863TIP3   OH278079   6.321   3.883  14.957 -0.4160 -0.1116 -0.3138
18863TIP3    H178080   6.410   3.909  14.932  0.7010 -2.3751  1.1049
18863TIP3    H278081   6.264   3.925  14.893  1.2668  4.9818  1.2457
18864TIP3   OH278082   5.891   2.419  15.649 -0.2759 -0.0761  0.5037
18864TIP3    H178083   5.861   2.339  15.692 -2.1207 -0.0777 -0.7361
18864TIP3    H278084   5.826   2.435  15.581  2.1589  0.3316 -1.7974
18865TIP3   OH278085   4.356   3.343  12.952  0.5142  0.6314  0.2687
18865TIP3    H178086   4.381   3.428  12.918 -0.9062  0.9694  0.0447
18865TIP3    H278087   4.310   3.362  13.033  1.0022  0.0173  0.6974
18866TIP3   OH278088   1.692   3.616  14.865 -0.2934 -0.1220 -0.1205
18866TIP3    H178089   1.702   3.603  14.771  2.4398  0.3974  0.0416
18866TIP3    H278090   1.758   3.682  14.887 -1.0351 -0.0829  2.1258
18867TIP3   OH278091   5.516   3.385   1.041  0.5018  0.1337  0.2548
18867TIP3    H178092   5.509   3.294   1.070 -2.0005  0.1611 -0.1776
18867TIP3    H278093   5.426   3.413   1.027  1.2868  2.4428 -0.3922
18868TIP3   OH278094   0.159   4.230  12.231 -0.0676 -0.4280 -0.4823
18868TIP3    H178095   0.245   4.189  12.221 -0.1318 -0.4818 -0.8292
18868TIP3    H278096   0.101   4.158  12.256 -0.6965 -1.0874 -3.5415
18869TIP3   OH278097   5.789   0.910   2.756 -0.2998  0.1192  0.0900
18869TIP3    H178098   5.868   0.909   2.702 -0.4775  0.8719 -0.1972
18869TIP3    H278099   5.794   0.831   2.809 -0.2329 -0.7487 -1.1995
18870TIP3   OH278100   2.437   6.289  16.351  0.5676 -0.5939 -0.0284
18870TIP3    H178101   2.390   6.366  16.384 -1.6787 -1.6219 -0.6613
18870TIP3    H278102   2.401   6.216  16.401  1.6340 -1.3994 -0.4254
18871TIP3   OH278103   5.787   0.909  14.011 -0.0923  0.1856  0.0587
18871TIP3    H178104   5.753   0.874  13.928 -1.5618  0.1347  0.6779
18871TIP3    H278105   5.773   0.838  14.074  0.7768  0.3284  0.4307
18872TIP3   OH278106   6.752   5.384  16.035 -0.6603  0.2084 -0.1446
18872TIP3    H178107   6.736   5.363  15.943 -0.7116 -1.9928  0.3315
18872TIP3    H278108   6.812   5.316  16.065  2.7139  3.3089  0.3926
18873TIP3   OH278109   5.348   3.016   6.000  0.2906  0.3226  0.2468
18873TIP3    H178110   5.320   3.107   6.005  0.8212  0.4785  0.3309
18873TIP3    H278111   5.433   3.014   6.043 -0.2075 -0.4181  1.2451
18874TIP3   OH278112   5.410   4.097   4.098 -0.1423 -0.9821  0.4775
18874TIP3    H178113   5.439   4.007   4.082 -2.1165 -1.5752  0.0478
18874TIP3    H278114   5.321   4.087   4.133 -1.4782  0.8626 -2.1827
18875TIP3   OH278115   3.891   1.620  16.571  0.0747 -0.1226 -0.5783
18875TIP3    H178116   3.832   1.599  16.643 -0.7138  0.0130 -1.1630
18875TIP3    H278117   3.975   1.584  16.596 -0.5800 -1.4777 -0.3033
18876TIP3   OH278118   4.269   2.443  17.254  0.0948 -0.0627 -0.0053
18876TIP3    H178119   4.262   2.455  17.159 -0.4024 -1.7929 -0.2113
18876TIP3    H278120   4.212   2.511  17.291  0.5531  0.8354 -0.9241
18877TIP3   OH278121   0.549   5.416   1.244  0.2890 -0.2490  0.0244
18877TIP3    H178122   0.455   5.415   1.264  0.1638  0.5594 -0.5099
18877TIP3    H278123   0.557   5.475   1.169  1.4444  1.0037  1.1214
18878TIP3   OH278124   6.413   0.596  11.157 -0.5872 -0.0765  0.1797
18878TIP3    H178125   6.464   0.526  11.117  1.3372  1.3558  0.0333
18878TIP3    H278126   6.476   0.642  11.213 -1.8116  1.5079  0.2831
18879TIP3   OH278127   4.553   5.200  13.319  0.1916  0.1893 -0.3095
18879TIP3    H178128   4.609   5.177  13.393 -0.1580 -1.3048 -0.4917
18879TIP3    H278129   4.464   5.181  13.350 -0.0303  0.3810 -0.8215
18880TIP3   OH278130   0.926   1.764  14.191  0.4804 -0.0539 -0.0165
18880TIP3    H178131   0.933   1.859  14.203 -1.7134  0.1010  0.3670
18880TIP3    H278132   0.853   1.739  14.249 -0.5344 -1.5876 -1.9163
18881TIP3   OH278133   5.096   4.502  14.185 -0.7132  0.4997  0.3740
18881TIP3    H178134   5.063   4.550  14.261 -0.0520 -0.4529  1.2590
18881TIP3    H278135   5.113   4.571  14.120  0.1864  1.4890  1.6179
18882TIP3   OH278136   5.011   5.386   5.063 -1.0758  0.2442  0.6605
18882TIP3    H178137   5.078   5.452   5.047 -1.0342 -0.1952 -1.0322
18882TIP3    H278138   4.931   5.436   5.078 -1.1625  0.6803 -1.1951
18883TIP3   OH278139   0.491   5.626  13.597 -0.2659  0.8162 -0.4062
18883TIP3    H178140   0.569   5.573  13.614 -1.6009 -0.4941  1.7515
18883TIP3    H278141   0.426   5.564  13.563 -1.6914  1.1168  1.7029
18884TIP3   OH278142   0.262   4.331  14.476  0.0284 -0.4096  0.1436
18884TIP3    H178143   0.218   4.256  14.517 -2.8931  0.7419 -0.7784
18884TIP3    H278144   0.303   4.377  14.550  1.5443 -2.6530  0.7600
18885TIP3   OH278145   0.677   4.909  16.322 -0.1437  0.9457  0.4127
18885TIP3    H178146   0.621   4.865  16.258  0.5834 -0.2562  0.5902
18885TIP3    H278147   0.763   4.912  16.281  1.0132 -2.3815  2.4235
18886TIP3   OH278148   0.386   2.327   5.384  0.4652  0.2522  0.0743
18886TIP3    H178149   0.403   2.382   5.307 -0.0264  1.0000  0.4947
18886TIP3    H278150   0.293   2.305   5.376  0.9590 -1.6220 -0.7992
18887TIP3   OH278151   2.399   1.902  16.549  0.3600 -0.1111  0.1066
18887TIP3    H178152   2.448   1.967  16.499  0.5756 -0.8773 -0.6911
18887TIP3    H278153   2.322   1.884  16.495  0.2232 -0.4064  0.3992
18888TIP3   OH278154   4.527   0.375  11.813  1.0241  0.0265 -0.1498
18888TIP3    H178155   4.516   0.470  11.821  1.2062  0.0416 -0.0786
18888TIP3    H278156   4.572   0.363  11.730  1.0823  0.0086 -0.1148
18889TIP3   OH278157   2.364   0.566   3.148  0.2791  0.0657  1.0481
18889TIP3    H178158   2.331   0.614   3.224  0.6653 -1.1747  2.0235
18889TIP3    H278159   2.338   0.475   3.164 -0.3027 -0.0774 -0.6927
18890TIP3   OH278160   2.058   4.399  14.231  0.1360  0.4681 -0.1604
18890TIP3    H178161   2.116   4.323  14.233 -0.8897 -0.3639 -1.2137
18890TIP3    H278162   2.073   4.439  14.146 -2.5399 -1.1788 -1.5206
18891TIP3   OH278163   0.420   6.017   4.691  0.4579  1.0425 -0.1361
18891TIP3    H178164   0.333   6.057   4.689  0.3233  0.7145 -1.0357
18891TIP3    H278165   0.418   5.953   4.620  1.0734  0.2724  0.5392
18892TIP3   OH278166   1.075   6.341  11.605 -0.5018 -0.3090  0.4110
18892TIP3    H178167   1.015   6.278  11.564  1.2230 -1.8137  0.1230
18892TIP3    H278168   1.155   6.290  11.621  0.8770  1.7742  0.3167
18893TIP3   OH278169   4.363   6.497   1.632  0.4146  0.1984 -0.0609
18893TIP3    H178170   4.450   6.483   1.593  2.4662  2.0269  3.6020
18893TIP3    H278171   4.345   6.416   1.679  0.8017  0.3751  0.3896
18894TIP3   OH278172   1.193   2.291   3.564  0.2082  0.2212 -0.3367
18894TIP3    H178173   1.239   2.336   3.493  0.0814  3.1498  1.3619
18894TIP3    H278174   1.105   2.274   3.529  0.3349  1.0955 -1.0914
18895TIP3   OH278175   2.274   6.764   5.638  1.0069  0.2350  0.1404
18895TIP3    H178176   2.211   6.837   5.641  2.2127  1.3290 -0.5216
18895TIP3    H278177   2.307   6.757   5.727 -0.9880 -1.1901  0.7874
18896TIP3   OH278178   0.410   5.142   3.737  0.6294  0.1150  0.4810
18896TIP3    H178179   0.363   5.098   3.807  0.4748  1.4030  1.1926
18896TIP3    H278180   0.445   5.222   3.777  1.2124  0.4666 -0.6980
18897TIP3   OH278181   3.208   4.437  11.259 -0.2273 -0.4657 -0.2718
18897TIP3    H178182   3.210   4.396  11.172  0.5305  0.1557 -0.5510
18897TIP3    H278183   3.115   4.455  11.275 -0.4901 -1.6125 -0.4607
18898TIP3   OH278184   1.577   5.582  11.014 -0.1698  0.2007 -0.1533
18898TIP3    H178185   1.598   5.561  11.105 -0.8005  1.6334  0.3406
18898TIP3    H278186   1.623   5.664  10.997 -0.5334  0.2536 -0.9425
18899TIP3   OH278187   3.934   3.143  16.286 -0.4600  0.0162  0.1747
18899TIP3    H178188   3.957   3.083  16.214 -1.1966 -0.3123  0.2104
18899TIP3    H278189   3.972   3.227  16.260 -1.4900  0.1138 -1.0278
18900TIP3   OH278190   3.938   6.211   2.859 -0.1303 -0.6055  0.2101
18900TIP3    H178191   4.022   6.201   2.903  0.6369  0.6612 -0.9059
18900TIP3    H278192   3.959   6.203   2.766 -1.8441 -4.1195  0.0541
18901TIP3   OH278193   4.840   1.589   4.843 -0.0675  0.5706 -0.5512
18901TIP3    H178194   4.917   1.633   4.808  0.1830  0.9817  0.5002
18901TIP3    H278195   4.802   1.544   4.768 -0.1422  2.3084 -1.5763
18902TIP3   OH278196   6.635   6.236   3.280 -0.6941 -0.1905  0.6374
18902TIP3    H178197   6.634   6.258   3.187 -3.9713 -0.0351  0.6468
18902TIP3    H278198   6.719   6.268   3.312  0.7126 -0.7391 -2.3704
18903TIP3   OH278199   5.644   6.816   1.789 -0.1713 -0.4047  0.8009
18903TIP3    H178200   5.593   6.767   1.853 -1.4197 -0.1130  0.0479
18903TIP3    H278201   5.582   6.838   1.720  1.0313 -0.2570 -0.2619
18904TIP3   OH278202   5.320   2.625  14.470 -0.3291 -0.3469  0.1608
18904TIP3    H178203   5.291   2.671  14.549  0.6034 -0.6593  0.6952
18904TIP3    H278204   5.268   2.546  14.467 -1.4906  0.4251 -0.4073
18905TIP3   OH278205   6.677   1.741   2.794  0.3927 -0.9542  0.2773
18905TIP3    H178206   6.736   1.811   2.821 -1.2037 -0.4548  2.6476
18905TIP3    H278207   6.683   1.739   2.698  1.4393  1.5454  0.2757
18906TIP3   OH278208   3.121   1.460  17.172 -0.2022 -0.1902 -0.4726
18906TIP3    H178209   3.034   1.421  17.160 -0.5834  0.4816  0.1044
18906TIP3    H278210   3.180   1.384  17.179 -0.9340 -0.6703  0.5959
18907TIP3   OH278211   1.162   3.196   1.226 -0.3320 -0.4913  0.2263
18907TIP3    H178212   1.091   3.177   1.287 -1.0198 -2.4991 -1.1847
18907TIP3    H278213   1.241   3.166   1.272 -0.6962 -0.7502  0.6873
18908TIP3   OH278214   4.318   2.394  14.607 -0.4639  0.3489 -0.3162
18908TIP3    H178215   4.343   2.302  14.608 -2.1986 -0.1278  0.5659
18908TIP3    H278216   4.330   2.421  14.516  1.9009 -0.2174 -0.1862
18909TIP3   OH278217   1.652   3.858   5.336  0.0044  0.4167  0.1962
18909TIP3    H178218   1.686   3.866   5.246  0.3810 -0.3480  0.2646
18909TIP3    H278219   1.626   3.767   5.343 -1.0619  0.7408  0.5122
18910TIP3   OH278220   4.173   4.173  15.053  0.4084  0.4193  0.2142
18910TIP3    H178221   4.129   4.088  15.048  1.3501  0.0051 -1.6171
18910TIP3    H278222   4.148   4.217  14.972 -0.7554  2.2552  1.5361
18911TIP3   OH278223   2.844   6.054   0.059  0.4854 -0.2548  0.1800
18911TIP3    H178224   2.895   6.134   0.065  3.2864 -1.8023 -1.8179
18911TIP3    H278225   2.859   6.023  -0.030 -1.3357 -2.5033  0.6095
18912TIP3   OH278226   5.185   2.316  10.778 -0.3246  0.1630  0.0039
18912TIP3    H178227   5.101   2.361  10.769 -0.4964  0.1552  1.4817
18912TIP3    H278228   5.249   2.376  10.741 -0.8841  0.5300 -0.3582
18913TIP3   OH278229   6.605   6.384  14.013 -0.2982 -0.4566 -0.3909
18913TIP3    H178230   6.522   6.424  13.986  0.5707  1.4129 -0.3726
18913TIP3    H278231   6.579   6.312  14.071 -1.8392  2.2699  2.4525
18914TIP3   OH278232   2.122   1.088   1.213 -0.1638  0.1722 -0.3629
18914TIP3    H178233   2.177   1.086   1.292  0.8720 -0.9187 -1.1069
18914TIP3    H278234   2.152   1.014   1.161 -1.6673  0.1682 -1.2458
18915TIP3   OH278235   1.545   2.628   6.144  0.4315 -0.0529  0.2008
18915TIP3    H178236   1.466   2.680   6.155  0.1909 -0.5221  0.6530
18915TIP3    H278237   1.557   2.623   6.049 -1.4679 -2.0717  0.0200
18916TIP3   OH278238   2.248   2.655  11.567 -0.7319 -0.1646 -0.2050
18916TIP3    H178239   2.160   2.618  11.563 -0.5533 -0.4480 -2.0487
18916TIP3    H278240   2.299   2.603  11.506  0.8640 -0.3300  1.2175
18917TIP3   OH278241   2.956   5.339   6.520 -0.1516  0.3983 -0.2474
18917TIP3    H178242   2.882   5.284   6.495 -0.3208  0.3963  0.2677
18917TIP3    H278243   2.938   5.424   6.480  0.0932  0.0948 -1.0153
18918TIP3   OH278244   4.068   2.887  11.666  0.2215 -0.1780 -0.6135
18918TIP3    H178245   4.014   2.824  11.618 -1.6440  0.8471  0.1037
18918TIP3    H278246   4.148   2.838  11.687 -0.6104 -1.8737 -1.2746
18919TIP3   OH278247   4.422   0.945  12.394  0.3078 -0.0816 -0.7718
18919TIP3    H178248   4.387   0.860  12.421  2.5935 -0.2434  1.9175
18919TIP3    H278249   4.384   1.008  12.455  1.9582  0.1935  0.0052
18920TIP3   OH278250   5.305   1.906   2.813  0.0595 -0.2424  0.2590
18920TIP3    H178251   5.358   1.973   2.858 -1.5128  0.4979  1.0339
18920TIP3    H278252   5.315   1.926   2.720  0.5921  0.3051  0.4275
18921TIP3   OH278253   0.455   3.464   3.969 -0.3770  0.1052 -0.1158
18921TIP3    H178254   0.401   3.477   4.047  0.0931 -1.4286  0.4758
18921TIP3    H278255   0.472   3.552   3.936 -2.6013  0.6609  0.1317
18922TIP3   OH278256   6.351   3.440   4.554 -0.0241  0.0770  0.4049
18922TIP3    H178257   6.348   3.448   4.458 -2.1365 -1.7908  0.2436
18922TIP3    H278258   6.429   3.388   4.571 -1.0998 -1.9743 -0.5880
18923TIP3   OH278259   4.050   5.334   1.063 -0.3124  0.5377 -0.1820
18923TIP3    H178260   3.974   5.363   1.114 -0.3226 -0.8451  0.6335
18923TIP3    H278261   4.012   5.297   0.983 -0.5785 -0.8215  0.5465
18924TIP3   OH278262   4.082   3.191  13.405 -0.3183  0.8468 -0.6900
18924TIP3    H178263   4.010   3.128  13.405 -0.3559  0.8917 -0.3829
18924TIP3    H278264   4.040   3.275  13.385 -0.7190  1.3006  1.8729
18925TIP3   OH278265   6.275   1.588  14.343 -0.1589 -0.1761 -0.4017
18925TIP3    H178266   6.300   1.641  14.418  1.2287  0.3833 -1.2261
18925TIP3    H278267   6.228   1.648  14.285 -2.1835 -0.8693  0.4867
18926TIP3   OH278268   2.608   1.550  15.309  0.1078 -0.6646  0.7050
18926TIP3    H178269   2.627   1.566  15.402 -0.3828  0.5199  0.6026
18926TIP3    H278270   2.693   1.525  15.272  0.9754  2.0262  0.8131
18927TIP3   OH278271   6.776   0.654  12.336  0.1482 -0.7965  0.3526
18927TIP3    H178272   6.789   0.744  12.308 -0.4449 -1.5065 -2.3582
18927TIP3    H278273   6.792   0.602  12.257  0.3328 -3.0544  1.8341
18928TIP3   OH278274   3.781   3.475  11.869 -1.1496  0.3702  0.7659
18928TIP3    H178275   3.854   3.413  11.873 -0.9487  0.6060  0.7824
18928TIP3    H278276   3.707   3.423  11.838 -1.0496  0.0623  1.0428
18929TIP3   OH278277   3.712   4.012   1.210  0.1922 -0.1687  0.1677
18929TIP3    H178278   3.633   4.028   1.158  0.5187 -0.9248 -0.5631
18929TIP3    H278279   3.689   4.042   1.298 -1.2750 -1.3076  0.1975
18930TIP3   OH278280   3.214   5.240  11.678  0.0792 -0.0750  0.7374
18930TIP3    H178281   3.201   5.311  11.740 -0.5741  1.2746 -0.9084
18930TIP3    H278282   3.266   5.279  11.608 -0.4913 -1.1553 -0.3036
18931TIP3   OH278283   3.462   1.851  17.231 -0.5245  0.1738 -0.3729
18931TIP3    H178284   3.543   1.802  17.219 -0.1476  0.8150 -0.4750
18931TIP3    H278285   3.401   1.788  17.270 -0.1227 -0.4383 -0.7208
18932TIP3   OH278286   1.370   1.815  12.470 -0.3699  0.2621 -0.1426
18932TIP3    H178287   1.398   1.882  12.406  1.6963 -0.6436 -0.2488
18932TIP3    H278288   1.439   1.748  12.465 -0.9971 -0.5665  1.9248
18933TIP3   OH278289   6.359   1.282  14.537 -0.5398  0.1526  0.5088
18933TIP3    H178290   6.442   1.241  14.560 -1.6507 -1.1513  2.3704
18933TIP3    H278291   6.363   1.293  14.442  0.9377 -1.7322  0.3201
18934TIP3   OH278292   5.395   3.191  12.045  0.3165 -0.1160 -0.1536
18934TIP3    H178293   5.326   3.133  12.078 -0.0872 -0.4602 -1.5489
18934TIP3    H278294   5.477   3.147  12.070  0.0135 -1.0839 -0.8276
18935TIP3   OH278295   2.493   1.762  11.076 -0.5004  0.6962  0.0494
18935TIP3    H178296   2.570   1.724  11.036  0.4405  2.1925  0.3867
18935TIP3    H278297   2.427   1.763  11.007  0.3691  1.1100 -0.7777
18936TIP3   OH278298   0.434   1.538  15.033 -0.4978  0.0474  0.3865
18936TIP3    H178299   0.370   1.608  15.018 -1.3487 -0.6358  0.8071
18936TIP3    H278300   0.383   1.457  15.027  0.1801 -0.4678  1.4692
18937TIP3   OH278301   3.299   6.059   2.825  0.3827 -0.4778 -0.5588
18937TIP3    H178302   3.359   5.988   2.804  0.0568 -0.9846  0.1831
18937TIP3    H278303   3.352   6.123   2.872 -0.0137 -1.7258  1.6658
18938TIP3   OH278304   3.961   0.456  14.383  0.1853 -0.2455 -0.1064
18938TIP3    H178305   4.009   0.374  14.400  1.5599  0.3060 -1.2119
18938TIP3    H278306   4.014   0.524  14.424  0.0530  0.3168 -0.8645
18939TIP3   OH278307   1.746   0.946   6.318 -0.0147 -0.0954  0.0594
18939TIP3    H178308   1.697   1.012   6.368  2.3511  2.3770 -0.7271
18939TIP3    H278309   1.807   0.909   6.382  1.1096  1.0847 -0.3052
18940TIP3   OH278310   2.085   1.705   2.186 -0.3617 -0.3017 -0.0988
18940TIP3    H178311   2.004   1.735   2.145  0.8212  0.2952 -2.0532
18940TIP3    H278312   2.103   1.621   2.146 -1.0646 -1.4177  1.8338
18941TIP3   OH278313   2.088   5.570   1.469 -0.4202  0.1886  0.2885
18941TIP3    H178314   2.119   5.502   1.409  0.3609  0.6035  0.2184
18941TIP3    H278315   1.993   5.571   1.457 -0.4070 -0.7153  0.1062
18942TIP3   OH278316   2.220   1.762  16.107 -0.1476  0.0163  0.4604
18942TIP3    H178317   2.244   1.796  16.021 -1.8692 -1.3468 -0.5923
18942TIP3    H278318   2.155   1.825  16.140  0.0242  0.1845  0.4793
18943TIP3   OH278319   1.427   3.290  16.935 -0.1147 -0.4705  0.4337
18943TIP3    H178320   1.396   3.276  16.846  0.1210  0.2904  0.2257
18943TIP3    H278321   1.371   3.235  16.990 -1.5960  0.6174  0.0384
18944TIP3   OH278322   5.035   3.960   3.723 -0.4418  0.9349 -0.3456
18944TIP3    H178323   5.038   3.958   3.627 -0.9600  1.2547 -0.3749
18944TIP3    H278324   5.106   3.903   3.751 -1.6658 -0.9441 -0.9300
18945TIP3   OH278325   0.550   2.165   6.238 -0.5448 -0.3468 -0.4221
18945TIP3    H178326   0.644   2.144   6.234 -0.3302  0.0878  1.9495
18945TIP3    H278327   0.507   2.081   6.218  0.3469 -1.3913  1.8674
18946TIP3   OH278328   0.040   4.031   2.720 -0.4897  0.1350  0.3381
18946TIP3    H178329   0.007   3.955   2.767 -0.9916  1.1056  1.6095
18946TIP3    H278330   0.081   4.085   2.788 -0.3524  1.1084 -0.5007
18947TIP3   OH278331   0.901   1.595   6.005  0.5997 -0.1411 -0.0454
18947TIP3    H178332   0.826   1.559   6.052  0.0586  0.0465 -0.7786
18947TIP3    H278333   0.947   1.648   6.071  1.0654 -1.6421  0.8858
18948TIP3   OH278334   2.051   5.953  11.998 -0.1039 -0.0483 -0.9522
18948TIP3    H178335   2.100   5.946  12.079 -0.8323  2.3072 -0.2749
18948TIP3    H278336   2.110   5.996  11.937 -0.8058  1.4882 -0.5646
18949TIP3   OH278337   6.297   3.424   2.450 -0.2066 -0.4904 -0.0636
18949TIP3    H178338   6.340   3.505   2.421  0.8874 -1.4671 -1.1813
18949TIP3    H278339   6.301   3.429   2.546 -0.2006  0.7906 -0.1098
18950TIP3   OH278340   5.581   6.213   5.758 -0.1454 -0.1326 -0.1980
18950TIP3    H178341   5.560   6.154   5.686 -2.5610  1.7891 -1.1389
18950TIP3    H278342   5.532   6.179   5.832  0.3573 -0.6526 -0.0949
18951TIP3   OH278343   6.260   3.731   4.240  0.5718  0.0972 -0.4088
18951TIP3    H178344   6.254   3.822   4.268 -0.0193 -0.2804  0.7399
18951TIP3    H278345   6.170   3.707   4.217  0.2386 -0.9941  1.9249
18952TIP3   OH278346   2.101   2.845   4.342 -0.0164  0.0964  0.0902
18952TIP3    H178347   2.121   2.780   4.275  1.2495 -0.3387  0.8682
18952TIP3    H278348   2.164   2.916   4.326 -1.2029  1.0367 -0.5805
18953TIP3   OH278349   1.448   1.805   0.252 -0.1324  0.2282 -0.4462
18953TIP3    H178350   1.397   1.772   0.327 -2.0582  1.9775 -0.9427
18953TIP3    H278351   1.492   1.727   0.218  0.1505 -0.7411  2.0163
18954TIP3   OH278352   1.608   1.066   5.065  1.0540 -0.5167 -0.4841
18954TIP3    H178353   1.536   1.054   5.003  0.9950 -0.8325 -0.3557
18954TIP3    H278354   1.650   1.147   5.037 -0.7723  0.9303  0.8297
18955TIP3   OH278355   1.097   2.035  12.659  0.0678  0.1857 -0.0439
18955TIP3    H178356   1.085   1.940  12.656 -1.8583  0.4400 -1.7018
18955TIP3    H278357   1.041   2.064  12.730  0.2809  0.1435  0.1425
18956TIP3   OH278358   6.563   5.484  12.435 -0.1417  0.2976 -0.3660
18956TIP3    H178359   6.537   5.400  12.396 -2.0863  0.8922 -0.4454
18956TIP3    H278360   6.638   5.513  12.383 -0.1666 -0.8609 -1.0633
18957TIP3   OH278361   6.628   4.916   4.621  0.3264  0.3323 -0.3069
18957TIP3    H178362   6.546   4.946   4.662  0.7832 -1.6457  2.0890
18957TIP3    H278363   6.599   4.857   4.551 -0.2627 -1.4782  1.4518
18958TIP3   OH278364   3.385   4.897  12.140 -0.3678  0.1026  0.2228
18958TIP3    H178365   3.361   4.805  12.147 -2.7647  0.8454  2.6108
18958TIP3    H278366   3.357   4.922  12.051 -0.6526 -1.2162 -0.0675
18959TIP3   OH278367   3.468   5.930   5.377  0.8181 -0.3426  0.6629
18959TIP3    H178368   3.404   5.878   5.327  0.4126  1.1777 -0.4122
18959TIP3    H278369   3.465   5.892   5.465 -1.8722 -0.0683  0.7456
18960TIP3   OH278370   4.686   6.178  12.747 -0.1554  0.3376 -0.3232
18960TIP3    H178371   4.649   6.225  12.822  1.3584  1.6192 -0.3594
18960TIP3    H278372   4.740   6.109  12.785  0.5387  0.9301 -0.2313
18961TIP3   OH278373   2.522   2.417   5.975 -0.2719  0.2325  0.4791
18961TIP3    H178374   2.499   2.502   5.936  1.1527 -0.3482 -1.7495
18961TIP3    H278375   2.445   2.392   6.026 -1.8177  1.5213 -1.1619
18962TIP3   OH278376   5.770   0.330  15.590 -0.1555 -0.3112 -0.8502
18962TIP3    H178377   5.760   0.251  15.537 -2.5931 -0.8095  0.2819
18962TIP3    H278378   5.711   0.394  15.549  0.4197  0.3311 -0.6764
18963TIP3   OH278379   6.619   3.048  14.722  0.3691  0.2341 -0.0786
18963TIP3    H178380   6.540   3.000  14.695 -0.5468  1.7590 -0.1927
18963TIP3    H278381   6.587   3.111  14.787  1.5250  0.7751 -0.0272
18964TIP3   OH278382   3.382   0.168  16.683 -0.0772  0.4896 -0.3744
18964TIP3    H178383   3.392   0.073  16.682  2.1102  0.6646  0.8772
18964TIP3    H278384   3.331   0.186  16.761 -1.2042  0.2876 -1.0611
18965TIP3   OH278385   2.812   0.178  15.288 -0.7486 -0.0092  0.4912
18965TIP3    H178386   2.868   0.245  15.327 -1.4715  0.6952  0.3420
18965TIP3    H278387   2.731   0.183  15.339 -1.2831  0.1362 -0.3595
18966TIP3   OH278388   3.790   1.011  13.844 -0.8285 -0.4140 -0.3676
18966TIP3    H178389   3.817   1.097  13.813  0.0692 -0.3828  0.4985
18966TIP3    H278390   3.789   1.018  13.939 -1.0597 -1.2683 -0.3013
18967TIP3   OH278391   6.782   3.800   2.873 -0.5558 -0.3429 -0.0879
18967TIP3    H178392   6.841   3.801   2.948  0.9808  3.0890 -1.2194
18967TIP3    H278393   6.814   3.728   2.818  2.3649  1.1402 -0.4288
18968TIP3   OH278394   6.016   0.376   4.736  0.0323  0.3695 -0.1593
18968TIP3    H178395   5.968   0.394   4.816  0.5437  2.2609 -0.2532
18968TIP3    H278396   6.106   0.360   4.765 -0.0451 -0.2681 -0.2519
18969TIP3   OH278397   5.067   1.489   2.837 -0.0331  0.0348  0.4745
18969TIP3    H178398   5.051   1.482   2.931 -2.0315  1.7651  0.3217
18969TIP3    H278399   5.106   1.406   2.812 -0.9243 -1.0440  2.5860
18970TIP3   OH278400   5.510   3.532   1.586  0.5089 -0.3103  0.1526
18970TIP3    H178401   5.498   3.457   1.528 -0.1558 -0.6896  0.7778
18970TIP3    H278402   5.480   3.607   1.534  0.1240 -0.6170 -0.0716
18971TIP3   OH278403   4.717   0.783  11.859 -0.1195 -0.3302 -0.5800
18971TIP3    H178404   4.770   0.710  11.890  1.3683  0.8975 -0.1714
18971TIP3    H278405   4.629   0.764  11.891  0.9374 -0.2027  2.6191
18972TIP3   OH278406   1.078   4.683   2.764 -0.5218  0.5017 -0.3917
18972TIP3    H178407   1.159   4.733   2.751 -0.3508  0.1370 -0.7802
18972TIP3    H278408   1.034   4.726   2.837 -0.0859  0.8446 -0.3275
18973TIP3   OH278409   1.918   3.472   1.219  0.8338 -0.2649 -0.1177
18973TIP3    H178410   1.858   3.410   1.260 -1.4893  1.2844 -1.0401
18973TIP3    H278411   1.981   3.417   1.172  0.4077 -1.9393  1.2303
18974TIP3   OH278412   4.081   6.371  13.471 -0.0831 -0.0593  0.0931
18974TIP3    H178413   4.152   6.435  13.467  0.4010 -0.6385 -0.7064
18974TIP3    H278414   4.006   6.417  13.434 -0.2737  0.7350  1.4336
18975TIP3   OH278415   4.443   3.795   5.395 -0.3431 -0.2959 -0.0333
18975TIP3    H178416   4.494   3.727   5.439 -1.1699 -1.1525 -0.3838
18975TIP3    H278417   4.498   3.873   5.400 -1.2681  0.2258  4.4512
18976TIP3   OH278418   2.124   0.547   2.359  0.5550  0.1932 -0.4545
18976TIP3    H178419   2.082   0.594   2.431 -0.4389  1.3757 -1.7784
18976TIP3    H278420   2.070   0.470   2.346 -0.3667  0.9632 -1.1944
18977TIP3   OH278421   0.643   0.805  12.902  0.0468 -0.3412 -0.1747
18977TIP3    H178422   0.691   0.751  12.965 -0.5501 -1.8819 -1.0153
18977TIP3    H278423   0.575   0.848  12.955 -0.3345 -1.4794  0.2743
18978TIP3   OH278424   2.899   1.856   4.480 -0.2399 -0.5286 -0.3294
18978TIP3    H178425   2.982   1.813   4.463  0.4660 -0.2498  2.2109
18978TIP3    H278426   2.920   1.949   4.488 -0.7768 -0.4668  0.4435
18979TIP3   OH278427   4.957   2.575   5.875  0.1666  0.7949 -0.3958
18979TIP3    H178428   5.004   2.517   5.935  0.9767  2.0962  0.2603
18979TIP3    H278429   4.975   2.540   5.788  0.5504  0.0033 -0.0027
18980TIP3   OH278430   3.546   2.624  13.558  0.0990  0.5766 -1.1845
18980TIP3    H178431   3.499   2.664  13.485  1.7631 -1.3238 -3.3761
18980TIP3    H278432   3.480   2.614  13.627 -1.6427  1.8716 -2.6249
18981TIP3   OH278433   6.089   4.298   4.377 -0.1582  0.3181 -0.2812
18981TIP3    H178434   6.149   4.324   4.308 -2.3002  1.8012 -1.6162
18981TIP3    H278435   6.058   4.211   4.351  0.3923  0.0995 -0.2296
18982TIP3   OH278436   5.660   2.198   1.342  0.4984 -0.3360  0.6152
18982TIP3    H178437   5.595   2.183   1.411  0.3878 -1.6415  0.2487
18982TIP3    H278438   5.722   2.259   1.381 -0.8995  0.8821  0.9968
18983TIP3   OH278439   5.503   1.059   5.750  0.1363  0.1212 -0.4480
18983TIP3    H178440   5.465   1.023   5.670 -1.2470  1.0110 -0.1993
18983TIP3    H278441   5.440   1.124   5.780  1.9486  1.7856 -0.1350
18984TIP3   OH278442   5.830   1.988  10.750  0.0102 -0.1224  0.8696
18984TIP3    H178443   5.815   1.933  10.673  1.7904 -0.2576  0.6096
18984TIP3    H278444   5.775   2.065  10.735 -1.3690 -1.1521  0.5425
18985TIP3   OH278445   6.448   4.754  14.389 -0.4630 -0.6389  0.2620
18985TIP3    H178446   6.394   4.738  14.312  0.2646 -1.3528 -0.0986
18985TIP3    H278447   6.501   4.831  14.367  0.0303 -1.0848 -0.0908
18986TIP3   OH278448   6.120   5.047   0.719 -0.1208 -0.3448  0.3559
18986TIP3    H178449   6.186   5.115   0.732  1.3010 -1.6913  0.4073
18986TIP3    H278450   6.150   4.999   0.641  0.6308 -2.8212  2.0973
18987TIP3   OH278451   4.602   3.606   1.972 -0.3617 -0.5279  0.2899
18987TIP3    H178452   4.550   3.539   1.927 -1.2962  0.1887  0.3001
18987TIP3    H278453   4.635   3.562   2.051 -2.8344 -0.3581  1.4768
18988TIP3   OH278454   2.176   2.509   4.810 -0.0144  0.1111  0.0214
18988TIP3    H178455   2.251   2.551   4.852  1.3431 -2.2527  0.0692
18988TIP3    H278456   2.211   2.428   4.774 -2.4237 -0.7092 -0.5948
18989TIP3   OH278457   4.083   5.028  14.078 -0.1831  0.7539  0.6341
18989TIP3    H178458   4.035   5.011  13.998  0.4596 -1.9867  0.7706
18989TIP3    H278459   4.175   5.026  14.052  0.0197  0.1112  1.3803
18990TIP3   OH278460   0.129   5.339  13.698 -0.1062  0.8063 -0.2172
18990TIP3    H178461   0.120   5.418  13.645 -1.3660 -0.9084 -2.6474
18990TIP3    H278462   0.060   5.346  13.764 -1.1686  1.0392 -1.3396
18991TIP3   OH278463   2.553   0.593  15.904 -0.5273 -0.0272 -0.8557
18991TIP3    H178464   2.565   0.575  15.810 -2.5465 -1.0963 -0.9226
18991TIP3    H278465   2.461   0.615  15.913 -0.5071 -0.6208  1.0112
18992TIP3   OH278466   5.597   0.921  14.686 -0.2693 -0.9573 -0.0904
18992TIP3    H178467   5.653   0.860  14.734 -1.0237  0.4065  2.6505
18992TIP3    H278468   5.649   0.947  14.610  0.9710 -3.2101 -0.0543
18993TIP3   OH278469   5.783   3.881   4.451 -0.0737 -0.9276 -0.4677
18993TIP3    H178470   5.833   3.846   4.524  1.1695  0.8413 -0.4309
18993TIP3    H278471   5.692   3.878   4.480  0.3836 -0.4456  1.0664
18994TIP3   OH278472   5.490   0.025  13.670 -0.3482  0.3930 -0.5601
18994TIP3    H178473   5.537   0.053  13.591 -0.3809  2.0367 -0.0161
18994TIP3    H278474   5.549   0.048  13.742 -1.0590  0.4936 -0.0113
18995TIP3   OH278475   3.166   5.832  14.586 -0.4656 -0.0809 -0.0158
18995TIP3    H178476   3.200   5.747  14.614 -0.5749  0.4996  1.9761
18995TIP3    H278477   3.217   5.854  14.508 -0.9415 -2.2945 -0.9922
18996TIP3   OH278478   5.543   1.629  12.454  0.1052 -0.3915 -0.5148
18996TIP3    H178479   5.608   1.666  12.514 -0.6924 -1.4457  1.0198
18996TIP3    H278480   5.462   1.676  12.473 -0.1033 -0.5812 -0.9241
18997TIP3   OH278481   1.307   4.472   3.627 -0.5598  0.2192  0.3188
18997TIP3    H178482   1.258   4.452   3.547 -1.0149  2.4852 -0.0006
18997TIP3    H278483   1.280   4.405   3.689 -0.2909 -1.5090 -1.3865
18998TIP3   OH278484   4.518   2.584  13.680  0.2643  0.2196  0.1425
18998TIP3    H178485   4.553   2.563  13.766 -0.6117 -0.4419  0.3542
18998TIP3    H278486   4.519   2.679  13.675  0.7681  0.2428  0.6900
18999TIP3   OH278487   5.300   5.371  14.998 -0.0265 -0.0789  0.2856
18999TIP3    H178488   5.260   5.402  14.917  0.2337  0.0712  0.2104
18999TIP3    H278489   5.383   5.331  14.970  0.5275  0.8408  0.5742
19000TIP3   OH278490   2.103   6.185  14.511  0.1839  0.1282  0.0372
19000TIP3    H178491   2.032   6.206  14.573 -2.1015  0.3401 -2.5461
19000TIP3    H278492   2.146   6.269  14.495 -1.1549  0.6587 -0.9229
19001TIP3   OH278493   0.365   3.550  12.867 -0.7310  0.3375 -0.1649
19001TIP3    H178494   0.443   3.605  12.861 -1.4513  1.3872  0.0998
19001TIP3    H278495   0.395   3.472  12.914  0.7939 -0.4305 -2.3284
19002TIP3   OH278496   1.229   0.324  16.018 -0.6687 -0.6213  0.3842
19002TIP3    H178497   1.145   0.307  16.060 -0.9013 -0.7573 -0.1254
19002TIP3    H278498   1.258   0.238  15.988 -1.5598 -0.2438 -1.6745
19003TIP3   OH278499   6.502   0.709  16.048 -0.0846  0.0381  0.0208
19003TIP3    H178500   6.492   0.660  16.130 -1.6179  0.9533  0.4062
19003TIP3    H278501   6.564   0.658  15.996 -1.5674 -2.2718  0.4548
19004TIP3   OH278502   4.484   2.777  12.742 -0.0214  0.0739  0.1133
19004TIP3    H178503   4.554   2.842  12.751 -0.6481  0.7490  0.1651
19004TIP3    H278504   4.409   2.816  12.787 -1.5635  1.0377 -3.1851
19005TIP3   OH278505   6.436   0.839  15.565 -0.1135  0.5232 -0.2382
19005TIP3    H178506   6.466   0.930  15.563 -2.3715  1.3036 -0.2010
19005TIP3    H278507   6.491   0.797  15.632  0.7398  1.9289 -0.0431
19006TIP3   OH278508   3.434   6.237   4.355 -0.1920 -0.2422 -0.1948
19006TIP3    H178509   3.432   6.332   4.338 -0.9146 -0.2067  0.0717
19006TIP3    H278510   3.369   6.201   4.295 -1.1194 -0.3799  0.8925
19007TIP3   OH278511   2.829   2.572  15.871  0.3111 -0.1828 -1.0120
19007TIP3    H178512   2.886   2.618  15.809 -0.0695 -0.9735 -1.9708
19007TIP3    H278513   2.834   2.480  15.845 -1.0288 -0.3315 -0.8255
19008TIP3   OH278514   2.845   1.261  16.656 -0.3069 -0.4826  0.0189
19008TIP3    H178515   2.777   1.195  16.668 -1.4723  1.0380  2.2157
19008TIP3    H278516   2.911   1.241  16.722 -0.1584 -0.0671 -0.0004
19009TIP3   OH278517   4.599   5.063   4.049 -0.1202  0.6042 -0.0424
19009TIP3    H178518   4.561   5.073   3.962  0.2136 -0.0568 -0.2673
19009TIP3    H278519   4.542   5.115   4.106 -1.2401 -0.1978 -0.4107
19010TIP3   OH278520   5.739   2.388   6.409  0.1410 -0.2292  0.0756
19010TIP3    H178521   5.676   2.459   6.425  0.5228  0.7424 -2.3995
19010TIP3    H278522   5.695   2.332   6.344  1.5160  0.0972 -1.1769
19011TIP3   OH278523   1.607   3.442   3.240 -0.4039  0.2523 -0.7740
19011TIP3    H178524   1.539   3.486   3.189  1.4288  1.7693 -1.9759
19011TIP3    H278525   1.642   3.375   3.180 -1.6665 -1.4050  0.2832
19012TIP3   OH278526   6.785   2.763  12.202  0.2454 -0.6318  0.0635
19012TIP3    H178527   6.873   2.795  12.220 -0.1263  1.1685 -1.2282
19012TIP3    H278528   6.791   2.722  12.116  0.0162 -1.3287  0.3732
19013TIP3   OH278529   2.568   3.918  12.004 -0.6559  0.0198 -0.0024
19013TIP3    H178530   2.631   3.915  11.932 -1.3799  1.7537 -0.7595
19013TIP3    H278531   2.621   3.932  12.082 -0.0461  0.7969 -0.5527
19014TIP3   OH278532   1.613   2.990  11.246 -0.2804 -0.0924  0.2474
19014TIP3    H178533   1.592   3.082  11.259  1.5668  0.4359 -0.2772
19014TIP3    H278534   1.543   2.957  11.189 -0.6801  1.1069  0.0323
19015TIP3   OH278535   6.102   3.616   5.061 -0.2132  0.1515  0.2836
19015TIP3    H178536   6.173   3.601   5.123  0.0191 -1.0644 -0.2678
19015TIP3    H278537   6.061   3.530   5.050 -0.8957  0.5663 -0.4494
19016TIP3   OH278538   1.146   0.776  16.255 -0.4572  0.0235  0.3914
19016TIP3    H178539   1.221   0.773  16.314  0.3730  1.9495 -0.5309
19016TIP3    H278540   1.070   0.757  16.311  0.2025  2.8063  2.2900
19017TIP3   OH278541   4.356   1.104   2.995 -0.0018  0.2299  0.0016
19017TIP3    H178542   4.410   1.146   2.928 -1.0598  2.2395  0.3568
19017TIP3    H278543   4.266   1.129   2.973 -0.4805 -0.2181  1.3904
19018TIP3   OH278544   2.081   1.684  11.667 -0.0298 -0.1974 -0.3215
19018TIP3    H178545   2.121   1.647  11.746  0.3064  1.4768  0.3334
19018TIP3    H278546   2.112   1.775  11.666 -1.5069  0.3147 -1.3772
19019TIP3   OH278547   0.006   4.645  11.689 -0.5789 -0.5043  0.2304
19019TIP3    H178548   0.025   4.735  11.660  0.5054 -1.2604 -1.4455
19019TIP3    H278549  -0.089   4.645  11.702 -0.7639  0.5534 -0.9530
19020TIP3   OH278550   6.797   3.713  11.331  0.2645 -0.6823  0.3457
19020TIP3    H178551   6.818   3.798  11.369  0.3196 -0.2437 -0.6588
19020TIP3    H278552   6.733   3.733  11.263  2.0010 -1.1560 -1.4660
19021TIP3   OH278553   1.759   2.482  12.237  0.0622 -0.1152  0.1569
19021TIP3    H178554   1.706   2.557  12.211 -0.8882 -0.8755 -0.1379
19021TIP3    H278555   1.843   2.495  12.192  0.1803  1.1446  0.7100
19022TIP3   OH278556   4.384   0.283  14.561  0.1008  0.6269 -0.2177
19022TIP3    H178557   4.377   0.329  14.644 -0.1166 -0.7366  0.5202
19022TIP3    H278558   4.477   0.288  14.538 -0.0022  1.8490 -0.3920
19023TIP3   OH278559   5.975   1.683  11.492  0.0011 -0.2228  0.3685
19023TIP3    H178560   5.997   1.607  11.545  0.7315 -0.6272 -0.5130
19023TIP3    H278561   5.890   1.661  11.454  0.8643 -1.2145 -1.0219
19024TIP3   OH278562   0.962   2.940  10.870  0.6372 -0.6101 -0.1109
19024TIP3    H178563   0.872   2.910  10.854  0.4922  1.2428 -3.2338
19024TIP3    H278564   1.005   2.865  10.912 -2.2178 -1.6855  1.0466
19025TIP3   OH278565   0.370   5.731   4.240  0.0291 -0.5328 -0.4612
19025TIP3    H178566   0.429   5.738   4.164  1.9767  2.7263  1.2216
19025TIP3    H278567   0.282   5.734   4.202  0.9565  2.0858 -2.5971
19026TIP3   OH278568   0.699   0.323   2.339 -0.0732  0.0464  0.9780
19026TIP3    H178569   0.747   0.270   2.276  1.1289 -0.3118  2.1792
19026TIP3    H278570   0.621   0.273   2.359  0.7677 -1.0166  1.6565
19027TIP3   OH278571   0.928   3.131  13.169  0.1466 -0.5291  0.2058
19027TIP3    H178572   0.940   3.063  13.103 -0.2490 -1.1122  0.7364
19027TIP3    H278573   0.875   3.090  13.237 -0.6199  0.4912  0.2419
19028TIP3   OH278574   1.393   0.772   1.419  0.4728 -0.1187 -0.1434
19028TIP3    H178575   1.326   0.703   1.424 -0.3398  0.7803  2.2912
19028TIP3    H278576   1.377   0.825   1.496  2.4362  1.5956 -0.8896
19029TIP3   OH278577   1.198   6.702   4.531  0.1395 -0.4114 -0.5746
19029TIP3    H178578   1.169   6.657   4.452 -3.0094 -2.5823  1.6874
19029TIP3    H278579   1.124   6.758   4.556  0.4333 -0.9669  1.6720
19030TIP3   OH278580   0.345   4.513   5.206  0.3423  0.3756 -0.7884
19030TIP3    H178581   0.375   4.573   5.274  1.1684  1.1020 -1.7846
19030TIP3    H278582   0.250   4.528   5.201  0.3982  0.8978 -0.3610
19031TIP3   OH278583   6.548   6.417  11.441  0.6074 -0.5273 -0.4828
19031TIP3    H178584   6.463   6.424  11.485  1.1336 -0.4723  0.5222
19031TIP3    H278585   6.570   6.507  11.418  0.8056 -0.4488  0.0255
19032TIP3   OH278586   1.279   6.317   4.542  0.0861  0.1953 -0.2521
19032TIP3    H178587   1.218   6.372   4.493  0.4162  2.1904  1.4891
19032TIP3    H278588   1.256   6.331   4.634 -1.7715 -4.8965  0.2353
19033TIP3   OH278589   5.310   5.539   3.358  0.0605 -0.2122 -0.5424
19033TIP3    H178590   5.402   5.513   3.354 -0.2354 -1.7251  1.4126
19033TIP3    H278591   5.279   5.532   3.268  1.6947 -0.3510 -1.1061
19034TIP3   OH278592   3.074   1.704  16.746  0.4241  0.5079 -0.3214
19034TIP3    H178593   3.042   1.668  16.664 -0.0848 -0.1314  0.1585
19034TIP3    H278594   3.021   1.662  16.814  2.3473 -0.6794  0.4857
19035TIP3   OH278595   4.972   0.873  16.464  0.1639 -1.0629  0.3875
19035TIP3    H178596   5.002   0.787  16.493  0.5573 -0.9867  0.2204
19035TIP3    H278597   4.969   0.867  16.368  3.2284  0.0457  0.1519
19036TIP3   OH278598   1.567   6.670  14.282 -0.3113 -0.7239  0.1942
19036TIP3    H178599   1.508   6.635  14.215  1.9239 -3.0625 -0.6577
19036TIP3    H278600   1.647   6.692  14.234  0.7589 -0.9544  1.8436
19037TIP3   OH278601   2.979   2.399   0.189 -0.2593  0.1748 -0.2206
19037TIP3    H178602   2.975   2.336   0.261  0.8866 -0.4000 -0.6505
19037TIP3    H278603   2.959   2.483   0.230  1.7113  0.0538  1.0334
19038TIP3   OH278604   6.648   3.802  15.494  0.0840 -0.5551 -0.0654
19038TIP3    H178605   6.733   3.829  15.460 -0.4161  1.8504  0.5000
19038TIP3    H278606   6.664   3.719  15.538  1.4064 -2.0174 -3.1715
19039TIP3   OH278607   5.375   2.296  15.428  0.3860  0.0569  0.0482
19039TIP3    H178608   5.363   2.209  15.391 -1.0998  0.2765 -0.0100
19039TIP3    H278609   5.322   2.354  15.373 -1.7120  0.4143  2.3442
19040TIP3   OH278610   2.778   5.735  15.520  0.2636 -0.4756 -0.7671
19040TIP3    H178611   2.816   5.697  15.441 -0.1797  1.8209 -2.1154
19040TIP3    H278612   2.847   5.791  15.556  0.2384 -1.0049  0.1306
19041TIP3   OH278613   6.228   2.964   6.078 -0.0606 -0.5370  0.0880
19041TIP3    H178614   6.224   2.873   6.050  1.7231 -0.9279  1.0073
19041TIP3    H278615   6.301   3.002   6.028 -1.9702  0.8980 -1.6603
19042TIP3   OH278616   2.950   3.773  16.954 -0.7550 -0.3760  0.3706
19042TIP3    H178617   2.971   3.688  16.917 -1.1077 -0.4567  0.3587
19042TIP3    H278618   3.026   3.796  17.008 -0.9588 -1.0068  0.9258
19043TIP3   OH278619   6.721   0.154  11.895  0.4512  0.0081 -0.0092
19043TIP3    H178620   6.735   0.217  11.965  2.1345 -1.5350  1.1085
19043TIP3    H278621   6.645   0.103  11.923 -0.3447  0.9150 -0.4742
19044TIP3   OH278622   2.951   6.667   2.489  0.0653  0.6383 -0.0349
19044TIP3    H178623   2.912   6.722   2.421 -0.8696 -0.4690 -0.3976
19044TIP3    H278624   2.964   6.727   2.563 -0.7915  1.3844 -0.4836
19045TIP3   OH278625   2.217   5.989   3.486 -0.2787 -0.0295  0.2699
19045TIP3    H178626   2.261   6.035   3.557  0.8776 -0.3652 -0.2248
19045TIP3    H278627   2.140   6.043   3.467 -0.3008  0.3394  1.4086
19046TIP3   OH278628   0.943   2.692   3.873 -0.3277 -0.6544 -0.3196
19046TIP3    H178629   0.973   2.617   3.924  0.3853 -0.3918 -0.3504
19046TIP3    H278630   0.859   2.663   3.836 -0.7397 -0.9228  0.8109
19047TIP3   OH278631   4.224   1.069  12.568  0.0705  0.1178  0.4055
19047TIP3    H178632   4.206   1.070  12.662 -1.6993 -1.3787  0.1023
19047TIP3    H278633   4.155   1.124  12.530  0.2705  0.0209 -0.0993
19048TIP3   OH278634   5.012   5.268  12.137 -0.0179 -0.5118 -0.1908
19048TIP3    H178635   5.100   5.300  12.155  0.2315 -0.2368 -1.8111
19048TIP3    H278636   5.015   5.175  12.158  0.7645 -0.5734 -0.5607
19049TIP3   OH278637   2.335   3.375   3.511 -0.2816 -0.1686 -0.8292
19049TIP3    H178638   2.413   3.411   3.468 -0.6240 -1.2031 -2.3632
19049TIP3    H278639   2.355   3.282   3.521 -0.1929  0.0465  1.3600
19050TIP3   OH278640   6.000   4.052   4.106  0.6515 -0.3864 -0.2007
19050TIP3    H178641   6.031   4.121   4.048 -1.4381 -1.7708 -3.0847
19050TIP3    H278642   5.910   4.036   4.079  0.5545 -3.1043  1.5188
19051TIP3   OH278643   0.476   5.145  15.173 -0.1684  0.3661 -0.4690
19051TIP3    H178644   0.532   5.095  15.233 -0.4336  1.1969  0.4899
19051TIP3    H278645   0.538   5.190  15.115  0.1725  1.2017  0.5263
19052TIP3   OH278646   6.758   2.209   1.221  0.4301  0.2078 -0.2029
19052TIP3    H178647   6.715   2.232   1.139  2.5018 -0.8748 -1.6496
19052TIP3    H278648   6.849   2.236   1.208  0.7664  0.0620  1.7706
19053TIP3   OH278649   2.316   4.661  15.377 -0.5519  0.2148 -0.6908
19053TIP3    H178650   2.388   4.702  15.328  0.0296  0.8428  0.6648
19053TIP3    H278651   2.353   4.644  15.464 -2.0804  0.6845  0.0644
19054TIP3   OH278652   4.061   2.755  12.487 -0.0150  0.0655 -0.1059
19054TIP3    H178653   4.148   2.717  12.470  0.8601  1.2668  1.5460
19054TIP3    H278654   4.077   2.821  12.554 -2.0906  0.9052 -0.4209
19055TIP3   OH278655   4.545   3.311  16.889  0.1018  0.0326  0.0479
19055TIP3    H178656   4.618   3.267  16.933 -0.3830  0.5169  1.3458
19055TIP3    H278657   4.540   3.397  16.932 -0.4427  0.4721 -0.8842
19056TIP3   OH278658   5.261   0.239   4.571 -0.5061  0.2382  0.1861
19056TIP3    H178659   5.247   0.148   4.596 -2.9644  0.4148 -0.3594
19056TIP3    H278660   5.354   0.246   4.553  0.0337 -1.7123  2.0543
19057TIP3   OH278661   5.257   1.459   3.406 -0.3457 -0.0292  0.3651
19057TIP3    H178662   5.223   1.480   3.319  0.3833  0.7722  0.2559
19057TIP3    H278663   5.320   1.388   3.391 -2.5922 -2.1432  0.6923
19058TIP3   OH278664   6.623   3.783   2.167  0.2312 -0.2890  0.1520
19058TIP3    H178665   6.581   3.838   2.102  1.2063 -0.4099 -0.5890
19058TIP3    H278666   6.705   3.755   2.126  0.8929 -0.2996  1.4602
19059TIP3   OH278667   3.926   0.631   3.003 -0.1628 -0.1867  0.0506
19059TIP3    H178668   3.934   0.579   2.923  1.0677  0.2105 -0.0918
19059TIP3    H278669   3.973   0.580   3.069  1.8463  1.1817 -0.3034
19060TIP3   OH278670   3.225   5.114  13.990  0.4137 -0.6341 -0.2330
19060TIP3    H178671   3.175   5.035  13.971 -1.0640  0.1719  0.2008
19060TIP3    H278672   3.307   5.082  14.029 -0.4522 -1.9287  0.5688
19061TIP3   OH278673   4.433   2.640   1.901  0.0569  0.3717 -0.1163
19061TIP3    H178674   4.444   2.617   1.809 -2.1181  1.4729 -0.6932
19061TIP3    H278675   4.396   2.729   1.899 -1.4690 -0.1810  1.7477
19062TIP3   OH278676   0.100   0.380   1.362 -0.1731 -0.3510 -0.6495
19062TIP3    H178677   0.190   0.349   1.358 -0.3011 -0.8280 -0.0079
19062TIP3    H278678   0.057   0.320   1.422 -0.9363 -0.1631 -0.9982
19063TIP3   OH278679   1.348   2.969  15.353  0.6985 -0.3604  0.4116
19063TIP3    H178680   1.255   2.946  15.348  0.4735  0.8730 -1.3572
19063TIP3    H278681   1.394   2.885  15.346 -0.2685 -1.1008  2.3931
19064TIP3   OH278682   1.717   5.436  12.986  0.2102 -0.3955  0.5482
19064TIP3    H178683   1.738   5.509  13.044 -0.5778 -0.5422  1.0283
19064TIP3    H278684   1.623   5.445  12.970  0.7452  0.7447 -2.2313
19065TIP3   OH278685   5.297   2.048   1.960  0.0456  0.1269  0.5357
19065TIP3    H178686   5.323   1.977   1.901  0.1507 -0.9826  1.8856
19065TIP3    H278687   5.275   2.120   1.902 -0.1869 -1.0492 -0.8822
19066TIP3   OH278688   4.199   1.383   6.431 -0.3829 -0.6233 -0.2007
19066TIP3    H178689   4.224   1.474   6.446 -1.0590 -0.8159  2.4381
19066TIP3    H278690   4.141   1.386   6.355  0.9841  0.9009 -1.2185
19067TIP3   OH278691   3.296   1.859   5.491  0.5738  0.3274 -0.2709
19067TIP3    H178692   3.241   1.825   5.562 -0.9797  0.4377 -1.3859
19067TIP3    H278693   3.336   1.782   5.452  1.2634  0.2484  0.5866
19068TIP3   OH278694   0.866   4.964   4.757 -0.3630 -0.4701  0.4788
19068TIP3    H178695   0.869   5.056   4.782 -0.0419 -0.3344 -0.0420
19068TIP3    H278696   0.812   4.922   4.824 -1.6822  0.3518 -0.0422
19069TIP3   OH278697   5.681   3.231   2.129 -0.0949  0.5603 -0.0228
19069TIP3    H178698   5.748   3.163   2.139 -0.1433  0.4718 -0.2812
19069TIP3    H278699   5.668   3.266   2.217  0.2313  0.5192  0.0408
19070TIP3   OH278700   2.189   1.800  15.446 -0.2621  0.0207 -0.1253
19070TIP3    H178701   2.156   1.884  15.478 -0.2415  0.0712 -0.2359
19070TIP3    H278702   2.269   1.785  15.496 -1.4412 -1.0105  1.4737
19071TIP3   OH278703   1.926   4.081  14.914  0.2974  0.0775 -0.5359
19071TIP3    H178704   1.896   4.126  14.993  0.8523  0.1324 -0.3491
19071TIP3    H278705   1.985   4.143  14.872  1.4733 -0.6519 -0.0053
19072TIP3   OH278706   4.588   2.392  11.092 -0.2640 -0.2287  0.3067
19072TIP3    H178707   4.616   2.353  11.009  1.6713  1.8218 -0.0541
19072TIP3    H278708   4.507   2.346  11.114  0.0860 -1.9762 -1.8499
19073TIP3   OH278709   4.451   4.911  11.994 -0.2103 -0.2357  0.2899
19073TIP3    H178710   4.389   4.960  11.940 -0.7305 -1.7302 -0.4964
19073TIP3    H278711   4.505   4.863  11.932  1.1119  0.3029  1.0075
19074TIP3   OH278712   6.402   6.783   1.909 -0.4787 -0.1656  0.3243
19074TIP3    H178713   6.311   6.803   1.886 -0.5437 -2.0324 -1.1233
19074TIP3    H278714   6.452   6.853   1.868 -1.2313  0.9040  1.1668
19075TIP3   OH278715   2.382   2.636   4.980  0.7536  0.3449  0.3013
19075TIP3    H178716   2.435   2.670   5.052 -1.6860  1.8753  1.4715
19075TIP3    H278717   2.319   2.706   4.963  1.0255 -0.1558 -3.0865
19076TIP3   OH278718   4.893   1.294   6.150  0.5400  0.4053 -0.5309
19076TIP3    H178719   4.866   1.214   6.106  1.5949  0.0000 -0.4450
19076TIP3    H278720   4.895   1.271   6.243 -0.2286  0.8460 -0.3950
19077TIP3   OH278721   0.038   5.364   2.115  0.3607  0.1504 -0.0665
19077TIP3    H178722  -0.007   5.292   2.071  0.0065 -1.2151  2.4350
19077TIP3    H278723   0.109   5.321   2.162  1.8080  1.8028 -0.7083
19078TIP3   OH278724   4.542   5.988  12.413  0.1431  0.3262 -0.1563
19078TIP3    H178725   4.504   5.936  12.483  0.0985 -1.2379 -1.3242
19078TIP3    H278726   4.471   6.001  12.350  1.2199 -1.8027 -1.8847
19079TIP3   OH278727   1.451   1.869   1.245  0.5126 -0.0174 -0.2067
19079TIP3    H178728   1.373   1.821   1.270 -0.6852  1.3283 -1.2615
19079TIP3    H278729   1.515   1.848   1.313 -1.1426 -0.1933  1.3327
19080TIP3   OH278730   4.536   2.001  14.743 -0.4447 -0.0683 -0.4135
19080TIP3    H178731   4.501   2.062  14.808  0.6054  0.1158 -0.0249
19080TIP3    H278732   4.502   2.035  14.659 -1.1291  0.1528 -0.0535
19081TIP3   OH278733   1.889   3.292  14.578 -0.3720  0.3047 -0.2555
19081TIP3    H178734   1.827   3.282  14.650 -0.9257  2.8087 -0.3290
19081TIP3    H278735   1.974   3.266  14.614 -1.3683 -2.8964 -0.0753
19082TIP3   OH278736   3.014   2.641  11.580 -0.4187 -0.5347  0.2362
19082TIP3    H178737   3.034   2.564  11.527 -0.7887 -0.6889  0.3233
19082TIP3    H278738   2.957   2.695  11.525  1.2901  0.5342 -0.5195
19083TIP3   OH278739   2.974   5.051   4.987 -0.3702  0.4633 -0.8172
19083TIP3    H178740   2.926   5.055   5.069 -2.0021 -1.7617 -1.6058
19083TIP3    H278741   2.923   5.105   4.926  0.3191  1.3386 -0.6271
19084TIP3   OH278742   5.229   5.411  16.968 -0.1938  0.3733 -0.2380
19084TIP3    H178743   5.239   5.461  16.887 -1.2442 -1.6914 -1.6886
19084TIP3    H278744   5.163   5.345  16.947  1.0068 -1.4814  1.6987
19085TIP3   OH278745   3.149   3.673  14.008  0.3228  0.1239 -0.7139
19085TIP3    H178746   3.142   3.593  13.955 -0.6686 -0.1512 -0.1768
19085TIP3    H278747   3.140   3.643  14.098 -0.0532  0.8392 -0.5113
19086TIP3   OH278748   2.103   5.454   3.227 -0.0530  0.4741 -0.0577
19086TIP3    H178749   2.173   5.406   3.272  0.7989  2.1637  0.4536
19086TIP3    H278750   2.110   5.543   3.261 -1.0177  1.1834 -1.7024
19087TIP3   OH278751   0.825   1.189   4.567 -0.1497  0.1079  0.0750
19087TIP3    H178752   0.798   1.255   4.631 -0.2780 -0.6338  0.8081
19087TIP3    H278753   0.853   1.115   4.621  0.7919 -0.1207 -0.7296
19088TIP3   OH278754   2.750   1.036  16.749 -0.0869 -0.1608  0.4191
19088TIP3    H178755   2.791   0.952  16.726 -0.1184  0.5678 -2.4632
19088TIP3    H278756   2.663   1.012  16.781  0.4639 -1.3176  1.1104
19089TIP3   OH278757   1.167   0.609   1.222 -0.1284 -0.0688  0.0968
19089TIP3    H178758   1.153   0.700   1.196 -1.1998 -0.0653  0.6473
19089TIP3    H278759   1.079   0.576   1.241  0.4219 -0.6721  1.6644
19090TIP3   OH278760   0.698   2.606   0.178  0.1759 -0.4071 -0.0842
19090TIP3    H178761   0.747   2.523   0.173  0.8024 -0.1067  0.7857
19090TIP3    H278762   0.610   2.584   0.147  0.1790 -1.5343  0.6546
19091TIP3   OH278763   6.438   3.574  14.557 -0.2947  0.4447  0.1905
19091TIP3    H178764   6.368   3.606  14.614 -0.1459 -2.8803  2.3905
19091TIP3    H278765   6.393   3.528  14.487 -0.3912  1.9866 -0.7819
19092TIP3   OH278766   3.742   5.765  12.876  0.4090  0.0193  0.3477
19092TIP3    H178767   3.721   5.672  12.886  0.2428 -0.0281 -0.4754
19092TIP3    H278768   3.698   5.806  12.951  1.1614 -0.6626  1.1728
19093TIP3   OH278769   5.025   1.907   1.734 -0.0027  0.9205 -0.2830
19093TIP3    H178770   4.966   1.937   1.803 -0.5352  2.1654 -1.2638
19093TIP3    H278771   4.971   1.908   1.655  0.6729 -0.2519 -0.7623
19094TIP3   OH278772   2.226   0.638  11.101  0.2871 -0.0055  0.1145
19094TIP3    H178773   2.250   0.679  11.018  1.4182 -0.7863  0.0432
19094TIP3    H278774   2.209   0.546  11.079 -1.8163  0.3107  0.3390
19095TIP3   OH278775   0.692   2.787  14.072  0.1920  0.0182 -0.1191
19095TIP3    H178776   0.712   2.880  14.068 -0.3021  0.1444  0.2602
19095TIP3    H278777   0.656   2.766  13.986  0.7083  0.0801 -0.3535
19096TIP3   OH278778   0.804   4.883  15.932 -0.2626  0.0808 -0.3865
19096TIP3    H178779   0.721   4.922  15.959 -1.2395 -0.2156 -2.7972
19096TIP3    H278780   0.848   4.952  15.882  0.4877 -0.1057  0.0049
19097TIP3   OH278781   3.974   4.822  11.439 -0.1388 -0.2765  0.3588
19097TIP3    H178782   3.990   4.915  11.421 -0.4694 -0.0963  0.9696
19097TIP3    H278783   3.879   4.814  11.443 -0.0889 -0.3898  1.5563
19098TIP3   OH278784   5.886   4.656  16.737  0.1213 -0.1176 -0.7913
19098TIP3    H178785   5.867   4.742  16.700  0.4465  0.2433 -0.0984
19098TIP3    H278786   5.981   4.650  16.738  0.1042 -0.3320 -0.4693
19099TIP3   OH278787   0.769   2.866   6.317 -0.1572 -0.7590 -0.2436
19099TIP3    H178788   0.724   2.785   6.291  0.0167 -0.5577 -1.2190
19099TIP3    H278789   0.698   2.927   6.338 -0.4765  0.2882 -3.9966
19100TIP3   OH278790   5.925   1.507   5.332 -0.3575 -0.3283  0.0593
19100TIP3    H178791   5.960   1.595   5.349 -1.2450 -0.1870  1.1669
19100TIP3    H278792   5.840   1.523   5.290 -0.6931 -0.6500  0.6103
19101TIP3   OH278793   4.227   3.115   3.316 -0.0982  0.0602 -0.0289
19101TIP3    H178794   4.252   3.147   3.403  1.3713  1.5652 -0.9692
19101TIP3    H278795   4.296   3.148   3.258 -0.4119 -1.9405 -1.5829
19102TIP3   OH278796   4.168   0.292   2.555 -0.0021  0.0211 -0.4533
19102TIP3    H178797   4.212   0.309   2.472 -1.4446 -0.5054 -1.3385
19102TIP3    H278798   4.171   0.376   2.601  0.0386  0.5486 -1.4064
19103TIP3   OH278799   2.239   6.022  13.936 -0.0569 -0.2022  0.9969
19103TIP3    H178800   2.279   6.039  14.022  0.1840  0.1563  0.8182
19103TIP3    H278801   2.277   6.089  13.879  0.3553 -0.9083  0.4369
19104TIP3   OH278802   6.116   5.941  14.755 -0.1940  0.2063  0.2960
19104TIP3    H178803   6.099   5.921  14.662  0.3780 -0.7745  0.3937
19104TIP3    H278804   6.100   6.035  14.762 -0.9950  0.1559 -0.6343
19105TIP3   OH278805   4.913   0.514  11.340 -0.4373 -0.4198  0.4143
19105TIP3    H178806   4.860   0.455  11.393 -0.6542 -1.2890 -0.7347
19105TIP3    H278807   4.978   0.551  11.400 -1.0609 -0.9175  1.3883
19106TIP3   OH278808   0.449   2.591   5.901 -0.2864  0.4207  0.4905
19106TIP3    H178809   0.458   2.672   5.951  0.2828  0.5525  0.1808
19106TIP3    H278810   0.447   2.522   5.967 -0.3647  0.6570  0.7366
19107TIP3   OH278811   0.298   0.277  13.020 -0.1297 -0.0461  0.4175
19107TIP3    H178812   0.276   0.307  13.108  0.7670 -1.3023  1.0740
19107TIP3    H278813   0.389   0.249  13.025 -0.1827 -0.4892 -0.8148
19108TIP3   OH278814   4.080   0.507   0.297  0.5089 -0.3556 -0.6836
19108TIP3    H178815   4.066   0.439   0.230  0.3817  0.1063 -1.1253
19108TIP3    H278816   4.175   0.506   0.312  0.4645 -0.8849 -0.4194
19109TIP3   OH278817   5.433   0.763  16.021 -0.5758 -0.2186  0.5270
19109TIP3    H178818   5.398   0.780  16.108  0.5073 -0.7513  1.0754
19109TIP3    H278819   5.482   0.842  15.998 -1.3088  0.1367  0.1677
19110TIP3   OH278820   0.958   4.772   5.633 -0.4173  0.1733  0.8016
19110TIP3    H178821   0.923   4.837   5.694 -0.5813  1.4428 -0.6183
19110TIP3    H278822   0.881   4.740   5.586 -0.0053  1.0027 -0.4545
19111TIP3   OH278823   3.134   2.881   1.970  0.3020  0.2544 -0.3194
19111TIP3    H178824   3.102   2.970   1.950  0.4773  0.5790  0.8129
19111TIP3    H278825   3.081   2.853   2.045  0.8089 -0.2784 -0.1603
19112TIP3   OH278826   3.017   1.784  10.989  0.3373  0.1088  0.3154
19112TIP3    H178827   3.040   1.869  10.953  0.1689 -0.2113 -0.5573
19112TIP3    H278828   3.063   1.721  10.934  1.6020 -0.3237  1.8113
19113TIP3   OH278829   2.281   2.294   6.989  0.1600  0.7111 -0.2086
19113TIP3    H178830   2.298   2.207   6.952 -1.7862 -0.5017  1.6832
19113TIP3    H278831   2.242   2.343   6.916  2.2464  0.3793 -1.6048
19114TIP3   OH278832   1.057   1.100  13.436 -0.2414  0.2225 -0.3494
19114TIP3    H178833   1.112   1.080  13.360 -0.0952 -0.3966 -0.0758
19114TIP3    H278834   0.972   1.122  13.398  0.3800  1.9345 -0.8239
19115TIP3   OH278835   6.483   6.156   4.203  0.4714 -0.9161  1.1146
19115TIP3    H178836   6.425   6.204   4.145  1.5855 -1.2199 -0.2595
19115TIP3    H278837   6.465   6.064   4.184  1.9724 -1.0094  0.0917
19116TIP3   OH278838   6.717   2.156  17.177 -0.3077  0.7076 -0.5898
19116TIP3    H178839   6.769   2.139  17.098  2.5166 -0.3009  1.3923
19116TIP3    H278840   6.692   2.248  17.170  0.6189  0.8559 -2.2556
19117TIP3   OH278841   5.996   2.859  10.010  0.1156  0.1089  0.0072
19117TIP3    H178842   6.004   2.954  10.002 -1.2162  0.1169 -1.5907
19117TIP3    H278843   5.988   2.843  10.104 -0.2017  1.6372  0.2562
19118TIP3   OH278844   0.732   2.920  15.209 -0.4850  0.1404  0.1160
19118TIP3    H178845   0.692   2.868  15.279 -1.6219  2.2046  1.0490
19118TIP3    H278846   0.788   2.983  15.255  1.5541 -0.7660 -1.0365
19119TIP3   OH278847   2.437   5.364  10.614 -0.7633 -0.1455  0.7466
19119TIP3    H178848   2.457   5.272  10.631 -0.0933  0.1417  1.5087
19119TIP3    H278849   2.520   5.402  10.585 -0.9736  0.2796  0.6939
19120TIP3   OH278850   3.427   3.712   1.049  1.1318  0.5268  0.3995
19120TIP3    H178851   3.344   3.714   1.001  0.0831  0.1000  2.1645
19120TIP3    H278852   3.474   3.637   1.014  0.9146  0.9506 -0.8236
19121TIP3   OH278853   3.776   3.754   4.089 -0.2959 -0.1937  0.5603
19121TIP3    H178854   3.741   3.754   4.178  0.5789 -1.4211  0.9131
19121TIP3    H278855   3.832   3.676   4.085  2.5871  1.8534  0.0724
19122TIP3   OH278856   1.904   5.314   0.406  0.5948  0.0433 -0.1012
19122TIP3    H178857   1.930   5.248   0.343 -0.9893 -0.6987  0.0100
19122TIP3    H278858   1.922   5.274   0.491  0.9393  0.3032 -0.0497
19123TIP3   OH278859   1.545   1.733  14.704 -0.0713 -0.5197 -0.1355
19123TIP3    H178860   1.539   1.821  14.740 -0.1071 -0.1188 -1.1276
19123TIP3    H278861   1.599   1.685  14.767  4.5595  1.6328 -2.3029
19124TIP3   OH278862   2.164   2.624  11.890  0.2964  0.3543 -0.6550
19124TIP3    H178863   2.211   2.683  11.950  1.0747 -0.0235 -0.8902
19124TIP3    H278864   2.173   2.666  11.804  0.0713  0.3530 -0.6808
19125TIP3   OH278865   2.573   4.508   1.340  0.3349  0.1825 -0.2212
19125TIP3    H178866   2.517   4.444   1.296 -0.2475  1.7605 -1.8308
19125TIP3    H278867   2.540   4.593   1.310  1.0739  1.2464  1.8959
19126TIP3   OH278868   0.173   2.911  17.176  0.3710  0.4110 -0.0708
19126TIP3    H178869   0.150   2.873  17.091 -0.2046  1.6024 -0.4563
19126TIP3    H278870   0.135   2.851  17.240 -2.5010  1.4824 -0.6844
19127TIP3   OH278871   4.419   6.657   4.717 -0.3647 -0.6614 -0.8176
19127TIP3    H178872   4.478   6.585   4.698 -0.3084 -1.0786  0.8679
19127TIP3    H278873   4.476   6.735   4.718  0.0089 -0.9402 -0.0851
19128TIP3   OH278874   5.056   4.293  11.852  0.0927  0.0073  0.4536
19128TIP3    H178875   5.013   4.335  11.927 -2.1750 -3.3264  1.1302
19128TIP3    H278876   5.005   4.323  11.777 -0.5997 -0.3154  0.7777
19129TIP3   OH278877   0.985   0.304   1.136 -0.0353  0.0636  0.3995
19129TIP3    H178878   0.942   0.233   1.089 -0.0697  1.2982 -1.5019
19129TIP3    H278879   0.925   0.378   1.128  1.6510  1.3340 -0.8730
19130TIP3   OH278880   1.890   6.692  16.513 -0.0848  0.3723 -0.0073
19130TIP3    H178881   1.831   6.757  16.549 -1.1787 -0.1174 -0.9035
19130TIP3    H278882   1.834   6.633  16.463  1.1634 -0.0360 -0.9574
19131TIP3   OH278883   4.637   4.249   5.131  0.3115 -0.1449  0.5913
19131TIP3    H178884   4.580   4.189   5.177 -0.4289 -1.2141 -1.6397
19131TIP3    H278885   4.600   4.336   5.147 -1.3725 -0.7407 -0.0331
19132TIP3   OH278886   0.887   1.287   3.776  0.0552  0.1798  0.4068
19132TIP3    H178887   0.820   1.222   3.753 -1.1516  2.3671 -2.5154
19132TIP3    H278888   0.843   1.346   3.838 -0.3330  0.8730 -0.5209
19133TIP3   OH278889   1.766   2.278   6.470  0.1134  0.6657  0.0589
19133TIP3    H178890   1.800   2.222   6.540 -0.6241  0.5719  0.3436
19133TIP3    H278891   1.837   2.341   6.453  1.1972 -0.7268 -0.7032
19134TIP3   OH278892   6.445   6.053  16.469 -0.3077  0.4056 -0.2907
19134TIP3    H178893   6.469   5.967  16.504  0.0704  0.8494  0.5665
19134TIP3    H278894   6.432   6.038  16.376 -3.6579 -1.3073  0.3548
19135TIP3   OH278895   2.606   2.139  15.669 -0.2874 -0.0395  0.0500
19135TIP3    H178896   2.582   2.114  15.580  0.6460 -0.4109 -0.1003
19135TIP3    H278897   2.553   2.082  15.725 -0.1925 -0.4392 -0.2680
19136TIP3   OH278898   3.367   5.199   3.014  0.5927 -0.1622  0.3775
19136TIP3    H178899   3.385   5.203   3.108  2.1678  0.5320  0.0656
19136TIP3    H278900   3.433   5.139   2.979  1.2042  1.0310 -0.5434
19137TIP3   OH278901   2.533   3.213   3.975 -0.4256 -0.2387 -0.0881
19137TIP3    H178902   2.624   3.184   3.979 -0.2296  0.4295  0.4339
19137TIP3    H278903   2.535   3.293   3.922 -0.7187 -0.2724 -0.1526
19138TIP3   OH278904   5.518   1.744   5.289 -0.5095 -0.5264 -0.2391
19138TIP3    H178905   5.452   1.813   5.278  0.1723 -0.2464 -2.6786
19138TIP3    H278906   5.578   1.779   5.355 -0.7844  0.7317 -0.6512
19139TIP3   OH278907   6.145   5.416   0.523  0.1841  0.5117  0.1881
19139TIP3    H178908   6.076   5.432   0.458  0.1956 -0.6238 -0.1132
19139TIP3    H278909   6.203   5.352   0.481  0.8989  0.7510  0.8136
19140TIP3   OH278910   2.851   4.072   2.864 -0.2201 -0.2678 -0.1680
19140TIP3    H178911   2.819   3.989   2.830 -0.4981 -0.3546  0.3036
19140TIP3    H278912   2.939   4.053   2.897  0.0372 -0.1916 -0.7986
19141TIP3   OH278913   6.816   0.221  15.658  0.1138 -0.3358 -0.0650
19141TIP3    H178914   6.765   0.153  15.613 -1.2384 -0.3176  1.4048
19141TIP3    H278915   6.757   0.297  15.659  1.1595  0.4952 -0.6238
19142TIP3   OH278916   6.091   4.914   5.413 -0.1480 -0.0178  0.1689
19142TIP3    H178917   6.081   5.004   5.384 -0.4856 -0.4712 -1.1452
19142TIP3    H278918   6.003   4.877   5.409  0.0741 -0.5605  0.1580
19143TIP3   OH278919   6.666   2.420   0.265  0.1001 -0.2122  0.6393
19143TIP3    H178920   6.666   2.329   0.295  1.7836  0.3931  2.5657
19143TIP3    H278921   6.672   2.472   0.346  2.8174  1.5152 -0.6154
19144TIP3   OH278922   1.940   5.491   2.877  0.2156 -0.0162 -0.2336
19144TIP3    H178923   1.972   5.579   2.898  1.9763 -0.2379 -1.7914
19144TIP3    H278924   1.887   5.466   2.952 -1.9052  3.1323 -0.5707
19145TIP3   OH278925   4.131   0.947   1.204  0.0595 -0.3291 -0.0258
19145TIP3    H178926   4.218   0.931   1.241  1.8994  1.6462 -3.2378
19145TIP3    H278927   4.120   0.880   1.136  0.1846  0.9136 -1.3100
19146TIP3   OH278928   2.359   3.297   1.184  0.6699  0.6926  0.6381
19146TIP3    H178929   2.316   3.308   1.268 -0.4663  1.1752  0.0077
19146TIP3    H278930   2.386   3.386   1.159 -2.0571  1.0734 -1.0880
19147TIP3   OH278931   2.197   3.235  13.146  0.3072 -0.1559  0.1693
19147TIP3    H178932   2.216   3.193  13.230 -0.0927 -0.0379  0.3211
19147TIP3    H278933   2.282   3.243  13.103  0.4822 -0.4384  0.4590
19148TIP3   OH278934   4.706   2.822  15.998  0.5153  0.0589 -0.7434
19148TIP3    H178935   4.777   2.868  16.042  0.0200  0.5624 -0.4609
19148TIP3    H278936   4.731   2.730  16.004  0.4050  0.0998  0.7180
19149TIP3   OH278937   2.132   0.860  14.199  0.5922 -0.0741  0.1327
19149TIP3    H178938   2.209   0.855  14.255  0.6911  0.9552  0.0866
19149TIP3    H278939   2.134   0.779  14.149 -0.4208 -1.8405  2.8122
19150TIP3   OH278940   4.877   4.809   0.854  0.5188  0.1126 -0.2347
19150TIP3    H178941   4.816   4.830   0.924 -0.1798  0.2226 -0.8619
19150TIP3    H278942   4.962   4.839   0.886 -0.2358  2.8455 -0.5739
19151TIP3   OH278943   2.016   4.062  15.893  0.2558  0.4178 -0.0853
19151TIP3    H178944   1.984   4.043  15.982  1.3701 -1.0640  0.0201
19151TIP3    H278945   2.044   4.154  15.897  0.8453  0.2003  1.2725
19152TIP3   OH278946   5.675   6.011   3.754  0.1444 -0.3844  0.0659
19152TIP3    H178947   5.667   5.917   3.769 -0.6893 -0.1513  1.0899
19152TIP3    H278948   5.587   6.046   3.766  0.5983  0.6418  0.5042
19153TIP3   OH278949   4.762   0.526   1.961 -0.0132  0.0820  0.0294
19153TIP3    H178950   4.797   0.511   1.874 -1.1875 -2.1057 -0.0839
19153TIP3    H278951   4.790   0.451   2.012 -1.7489 -0.0709  0.7903
19154TIP3   OH278952   3.677   6.446   2.898  0.3472  0.1780  0.0372
19154TIP3    H178953   3.590   6.441   2.858  0.2929 -0.2146  0.2067
19154TIP3    H278954   3.660   6.442   2.992  0.4211  1.7259  0.1325
19155TIP3   OH278955   6.629   1.028  15.753  0.7333 -0.1048 -0.1139
19155TIP3    H178956   6.721   1.003  15.749  1.3219  1.7940  1.1942
19155TIP3    H278957   6.606   1.025  15.846 -0.3835 -0.0375 -0.3711
19156TIP3   OH278958   1.877   2.167  15.381  0.2140  0.3357  0.2703
19156TIP3    H178959   1.791   2.124  15.380  0.4109 -0.0522 -1.5347
19156TIP3    H278960   1.922   2.130  15.457 -0.3654 -1.1873 -0.1104
19157TIP3   OH278961   6.014   2.058   1.402 -0.0699 -0.4748  0.5204
19157TIP3    H178962   6.045   1.969   1.390 -0.1354 -0.4414  0.1067
19157TIP3    H278963   6.076   2.097   1.464  0.3918 -0.5815  0.1310
19158TIP3   OH278964   4.183   2.154   2.624 -0.1682 -0.2149  0.1380
19158TIP3    H178965   4.170   2.212   2.548 -0.2155 -0.7529 -0.2692
19158TIP3    H278966   4.142   2.201   2.697  0.3082  0.5358 -0.0655
19159TIP3   OH278967   0.085   5.308   4.473  0.2355  0.0093  0.2624
19159TIP3    H178968   0.085   5.318   4.378  0.8524  0.8332  0.3490
19159TIP3    H278969   0.013   5.248   4.491 -0.1289  0.1636 -0.6957
19160TIP3   OH278970   2.307   5.535  10.782  0.5348  0.8170 -0.5238
19160TIP3    H178971   2.377   5.579  10.831  0.4051  1.6001 -1.0348
19160TIP3    H278972   2.352   5.471  10.727  0.7368  0.3930  0.1271
19161TIP3   OH278973   6.642   5.056  12.036  0.1506  0.4705 -0.4562
19161TIP3    H178974   6.714   5.118  12.044 -0.3489  0.8389  1.7426
19161TIP3    H278975   6.603   5.075  11.951  2.3214  0.5938 -1.4560
19162TIP3   OH278976   6.218   6.440  16.890  0.2261  0.4610  0.0357
19162TIP3    H178977   6.305   6.477  16.904 -0.6834  2.3085  1.0156
19162TIP3    H278978   6.232   6.368  16.829  2.5768  0.1150  0.9275
19163TIP3   OH278979   6.675   3.427  15.378 -0.0718 -0.0014 -0.5727
19163TIP3    H178980   6.591   3.389  15.357  0.0300 -1.0698  0.8325
19163TIP3    H278981   6.696   3.392  15.465  1.8535  0.1723 -0.9414
19164TIP3   OH278982   6.264   6.728  12.318  0.3918  0.3660 -0.0880
19164TIP3    H178983   6.302   6.744  12.405 -0.1939  0.3385  0.1723
19164TIP3    H278984   6.283   6.808  12.268 -0.4960  0.9443  0.4947
19165TIP3   OH278985   0.742   2.546   1.287 -0.3040  0.5121  0.1836
19165TIP3    H178986   0.654   2.581   1.299 -0.4968  0.4098 -0.8807
19165TIP3    H278987   0.794   2.621   1.257  0.1600  0.7539  1.5370
19166TIP3   OH278988   1.801   0.517   3.752  0.0832 -0.3398  0.1058
19166TIP3    H178989   1.886   0.477   3.733 -0.7938 -1.9121 -0.6844
19166TIP3    H278990   1.773   0.554   3.668  0.8543  1.9365  0.8198
19167TIP3   OH278991   4.229   1.146  12.839  0.4231 -0.1699  0.2841
19167TIP3    H178992   4.313   1.170  12.801 -0.0396  0.8121 -0.1407
19167TIP3    H278993   4.250   1.078  12.904  1.5277  0.0518  0.1644
19168TIP3   OH278994   4.972   4.968   5.871 -0.1201 -0.0483 -0.1566
19168TIP3    H178995   4.923   5.031   5.923 -0.9113 -0.2194 -0.6821
19168TIP3    H278996   4.909   4.935   5.807  0.1959 -1.6027  0.3087
19169TIP3   OH278997   1.899   6.586  12.147 -0.1739 -0.4747  0.4796
19169TIP3    H178998   1.823   6.564  12.093 -0.1493 -1.3948  0.8026
19169TIP3    H278999   1.862   6.639  12.218 -0.6766 -1.5855  1.0854
19170TIP3   OH279000   1.272   2.598  14.881 -0.1911 -0.2713  1.0207
19170TIP3    H179001   1.329   2.661  14.837 -1.6064  1.2841  1.3559
19170TIP3    H279002   1.294   2.605  14.973  2.2184 -2.9595  0.7133
19171TIP3   OH279003   5.866   0.016   5.023 -0.1045  0.2026  0.0349
19171TIP3    H179004   5.926  -0.044   5.067 -0.5685  0.3687  0.9071
19171TIP3    H279005   5.901   0.024   4.935  1.6235  0.9253  0.7645
19172TIP3   OH279006   1.256   5.472  16.616 -0.5842 -0.0185 -0.0383
19172TIP3    H179007   1.191   5.480  16.685 -1.7043 -0.0203 -1.0878
19172TIP3    H279008   1.340   5.476  16.662 -1.3171 -0.5861  1.3785
19173TIP3   OH279009   1.821   2.916   6.137 -0.3846  0.0828  0.5600
19173TIP3    H179010   1.745   2.920   6.194 -0.4370 -1.0710  0.5755
19173TIP3    H279011   1.798   2.851   6.070  1.3349 -1.7398  1.6918
19174TIP3   OH279012   0.592   5.504  16.690 -0.2845 -0.6856  0.4002
19174TIP3    H179013   0.544   5.422  16.680 -0.2678 -0.4831 -1.6550
19174TIP3    H279014   0.544   5.567  16.636  2.1731 -0.4561 -1.6243
19175TIP3   OH279015   4.252   0.450   1.939 -0.5367  0.2364 -0.2214
19175TIP3    H179016   4.191   0.444   1.865  0.6518 -1.5378 -1.0988
19175TIP3    H279017   4.256   0.362   1.975 -0.4289  0.8984  1.4322
19176TIP3   OH279018   3.433   4.070  13.335  0.5215  0.2393  0.0751
19176TIP3    H179019   3.465   4.135  13.397  2.0798 -2.3163  2.0561
19176TIP3    H279020   3.346   4.102  13.308  0.7336  2.4523  1.9334
19177TIP3   OH279021   2.904   6.547  11.142  0.5881  0.4734  0.1418
19177TIP3    H179022   2.829   6.538  11.200  1.4756  1.5258  1.4866
19177TIP3    H279023   2.907   6.465  11.092 -1.1235  0.2182  0.4569
19178TIP3   OH279024   1.691   1.936   0.735  0.1192 -0.2594 -0.2043
19178TIP3    H179025   1.715   1.859   0.683 -0.5337  0.2414 -1.2727
19178TIP3    H279026   1.595   1.934   0.736  0.1207 -1.1328  2.3214
19179TIP3   OH279027   0.152   1.226  11.457  0.4031  0.3042  0.4564
19179TIP3    H179028   0.201   1.233  11.375 -1.1204  2.4084 -0.3175
19179TIP3    H279029   0.060   1.224  11.431 -0.0629 -0.0579  2.0576
19180TIP3   OH279030   0.977   4.552   0.815 -0.0827 -0.1770  0.1449
19180TIP3    H179031   0.962   4.642   0.785  0.2227 -0.5891 -1.2632
19180TIP3    H279032   1.006   4.505   0.737  0.4147 -1.3500  1.0237
19181TIP3   OH279033   1.632   6.678   2.638  0.3377 -0.8145 -0.5495
19181TIP3    H179034   1.706   6.677   2.578  0.5391  1.8133 -0.4133
19181TIP3    H279035   1.667   6.717   2.718 -1.0722  0.0368 -0.3363
19182TIP3   OH279036   4.945   1.096   4.881 -0.5104  0.0375 -0.0795
19182TIP3    H179037   4.895   1.062   4.807 -1.0706  0.1470  0.2429
19182TIP3    H279038   4.986   1.019   4.920 -0.5501 -0.0740 -0.2572
19183TIP3   OH279039   6.655   2.844  12.960 -0.3880 -0.3254 -0.6370
19183TIP3    H179040   6.572   2.889  12.981 -0.9093 -1.4205 -0.3236
19183TIP3    H279041   6.639   2.753  12.983  0.7468 -0.6357 -1.0667
19184TIP3   OH279042   3.196   2.335  13.514 -0.3839 -0.6277 -0.1771
19184TIP3    H179043   3.141   2.412  13.531 -0.9821 -0.9108 -0.7990
19184TIP3    H279044   3.151   2.264  13.560  0.0099 -0.6656  0.1494
19185TIP3   OH279045   0.903   5.822  12.695  0.3544  0.3125 -0.2855
19185TIP3    H179046   0.986   5.781  12.720 -0.1654 -0.6028 -0.0458
19185TIP3    H279047   0.909   5.911  12.731 -0.2871 -0.9097  2.9647
19186TIP3   OH279048   6.487   0.211   1.143 -0.4336 -0.1609  0.4552
19186TIP3    H179049   6.473   0.306   1.142 -0.5968 -0.1838  0.5246
19186TIP3    H279050   6.527   0.192   1.058  1.2284  0.2138  1.1282
19187TIP3   OH279051   6.727   5.954  10.173 -0.1907 -0.0198 -0.6264
19187TIP3    H179052   6.695   5.864  10.182  0.0035 -0.1121 -0.8521
19187TIP3    H279053   6.766   5.975  10.258  0.4171 -0.4043 -0.8116
19188TIP3   OH279054   4.496   5.988  14.424  0.1632 -0.0869  0.2003
19188TIP3    H179055   4.570   5.950  14.472 -0.0108 -1.2243 -0.4057
19188TIP3    H279056   4.533   6.020  14.343  0.0533 -0.3453  0.0467
19189TIP3   OH279057   1.292   1.038   1.276  0.2195  0.3756 -0.2109
19189TIP3    H179058   1.337   0.957   1.300  0.3414 -0.2473 -2.4195
19189TIP3    H279059   1.202   1.011   1.261  0.3727  0.5410 -1.4578
19190TIP3   OH279060   0.336   5.861  14.072  0.3825  0.1213  0.1771
19190TIP3    H179061   0.380   5.837  13.990  2.2085  1.0256  0.8791
19190TIP3    H279062   0.379   5.807  14.139 -0.5798 -0.0466  0.6789
19191TIP3   OH279063   0.909   1.063   3.556 -0.3423 -0.0600  0.5890
19191TIP3    H179064   0.845   1.090   3.491 -0.2596 -0.9760  0.1068
19191TIP3    H279065   0.883   1.108   3.636  0.1301  1.8562 -0.3058
19192TIP3   OH279066   2.603   2.923   5.955 -0.4803  0.3491 -0.5468
19192TIP3    H179067   2.623   3.000   5.901  0.3353  0.6222  0.1417
19192TIP3    H279068   2.589   2.958   6.043  0.5140 -0.3638 -0.1027
19193TIP3   OH279069   3.128   5.154   3.075  0.8597 -0.4128  0.2899
19193TIP3    H179070   3.213   5.149   3.032  1.6819 -1.0699  1.9254
19193TIP3    H279071   3.122   5.071   3.124  0.1711  0.4836  1.7635
19194TIP3   OH279072   3.952   1.416  16.899  0.4649 -0.1400  0.6915
19194TIP3    H179073   3.990   1.360  16.967 -0.2684 -0.5653  0.7527
19194TIP3    H279074   4.027   1.463  16.863  1.5562 -3.4048 -1.4976
19195TIP3   OH279075   3.709   1.897  12.578 -0.2749  0.6783 -0.0291
19195TIP3    H179076   3.708   1.987  12.546  1.1203  0.4422 -0.7645
19195TIP3    H279077   3.716   1.906  12.673  0.0398  1.3381 -0.1117
19196TIP3   OH279078   4.939   1.141   0.964  0.4338 -0.1168  0.1198
19196TIP3    H179079   4.866   1.100   0.918 -0.8041  1.8348  0.2714
19196TIP3    H279080   4.965   1.215   0.908  0.4866  0.8296  1.3571
19197TIP3   OH279081   3.704   2.502   2.630  0.2879 -0.2974 -0.9073
19197TIP3    H179082   3.618   2.471   2.601  0.2180 -0.3513 -0.6491
19197TIP3    H279083   3.744   2.540   2.552 -0.0515 -0.0969 -0.9845
19198TIP3   OH279084   3.053   4.439   6.121  0.5198 -0.1991 -0.2414
19198TIP3    H179085   3.022   4.529   6.126 -1.5842 -0.8246 -1.3827
19198TIP3    H279086   2.988   4.394   6.066  2.0082 -2.1974 -0.4288
19199TIP3   OH279087   5.541   0.819   2.136  0.3006  0.4937 -0.1793
19199TIP3    H179088   5.504   0.902   2.104  0.8959  0.1872 -1.6790
19199TIP3    H279089   5.557   0.768   2.057  1.3591 -0.4653  0.6445
19200TIP3   OH279090   6.675   5.934  11.831  0.1225  0.3220 -0.0546
19200TIP3    H179091   6.745   5.918  11.893  0.2235 -1.9561 -0.7149
19200TIP3    H279092   6.720   5.962  11.751  0.5659 -3.6597 -1.3179
19201TIP3   OH279093   6.504   0.430   1.693 -0.3923  0.1988  0.2773
19201TIP3    H179094   6.531   0.522   1.693  0.9623 -0.1831 -0.6444
19201TIP3    H279095   6.485   0.409   1.602 -0.5426 -0.4830  0.4574
19202TIP3   OH279096   4.116   2.879   5.239 -0.1508 -0.4093 -0.3514
19202TIP3    H179097   4.195   2.844   5.280  0.2213  0.2024 -0.5446
19202TIP3    H279098   4.129   2.974   5.239 -1.2477 -0.2575  0.3474
19203TIP3   OH279099   4.052   4.597  14.716 -0.5277  0.4187  0.0158
19203TIP3    H179100   3.958   4.593  14.698 -0.2903  1.3411 -1.6010
19203TIP3    H279101   4.093   4.572  14.633  0.6437  1.6132  0.2066
19204TIP3   OH279102   4.543   0.313   1.112 -0.0162  0.1584  0.1860
19204TIP3    H179103   4.509   0.230   1.080  0.0387  0.9803 -2.1201
19204TIP3    H279104   4.604   0.289   1.182 -0.7591 -1.6748  0.2295
19205TIP3   OH279105   2.948   0.692   4.852  0.5120 -1.0383  0.4019
19205TIP3    H179106   3.023   0.655   4.897  2.4615  1.9463 -0.2710
19205TIP3    H279107   2.957   0.663   4.762  1.9735  0.8302 -0.0973
19206TIP3   OH279108   5.279   0.400   2.108  0.1866  0.5077  0.9584
19206TIP3    H179109   5.347   0.349   2.064 -0.6395 -0.3272  0.6352
19206TIP3    H279110   5.204   0.341   2.112 -0.7981  1.7130  0.5490
19207TIP3   OH279111   6.781   2.032   2.569 -0.0404  0.5832  0.2029
19207TIP3    H179112   6.857   1.976   2.554  0.2390  1.5009 -2.1174
19207TIP3    H279113   6.706   1.973   2.568  0.2822  0.1752 -1.8805
19208TIP3   OH279114   0.902   3.954  14.905 -0.2699 -0.2705  0.0129
19208TIP3    H179115   0.835   3.894  14.939 -0.7790 -0.2115 -0.8838
19208TIP3    H279116   0.864   4.041  14.916 -0.2134 -0.2183 -0.2110
19209TIP3   OH279117   2.208   4.793   2.755 -0.8598 -0.1051 -0.0366
19209TIP3    H179118   2.198   4.734   2.680 -0.1881  1.2515 -1.2032
19209TIP3    H279119   2.155   4.869   2.732  2.6733  2.1336 -1.0604
19210TIP3   OH279120   6.716   5.665   3.666  0.0549 -0.0417 -0.0176
19210TIP3    H179121   6.738   5.738   3.608  1.2603 -0.9092 -0.6819
19210TIP3    H279122   6.748   5.692   3.752  1.4730 -0.2473 -0.4803
19211TIP3   OH279123   1.880   4.892  13.381 -0.9096  0.0158 -0.2126
19211TIP3    H179124   1.848   4.852  13.301 -0.3721  1.5518 -1.2153
19211TIP3    H279125   1.802   4.929  13.423 -1.2624 -1.2123  0.2368
19212TIP3   OH279126   6.658   1.284  13.983 -0.1953 -0.1160  0.6362
19212TIP3    H179127   6.649   1.200  13.938 -1.3541  1.0491 -1.3595
19212TIP3    H279128   6.748   1.311  13.965 -0.3737 -0.0885 -0.2044
19213TIP3   OH279129   5.136   2.509  14.852 -0.1601  0.1954  0.0902
19213TIP3    H179130   5.196   2.497  14.926 -0.6123 -1.1726  0.2440
19213TIP3    H279131   5.131   2.423  14.811  0.1000  0.9476 -1.5596
19214TIP3   OH279132   5.589   1.208  12.294 -0.0500 -0.0547 -0.2398
19214TIP3    H179133   5.544   1.135  12.337  0.6944 -0.2765  0.1826
19214TIP3    H279134   5.527   1.239  12.229  0.1606 -1.9692 -1.4036
19215TIP3   OH279135   1.916   4.959  12.475 -0.4894  0.1396 -0.0243
19215TIP3    H179136   1.935   4.995  12.562 -0.6533  1.1120 -0.3787
19215TIP3    H279137   1.896   5.036  12.421  0.2886 -0.3915 -1.0964
19216TIP3   OH279138   3.664   3.411   1.467  0.1183 -0.0926 -0.0142
19216TIP3    H179139   3.693   3.320   1.474 -1.3219 -0.5034  0.8054
19216TIP3    H279140   3.726   3.460   1.521  0.7984 -0.6013 -0.3269
19217TIP3   OH279141   2.708   4.049  11.054 -0.1511 -0.4314 -0.3515
19217TIP3    H179142   2.634   4.110  11.061  0.8429  0.5268  2.4953
19217TIP3    H279143   2.781   4.104  11.025  0.2606 -0.6838  0.2131
19218TIP3   OH279144   0.937   4.068   4.979  0.2998  0.1385 -0.1979
19218TIP3    H179145   0.919   4.083   4.886  1.0844 -0.1356 -0.4021
19218TIP3    H279146   1.032   4.054   4.982  0.2008 -0.3664  0.5746
19219TIP3   OH279147   2.043   4.304  12.428  0.0002  0.6171 -0.0049
19219TIP3    H179148   2.120   4.300  12.371 -0.7563  1.4273 -1.0874
19219TIP3    H279149   2.054   4.229  12.487  1.8947  1.0124  0.2021
19220TIP3   OH279150   0.353   5.415  13.461 -0.3784 -0.5462 -0.4347
19220TIP3    H179151   0.348   5.319  13.461  1.4598 -0.6782  1.4453
19220TIP3    H279152   0.438   5.435  13.423 -0.0261  0.2542  0.7133
19221TIP3   OH279153   5.514   2.336   0.648 -0.0223 -0.4151 -0.0222
19221TIP3    H179154   5.490   2.253   0.689 -0.7685  0.1679  0.7626
19221TIP3    H279155   5.503   2.401   0.718 -0.0080  0.4161 -0.7794
19222TIP3   OH279156   6.551   4.448  12.685  0.3142 -0.2052 -0.3588
19222TIP3    H179157   6.634   4.494  12.696  0.6183 -0.3138 -2.1059
19222TIP3    H279158   6.501   4.501  12.623 -0.3097 -0.9464 -0.5026
19223TIP3   OH279159   4.749   6.066  16.441 -0.4322 -0.1079  0.2726
19223TIP3    H179160   4.813   6.020  16.494 -0.3753  0.6322  0.8435
19223TIP3    H279161   4.799   6.101  16.367  0.0014  1.3082  1.2277
19224TIP3   OH279162   1.085   5.058   1.820  0.1432  0.0794 -0.1082
19224TIP3    H179163   1.067   4.982   1.764  0.7642  0.5203 -0.9362
19224TIP3    H279164   1.167   5.093   1.785 -0.2976  1.3078  0.0735
19225TIP3   OH279165   5.053   5.212   5.306 -0.2598  0.4725  0.1088
19225TIP3    H179166   4.991   5.140   5.298  1.3998 -0.8049 -1.8715
19225TIP3    H279167   5.017   5.281   5.250  0.2048 -0.3786 -1.2713
19226TIP3   OH279168   5.614   3.089  10.844  0.5497  0.0590  0.5354
19226TIP3    H179169   5.668   3.164  10.817  0.2658 -0.1077 -0.5119
19226TIP3    H279170   5.528   3.106  10.806  0.0514 -0.0285  1.6105
19227TIP3   OH279171   2.339   3.096  11.821  0.4296 -0.1097  0.4579
19227TIP3    H179172   2.374   3.170  11.770 -0.1202 -0.7068 -0.8330
19227TIP3    H279173   2.295   3.042  11.755  0.5264 -1.4065  1.4546
19228TIP3   OH279174   6.197   1.850   1.421 -0.1551 -0.0432  0.1488
19228TIP3    H179175   6.209   1.796   1.342 -0.4734 -2.4775  1.7190
19228TIP3    H279176   6.285   1.857   1.458 -0.0542  0.8437 -0.2563
19229TIP3   OH279177   4.223   5.956  13.097  0.2878 -0.5461 -0.6848
19229TIP3    H179178   4.177   6.027  13.140 -0.3600 -1.3350 -0.0620
19229TIP3    H279179   4.277   5.916  13.165  0.2555 -0.9786 -0.9086
19230TIP3   OH279180   5.404   5.673  12.984  0.5619 -0.5657 -0.5859
19230TIP3    H179181   5.368   5.588  12.961  1.4356 -0.7505 -1.3051
19230TIP3    H279182   5.395   5.679  13.079  2.0092 -2.1607 -0.3427
19231TIP3   OH279183   5.455   6.509  10.519 -0.0132  0.0477  0.3179
19231TIP3    H179184   5.486   6.487  10.607 -0.9997  0.3951  0.7576
19231TIP3    H279185   5.400   6.434  10.494  1.0523 -0.5008 -0.4016
19232TIP3   OH279186   6.657   1.334   4.839 -0.3837  0.0052  0.0164
19232TIP3    H179187   6.750   1.325   4.815 -0.5531 -0.4132 -0.4893
19232TIP3    H279188   6.642   1.262   4.900 -0.7045 -0.7305 -0.9122
19233TIP3   OH279189   3.144   5.128  15.657  0.1688 -0.7773 -0.0833
19233TIP3    H179190   3.111   5.182  15.729  0.6790 -0.6835  0.0882
19233TIP3    H279191   3.128   5.038  15.686 -0.2578 -0.7257 -0.1615
19234TIP3   OH279192   0.819   0.676  13.072 -0.1340  0.2149 -0.2614
19234TIP3    H179193   0.830   0.585  13.101 -0.1525  0.1729 -0.3891
19234TIP3    H279194   0.868   0.727  13.137 -0.2366  0.1266 -0.1121
19235TIP3   OH279195   0.818   4.386  14.085  0.0865 -0.2680  0.4993
19235TIP3    H179196   0.875   4.310  14.077  0.7192  0.1191  1.3118
19235TIP3    H279197   0.876   4.458  14.111 -0.6849  0.2351  0.8589
19236TIP3   OH279198   5.744   1.467  15.810 -1.1446  1.0010 -0.2596
19236TIP3    H179199   5.800   1.488  15.735  1.1471  0.1238  1.1662
19236TIP3    H279200   5.712   1.379  15.792 -1.1513  1.0552 -0.5214
19237TIP3   OH279201   6.363   0.320   0.478 -0.3755  0.5307  0.0813
19237TIP3    H179202   6.385   0.384   0.411  0.1624 -0.0211 -0.2687
19237TIP3    H279203   6.358   0.237   0.432  0.9704 -0.0181  0.8881
19238TIP3   OH279204   2.721   5.106  16.763 -0.6072 -0.3852 -0.3945
19238TIP3    H179205   2.644   5.056  16.789 -1.1539  1.8779  2.6219
19238TIP3    H279206   2.793   5.066  16.812 -0.8430  0.9997  1.1031
19239TIP3   OH279207   1.906   2.809   1.542 -0.3286 -0.1961 -0.2531
19239TIP3    H179208   1.900   2.749   1.617 -2.0796 -1.0612 -1.0538
19239TIP3    H279209   1.994   2.794   1.507  0.3440 -0.1111  1.3497
19240TIP3   OH279210   4.737   2.912   6.090  0.2528  0.3869  0.5262
19240TIP3    H179211   4.787   2.986   6.056  0.8997  0.4761  1.6325
19240TIP3    H279212   4.719   2.858   6.014 -1.8041  2.5881 -0.6241
19241TIP3   OH279213   5.610   4.929   1.476  0.7226 -0.2399 -0.3307
19241TIP3    H179214   5.594   5.021   1.458  0.3295 -0.2761 -0.1644
19241TIP3    H279215   5.600   4.921   1.571 -1.3372 -0.8615 -0.5791
19242TIP3   OH279216   0.295   2.751   3.988 -0.2039 -0.2479 -0.3963
19242TIP3    H179217   0.319   2.828   4.039 -1.1128  0.3235 -0.8148
19242TIP3    H279218   0.257   2.690   4.052  1.4514 -0.7859  0.1106
19243TIP3   OH279219   5.570   5.210  15.521 -0.2791  0.8274  0.6329
19243TIP3    H179220   5.640   5.265  15.487  0.3853  1.2423  2.5827
19243TIP3    H279221   5.509   5.199  15.448  0.2728  3.0186 -0.1769
19244TIP3   OH279222   4.295   6.254   1.467 -0.5212 -0.0865  0.3472
19244TIP3    H179223   4.373   6.241   1.521 -0.2874 -1.1686 -0.2420
19244TIP3    H279224   4.291   6.177   1.410 -0.2919  1.4206 -1.7677
19245TIP3   OH279225   4.128   2.097  11.544 -0.1234  0.1633  0.2191
19245TIP3    H179226   4.157   2.012  11.513  0.6887  0.3677  0.4081
19245TIP3    H279227   4.205   2.135  11.586  0.2761  2.0803 -2.1214
19246TIP3   OH279228   5.305   2.258  16.750 -0.4407 -0.6585  0.3483
19246TIP3    H179229   5.271   2.212  16.827 -1.8388  0.4503  0.4237
19246TIP3    H279230   5.325   2.347  16.781 -3.3256  0.5513 -1.0581
19247TIP3   OH279231   1.636   4.900   4.178  0.5594  0.0705  0.3541
19247TIP3    H179232   1.625   4.989   4.211  0.8899 -0.4794  1.9542
19247TIP3    H279233   1.620   4.908   4.084 -1.1971  1.5034  0.7382
19248TIP3   OH279234   5.035   1.775   5.895  0.0189 -0.2367 -0.1908
19248TIP3    H179235   4.981   1.751   5.970 -0.4293  0.3267 -0.3253
19248TIP3    H279236   5.105   1.711   5.894 -0.2617 -0.5565  0.4048
19249TIP3   OH279237   4.880   6.671  16.321 -0.7010 -0.7861 -0.1898
19249TIP3    H179238   4.927   6.601  16.277 -1.0435 -2.3611  1.8458
19249TIP3    H279239   4.819   6.626  16.380 -0.3238  1.2091  1.8016
19250TIP3   OH279240   6.673   6.526  10.497  0.0439  0.2160  0.3229
19250TIP3    H179241   6.766   6.502  10.496 -0.3206 -1.3050 -2.0058
19250TIP3    H279242   6.635   6.471  10.566  1.2293  2.4673  2.8331
19251TIP3   OH279243   3.121   5.095  10.815 -0.0171  0.3236 -0.4094
19251TIP3    H179244   3.182   5.043  10.867  0.1978  0.5753 -0.4131
19251TIP3    H279245   3.159   5.182  10.812 -2.0083  1.3770  2.4319
19252TIP3   OH279246   4.922   1.707  12.957 -0.5482  0.1214 -0.3077
19252TIP3    H179247   4.870   1.629  12.938 -0.0943 -0.5432  1.0883
19252TIP3    H279248   4.858   1.778  12.959 -1.3300 -0.5910  0.7901
19253TIP3   OH279249   5.873   2.701  12.862 -0.2239  0.4133 -0.1102
19253TIP3    H179250   5.937   2.697  12.791  1.7186 -0.4310  1.6279
19253TIP3    H279251   5.880   2.791  12.895  0.8083  0.0360  0.7205
19254TIP3   OH279252   6.048   1.199  13.724  0.0228  0.2035 -0.7311
19254TIP3    H179253   6.113   1.129  13.734  1.2460  1.5453  1.0303
19254TIP3    H279254   5.984   1.182  13.792  0.3583  0.8182 -0.2569
19255TIP3   OH279255   1.146   3.276  16.828 -0.0111  0.0124 -0.2959
19255TIP3    H179256   1.180   3.365  16.827 -0.1360  0.0778  0.7368
19255TIP3    H279257   1.136   3.253  16.736  2.2270  0.2230 -0.6209
19256TIP3   OH279258   5.576   1.361  11.360  0.0869 -0.8300 -0.4015
19256TIP3    H179259   5.640   1.315  11.307 -2.0986 -2.2855 -1.8359
19256TIP3    H279260   5.535   1.423  11.299 -0.5607 -0.5901  0.2775
19257TIP3   OH279261   0.284   2.862   2.388  0.1281 -0.1628 -0.4058
19257TIP3    H179262   0.236   2.789   2.350 -0.1090  0.6069 -1.6124
19257TIP3    H279263   0.281   2.847   2.483 -1.8776 -0.4886 -0.5108
19258TIP3   OH279264   6.509   2.571  14.787  0.1311  0.2021 -0.3110
19258TIP3    H179265   6.497   2.613  14.703 -1.5242 -1.7894 -1.1167
19258TIP3    H279266   6.421   2.560  14.822  0.5811 -1.6258  0.3251
19259TIP3   OH279267   4.148   2.393   4.205 -0.1123  0.2738 -0.3975
19259TIP3    H179268   4.191   2.340   4.137 -0.3371 -0.3965 -0.0304
19259TIP3    H279269   4.165   2.345   4.286  0.0103  0.9848 -0.0091
19260TIP3   OH279270   2.942   0.047  16.852 -0.1185 -0.4241 -0.0015
19260TIP3    H179271   2.963   0.041  16.945 -0.3768 -2.1035 -0.0365
19260TIP3    H279272   2.956   0.139  16.830  1.5384 -0.3371  1.3090
19261TIP3   OH279273   2.176   0.433  13.086 -0.0714  0.2208 -0.4220
19261TIP3    H179274   2.150   0.409  12.997  0.1797  1.7397 -0.9206
19261TIP3    H279275   2.116   0.503  13.110  0.2682  0.2425  0.3784
19262TIP3   OH279276   3.423   5.584   3.432  0.1734 -1.1459 -0.2099
19262TIP3    H179277   3.404   5.587   3.525 -2.6751 -1.8110 -0.7256
19262TIP3    H279278   3.497   5.523   3.424  0.9375 -0.4811  1.6535
19263TIP3   OH279279   6.697   6.817   1.286  0.0680  0.6540  0.7238
19263TIP3    H179280   6.653   6.798   1.204  0.9492 -1.0635  0.6348
19263TIP3    H279281   6.649   6.766   1.352  0.7240  0.2836  0.9223
19264TIP3   OH279282   0.514   5.211   5.709 -0.0483 -0.3638  0.0803
19264TIP3    H179283   0.495   5.136   5.767  0.7317  0.0071  0.8249
19264TIP3    H279284   0.599   5.243   5.738  1.4148 -1.5435 -2.7379
19265TIP3   OH279285   1.531   0.134   5.017  0.1360  0.0392 -0.2991
19265TIP3    H179286   1.522   0.062   4.955  0.0854 -0.8447  0.7165
19265TIP3    H279287   1.542   0.091   5.102 -1.5052  1.2429  0.5500
19266TIP3   OH279288   3.959   1.977  16.903 -0.3461  0.2322  0.0297
19266TIP3    H179289   3.972   1.921  16.826  3.4782 -1.0201  1.4738
19266TIP3    H279290   3.994   2.062  16.877  1.2929 -0.2933  0.4785
19267TIP3   OH279291   5.243   5.259   2.819 -0.5551 -0.1642  0.1413
19267TIP3    H179292   5.174   5.280   2.883 -0.1561  0.7354  0.2730
19267TIP3    H279293   5.199   5.205   2.754 -1.6410  1.2628 -0.3265
19268TIP3   OH279294   1.188   3.049  13.731  0.9744  0.3014 -0.1713
19268TIP3    H179295   1.117   2.994  13.763  1.2388  1.3850  2.4181
19268TIP3    H279296   1.148   3.102  13.662  0.3409 -1.9869 -1.6217
19269TIP3   OH279297   4.502   6.519  16.303 -0.3796 -0.1123 -0.1835
19269TIP3    H179298   4.499   6.425  16.323  0.9820 -0.3189 -0.8387
19269TIP3    H279299   4.445   6.529  16.227  0.0168 -0.5418 -0.5466
19270TIP3   OH279300   0.666   6.038  12.779  0.4590  0.2657  0.1784
19270TIP3    H179301   0.622   5.981  12.842 -0.2467 -0.2435 -0.7521
19270TIP3    H279302   0.698   6.112  12.831 -1.2912  0.5261  0.9424
19271TIP3   OH279303   2.993   5.341   0.782 -0.0450 -0.5317 -0.6610
19271TIP3    H179304   3.039   5.389   0.713 -0.7859  2.2823  0.7354
19271TIP3    H279305   2.901   5.360   0.768 -0.2485 -0.4535  0.6915
19272TIP3   OH279306   0.503   0.777   5.939 -0.2213 -0.7879  0.2308
19272TIP3    H179307   0.535   0.818   5.858  0.0010  1.9084  1.6417
19272TIP3    H279308   0.582   0.752   5.986 -0.3213 -0.7183  0.4348
19273TIP3   OH279309   1.470   1.783   3.517  0.1778  0.2705  0.4489
19273TIP3    H179310   1.537   1.777   3.586  0.4746 -0.4267  0.1070
19273TIP3    H279311   1.429   1.868   3.531 -0.0618 -0.0448  1.7741
19274TIP3   OH279312   5.421   1.915   3.847  0.1216 -0.5431 -0.4386
19274TIP3    H179313   5.408   1.852   3.918 -1.2830 -1.0622 -1.1558
19274TIP3    H279314   5.386   1.872   3.770  2.1936 -0.2298 -1.5834
19275TIP3   OH279315   3.992   5.908  16.044  0.3390 -0.1844  0.4349
19275TIP3    H179316   3.939   5.896  15.965 -3.3094 -0.3281  2.7424
19275TIP3    H279317   4.033   5.823  16.058 -1.5521 -1.1294  0.3976
19276TIP3   OH279318   1.992   4.913   1.031 -0.3091 -0.4886  0.0575
19276TIP3    H179319   2.051   4.879   0.964  0.0697 -0.1290  0.2058
19276TIP3    H279320   1.943   4.836   1.061 -0.7412 -0.5941 -0.8824
19277TIP3   OH279321   3.977   5.302   2.463  0.4308  0.8989  0.0008
19277TIP3    H179322   4.058   5.313   2.414  0.6486  0.8957  0.3594
19277TIP3    H279323   3.918   5.369   2.429  0.0855 -0.0674 -1.3132
19278TIP3   OH279324   3.977   2.364   3.429 -0.1733  1.1118 -0.1705
19278TIP3    H179325   3.907   2.429   3.430  0.6491  2.0040  0.5763
19278TIP3    H279326   3.934   2.282   3.451 -0.7555  1.8900  1.7176
19279TIP3   OH279327   4.405   6.597  11.971  0.2471 -0.2105 -0.0560
19279TIP3    H179328   4.353   6.656  11.915 -0.7963 -0.1906  0.9235
19279TIP3    H279329   4.465   6.655  12.018  1.2684 -0.2459 -1.2762
19280TIP3   OH279330   6.790   2.815  14.101 -0.0460  0.1208  0.2740
19280TIP3    H179331   6.860   2.878  14.089 -0.5974  0.4160 -1.5862
19280TIP3    H279332   6.710   2.864  14.084 -0.5395 -0.8262 -0.2045
19281TIP3   OH279333   2.630   1.141  12.135  0.4867  0.2280 -0.4657
19281TIP3    H179334   2.700   1.191  12.176 -1.3635  0.6221  2.3348
19281TIP3    H279335   2.569   1.207  12.103  1.0782 -0.1301 -2.4405
19282TIP3   OH279336   5.443   4.990  14.103  0.5320  1.0560 -0.4171
19282TIP3    H179337   5.450   4.947  14.188  0.4816  3.2999  0.7730
19282TIP3    H279338   5.530   4.985  14.066  1.1412  2.0786  0.8212
19283TIP3   OH279339   0.721   3.632   2.001 -0.6370  0.5566 -0.1910
19283TIP3    H179340   0.790   3.684   2.041 -1.2961  0.9394  0.4652
19283TIP3    H279341   0.725   3.653   1.908  0.5937  0.0262 -0.2675
19284TIP3   OH279342   2.517   6.633   4.749  0.2692  0.3911 -0.2852
19284TIP3    H179343   2.574   6.709   4.751 -1.2949  1.5660  0.3744
19284TIP3    H279344   2.430   6.669   4.735 -0.3141 -1.3840 -1.3624
19285TIP3   OH279345   6.216   3.454   5.249 -0.0775 -0.3999 -0.3209
19285TIP3    H179346   6.171   3.464   5.333 -0.0206  1.4054 -0.4730
19285TIP3    H279347   6.222   3.360   5.236 -0.4470 -0.7033  1.5095
19286TIP3   OH279348   0.057   2.753   0.108  0.2114 -0.2039  0.1543
19286TIP3    H179349   0.084   2.662   0.094  0.3813 -0.1725  0.2750
19286TIP3    H279350  -0.037   2.753   0.091  0.6079  0.0782 -2.1866
19287TIP3   OH279351   3.964   1.627   5.059 -0.4651  0.1135  0.5203
19287TIP3    H179352   3.972   1.719   5.036 -1.9779  0.9066  2.9498
19287TIP3    H279353   3.920   1.587   4.984  0.1314  1.3694 -0.5095
19288TIP3   OH279354   4.369   4.085  12.071  0.5183 -0.4551 -0.1080
19288TIP3    H179355   4.368   3.993  12.046  0.9045 -0.6068  0.4245
19288TIP3    H279356   4.462   4.106  12.082  0.4513  0.0887 -0.5518
19289TIP3   OH279357   3.171   5.969  13.645  0.5167  0.4782  1.0393
19289TIP3    H179358   3.086   6.009  13.629  0.5430  0.0153 -0.3604
19289TIP3    H279359   3.228   6.006  13.578  0.6313 -1.5795 -0.0440
19290TIP3   OH279360   6.277   5.638   5.969  0.2766  0.7260  0.0757
19290TIP3    H179361   6.298   5.554   5.928 -1.2574  0.0069  0.7159
19290TIP3    H279362   6.244   5.615   6.055 -2.0800  1.8431 -0.4817
19291TIP3   OH279363   1.544   0.662   4.869  0.4049 -0.5455 -0.3652
19291TIP3    H179364   1.587   0.580   4.893  0.5189 -0.8148 -1.4588
19291TIP3    H279365   1.600   0.731   4.904  0.7493 -0.9230 -0.1749
19292TIP3   OH279366   4.165   5.046   5.330 -0.2799  0.5162 -0.1325
19292TIP3    H179367   4.161   5.088   5.245  0.0939  0.3936 -0.2102
19292TIP3    H279368   4.098   4.978   5.327 -0.5397  0.7747 -0.1837
19293TIP3   OH279369   1.881   0.013   3.500 -0.0327  0.1128 -0.0449
19293TIP3    H179370   1.882  -0.049   3.427 -0.9072  1.9760 -1.7104
19293TIP3    H279371   1.945   0.080   3.475 -1.9935  1.9907 -0.2649
19294TIP3   OH279372   0.833   2.616  15.894  0.3978  0.1321  0.4014
19294TIP3    H179373   0.857   2.639  15.983 -0.2234 -0.0978  0.6331
19294TIP3    H279374   0.755   2.668  15.876 -1.1029 -1.8318  0.9825
19295TIP3   OH279375   5.128   4.319   2.835 -0.3205 -0.5960 -0.4798
19295TIP3    H179376   5.114   4.409   2.865 -0.5435 -0.9392  0.4571
19295TIP3    H279377   5.042   4.278   2.843  0.0280 -1.2085  0.1756
19296TIP3   OH279378   4.212   6.743   5.313 -0.4035 -0.1981 -0.2712
19296TIP3    H179379   4.274   6.676   5.286  0.1155  1.2397 -2.8126
19296TIP3    H279380   4.263   6.802   5.368 -0.0964 -0.2487 -0.5021
19297TIP3   OH279381   1.598   1.060  12.609 -0.5017  0.3039 -0.2866
19297TIP3    H179382   1.574   0.995  12.543 -0.6383 -0.4568  0.5048
19297TIP3    H279383   1.669   1.110  12.569  0.2676 -0.9651 -0.5188
19298TIP3   OH279384   2.521   0.762   1.543  0.5279  1.0574 -0.3534
19298TIP3    H179385   2.512   0.854   1.518 -0.1191  1.1366  0.1479
19298TIP3    H279386   2.476   0.756   1.628  0.5916  0.2896 -0.3707
19299TIP3   OH279387   3.384   4.516  15.327  0.8446 -0.4906  0.0133
19299TIP3    H179388   3.369   4.504  15.420 -1.3259 -0.1001 -0.2414
19299TIP3    H279389   3.373   4.610  15.313  0.2656 -0.6652 -0.7655
19300TIP3   OH279390   4.193   6.609   0.508 -0.2575  0.0629  0.7002
19300TIP3    H179391   4.228   6.546   0.571 -1.1225 -0.5589  0.5617
19300TIP3    H279392   4.116   6.566   0.471  1.4687 -0.4978 -2.4159
19301TIP3   OH279393   3.247   4.218  14.165  0.5515 -0.3418 -0.1775
19301TIP3    H179394   3.241   4.228  14.070 -2.0138 -0.3234 -0.0575
19301TIP3    H279395   3.332   4.178  14.180  2.4607  2.7422 -2.2039
19302TIP3   OH279396   0.330   5.518   3.659 -0.1644 -0.7130  0.1206
19302TIP3    H179397   0.375   5.593   3.618 -2.0156  1.0984  1.2930
19302TIP3    H279398   0.344   5.446   3.597  0.0661  1.0674 -2.0024
19303TIP3   OH279399   3.147   3.729   5.784 -0.3937 -0.4326 -0.3014
19303TIP3    H179400   3.106   3.743   5.870  0.1942 -0.0621 -0.0794
19303TIP3    H279401   3.074   3.734   5.722 -0.3453  2.9021 -0.1856
19304TIP3   OH279402   6.480   6.044  15.421 -0.3506  0.3421  0.3655
19304TIP3    H179403   6.491   6.116  15.358  0.3872 -0.3246 -0.2762
19304TIP3    H279404   6.568   6.007  15.430 -0.7746 -0.6298  0.5098
19305TIP3   OH279405   0.715   0.769  14.374  0.7311  0.1998 -0.0200
19305TIP3    H179406   0.801   0.746  14.410  1.1930 -0.6256 -1.5721
19305TIP3    H279407   0.719   0.863  14.357  0.6803  0.5031  1.5654
19306TIP3   OH279408   0.235   4.302  17.143 -0.5483  0.2486  0.0716
19306TIP3    H179409   0.225   4.324  17.051 -4.4892 -0.5683  0.2297
19306TIP3    H279410   0.208   4.382  17.190  1.5860  0.7200  0.6087
19307TIP3   OH279411   4.476   3.914   6.488  0.2314 -0.5739 -0.4192
19307TIP3    H179412   4.557   3.867   6.509  0.5909 -0.1023 -0.7563
19307TIP3    H279413   4.429   3.919   6.572  1.9986  1.9593  0.4667
19308TIP3   OH279414   0.134   1.022   0.672 -0.4494 -0.8897 -0.6523
19308TIP3    H179415   0.101   0.998   0.759 -2.8940 -0.5584 -1.4699
19308TIP3    H279416   0.202   0.956   0.654 -0.5111 -1.4792  1.1310
19309TIP3   OH279417   0.556   3.160   2.177 -0.3295 -0.0898 -0.5612
19309TIP3    H179418   0.570   3.243   2.132 -1.0578 -0.3457 -1.2852
19309TIP3    H279419   0.506   3.108   2.114  0.4064 -1.1912 -0.2420
19310TIP3   OH279420   4.078   3.528   5.405  0.3199  0.3178  0.5701
19310TIP3    H179421   4.005   3.473   5.434 -0.6846 -0.4607 -3.1251
19310TIP3    H279422   4.153   3.469   5.402  0.4724  0.4434  1.6501
19311TIP3   OH279423   2.186   3.701  11.515  0.2744 -0.1710  0.0787
19311TIP3    H179424   2.113   3.703  11.578  0.2235 -0.5949  0.0340
19311TIP3    H279425   2.193   3.792  11.484 -0.9529 -0.3329 -0.7312
19312TIP3   OH279426   1.486   2.045   0.388 -0.0126 -0.2643 -0.6418
19312TIP3    H179427   1.403   2.093   0.380  0.4371  0.3444 -1.7844
19312TIP3    H279428   1.476   1.971   0.328  0.6192  0.3164 -1.4680
19313TIP3   OH279429   3.999   6.183  15.064  0.1466  0.3954 -0.8120
19313TIP3    H179430   3.931   6.232  15.017 -0.6272  0.2430  0.1220
19313TIP3    H279431   4.033   6.245  15.128  0.0948  0.1224 -0.5192
19314TIP3   OH279432   0.102   0.808   6.417  0.2437 -0.0061  0.0986
19314TIP3    H179433   0.056   0.843   6.493  0.3272 -2.3975  1.3068
19314TIP3    H279434   0.193   0.799   6.445  0.8419  1.5997 -1.2007
19315TIP3   OH279435   1.838   4.477  15.335 -0.6286 -0.2761  0.2863
19315TIP3    H179436   1.841   4.426  15.254 -2.8406 -2.2930  1.4217
19315TIP3    H279437   1.929   4.504  15.349  0.4703 -3.2224 -0.8132
19316TIP3   OH279438   3.096   4.843  11.870 -0.8356 -0.1357 -0.1805
19316TIP3    H179439   3.172   4.827  11.926 -0.6027 -0.4092 -0.5724
19316TIP3    H279440   3.133   4.876  11.788 -1.3110  3.1263  0.8333
19317TIP3   OH279441   4.876   6.332  15.330  0.1434  0.5058 -0.1076
19317TIP3    H179442   4.957   6.307  15.376 -0.5847  1.0508  1.5256
19317TIP3    H279443   4.865   6.425  15.349 -1.0088  0.3695 -0.0978
19318TIP3   OH279444   2.862   2.494   0.621  0.0770  0.0327 -0.0870
19318TIP3    H179445   2.798   2.548   0.668  0.3089  0.0463  0.2091
19318TIP3    H279446   2.906   2.443   0.689  0.5395  0.1853 -0.2716
19319TIP3   OH279447   2.481   1.269  17.257 -0.0254 -0.0342  0.3797
19319TIP3    H179448   2.556   1.287  17.315  0.1335 -0.2507  0.2422
19319TIP3    H279449   2.520   1.258  17.170 -0.3120  0.7715  0.1460
19320TIP3   OH279450   3.677   2.693  16.199  0.2601 -0.2233 -0.5235
19320TIP3    H179451   3.597   2.735  16.166  0.4924  0.0303 -0.7792
19320TIP3    H279452   3.659   2.600  16.195 -0.7583 -0.1306  1.3002
19321TIP3   OH279453   0.318   6.310  15.913 -0.3149 -0.1494 -0.3355
19321TIP3    H179454   0.227   6.312  15.884 -0.8531 -0.1143  1.3267
19321TIP3    H279455   0.336   6.400  15.940  0.1744 -0.1848 -0.5432
19322TIP3   OH279456   1.204   2.460   1.934  0.2981  0.2951 -0.1110
19322TIP3    H179457   1.298   2.477   1.935  0.2981  0.3286 -0.6096
19322TIP3    H279458   1.180   2.453   2.026  1.1916 -1.9336 -0.0193
19323TIP3   OH279459   0.892   0.305  11.961  0.1391 -0.4566 -0.1958
19323TIP3    H179460   0.847   0.228  11.996 -2.2676  0.7685 -0.4949
19323TIP3    H279461   0.851   0.320  11.876  0.6719  1.1046 -0.1872
19324TIP3   OH279462   3.447   2.962  12.525  0.1975  0.2565 -0.5464
19324TIP3    H179463   3.483   2.874  12.531 -1.4852 -0.3818  0.3624
19324TIP3    H279464   3.418   2.970  12.434 -0.4852 -0.4581 -0.3885
19325TIP3   OH279465   3.534   4.482  14.900  0.8308 -0.6850  0.8882
19325TIP3    H179466   3.627   4.488  14.921  0.4852  1.6733  1.8968
19325TIP3    H279467   3.495   4.432  14.972  1.4281 -2.4579  0.0107
19326TIP3   OH279468   3.400   4.902   3.227  0.6112 -0.3377  0.1854
19326TIP3    H179469   3.488   4.936   3.208 -0.4923  1.3969 -2.2177
19326TIP3    H279470   3.380   4.845   3.153 -1.4249  1.6783 -0.8853
19327TIP3   OH279471   6.222   0.994   4.683 -0.3124  0.1206  0.0280
19327TIP3    H179472   6.317   1.002   4.693 -0.3174 -0.9678  0.9263
19327TIP3    H279473   6.206   1.025   4.593  0.6822  1.9261  0.4300
19328TIP3   OH279474   2.343   3.609   1.463 -0.2335  0.3489  0.4414
19328TIP3    H179475   2.421   3.586   1.413  0.1185  1.0573  0.6676
19328TIP3    H279476   2.278   3.542   1.438  0.3781 -0.1228  0.1133
19329TIP3   OH279477   5.833   3.891  13.637  0.4103  0.3098 -0.5350
19329TIP3    H179478   5.845   3.879  13.731 -2.0100 -0.3741 -0.2628
19329TIP3    H279479   5.792   3.977  13.629  0.6373  0.3759 -0.9472
19330TIP3   OH279480   5.441   3.254  12.708 -0.1964  0.1984  0.1726
19330TIP3    H179481   5.388   3.254  12.628 -1.8539 -1.1819  1.2346
19330TIP3    H279482   5.521   3.300  12.683 -0.9463  0.3670 -2.1004
19331TIP3   OH279483   6.553   1.266   3.846 -0.1847 -0.1182 -0.4963
19331TIP3    H179484   6.465   1.275   3.811 -0.4953  1.4086  0.6417
19331TIP3    H279485   6.551   1.310   3.931  1.3119 -1.2575  0.1732
19332TIP3   OH279486   1.670   2.345   1.545  0.4479  0.1625 -0.5090
19332TIP3    H179487   1.616   2.407   1.495  0.7122  0.1580 -0.8055
19332TIP3    H279488   1.650   2.259   1.508  0.6207  0.1553 -0.5892
19333TIP3   OH279489   1.158   6.415   4.804 -0.6712  0.0404  0.5824
19333TIP3    H179490   1.158   6.341   4.865 -2.2505 -0.9404 -0.5747
19333TIP3    H279491   1.090   6.474   4.838 -0.7348  0.0555  0.4287
19334TIP3   OH279492   4.814   0.845  16.773 -0.6854  0.0725 -0.2173
19334TIP3    H179493   4.784   0.875  16.687 -0.4303  0.2567 -0.2423
19334TIP3    H279494   4.821   0.925  16.825  0.2596  0.0915 -0.3690
19335TIP3   OH279495   1.530   3.322  15.748  0.3571  0.4832  0.1074
19335TIP3    H179496   1.462   3.301  15.813 -0.6792  0.1388 -1.0747
19335TIP3    H279497   1.551   3.237  15.708  2.3764  0.3857  1.3071
19336TIP3   OH279498   1.126   4.412   4.882  0.2348 -1.0207 -0.1340
19336TIP3    H179499   1.072   4.363   4.819 -0.2804 -0.6400  0.0132
19336TIP3    H279500   1.145   4.348   4.951 -0.1455 -1.1129 -0.1142
19337TIP3   OH279501   0.219   4.061   3.840  0.0856 -0.4548  0.2277
19337TIP3    H179502   0.206   4.073   3.935 -1.5015  1.2977 -0.1702
19337TIP3    H279503   0.135   4.088   3.802  1.4527  0.9791 -1.8150
19338TIP3   OH279504   4.692   0.141   1.782 -0.4938  0.0266  0.4116
19338TIP3    H179505   4.626   0.200   1.818 -1.0090 -0.1410 -0.2668
19338TIP3    H279506   4.656   0.053   1.795 -2.1279  0.0795 -3.3483
19339TIP3   OH279507   1.272   6.221   2.068  0.8030 -0.0170 -0.1667
19339TIP3    H179508   1.224   6.260   1.994  1.5463  1.7003  0.2473
19339TIP3    H279509   1.362   6.215   2.038  0.8209 -0.8093  0.0286
19340TIP3   OH279510   1.715   6.346   2.351  0.0536  0.0037 -0.1500
19340TIP3    H179511   1.787   6.405   2.374  1.2842 -2.1192  1.5882
19340TIP3    H279512   1.642   6.405   2.331  1.1372  2.1347  1.8910
19341TIP3   OH279513   3.029   3.282  15.905 -0.2308 -0.3156  0.1006
19341TIP3    H179514   3.100   3.247  15.850  0.9478  1.1788  0.6273
19341TIP3    H279515   2.967   3.210  15.912 -0.7154 -0.3646 -3.6844
19342TIP3   OH279516   0.517   6.545  11.572 -0.8122 -0.4608  0.1535
19342TIP3    H179517   0.422   6.557  11.567 -0.9510 -1.3776  0.5806
19342TIP3    H279518   0.543   6.522  11.483 -1.0301 -0.5093  0.1019
19343TIP3   OH279519   3.543   5.761  16.231  0.1154 -0.1653 -0.3482
19343TIP3    H179520   3.558   5.855  16.220 -2.5056  0.4428  0.6316
19343TIP3    H279521   3.481   5.738  16.162  0.4830 -1.0963 -0.3757
19344TIP3   OH279522   4.139   2.373   1.124 -0.3827 -0.2873  0.2462
19344TIP3    H179523   4.162   2.460   1.158  0.6794  0.1782 -1.5721
19344TIP3    H279524   4.204   2.357   1.055 -1.2891 -2.0173 -0.2222
19345TIP3   OH279525   3.042   5.498  12.040 -0.2884 -0.0421 -0.1170
19345TIP3    H179526   3.032   5.543  11.956 -0.8412 -0.0344 -0.0479
19345TIP3    H279527   2.964   5.521  12.090 -0.0015 -0.1144  0.3713
19346TIP3   OH279528   2.575   2.378  13.076  0.0834 -0.4549  0.2598
19346TIP3    H179529   2.488   2.418  13.067  0.8111  0.6221 -2.3777
19346TIP3    H279530   2.628   2.445  13.119 -0.2968 -0.9864  1.5666
19347TIP3   OH279531   6.389   4.890   3.192  0.0739  0.3233  0.2827
19347TIP3    H179532   6.334   4.897   3.114 -0.0328  0.6360  0.3844
19347TIP3    H279533   6.358   4.809   3.235  2.1652 -1.5081 -1.5409
19348TIP3   OH279534   0.725   3.238   1.310  0.3482  0.0943 -0.2845
19348TIP3    H179535   0.794   3.181   1.344  0.9287 -0.2112 -1.9172
19348TIP3    H279536   0.700   3.293   1.384  0.9015 -1.2018  0.8780
19349TIP3   OH279537   1.988   3.741  13.176  0.0363  0.4275  0.4957
19349TIP3    H179538   2.029   3.821  13.209  0.8642 -1.0549  3.1856
19349TIP3    H279539   1.928   3.714  13.245 -3.6591  1.0879 -2.2454
19350TIP3   OH279540   3.992   5.862  12.811  0.0423 -0.0673 -0.0247
19350TIP3    H179541   3.900   5.847  12.834 -0.0599 -0.1557 -0.4879
19350TIP3    H279542   4.006   5.812  12.731  0.7825 -0.8950  0.6116
19351TIP3   OH279543   0.573   2.911  13.515 -0.0728 -0.1755  0.8025
19351TIP3    H179544   0.588   2.912  13.609  1.6269  0.3917  0.5417
19351TIP3    H279545   0.478   2.920  13.505 -0.3197 -0.8941  2.4615
19352TIP3   OH279546   6.059   2.926   4.489 -0.0691 -0.3277 -0.5400
19352TIP3    H179547   6.034   2.978   4.413 -2.7004  0.1831  0.5933
19352TIP3    H279548   6.110   2.853   4.453 -2.1537 -0.6910 -2.9381
19353TIP3   OH279549   5.096   5.837  11.299 -0.3664 -0.1201  0.1727
19353TIP3    H179550   5.048   5.795  11.370  2.2786 -0.2457  1.9572
19353TIP3    H279551   5.166   5.775  11.276  1.3099  1.6463  0.3039
19354TIP3   OH279552   0.927   2.079  17.249 -0.0363  0.2964  0.2506
19354TIP3    H179553   0.974   2.130  17.315 -0.7493 -0.3882  1.3186
19354TIP3    H279554   0.966   2.105  17.166  0.3519  1.7621  0.8734
19355TIP3   OH279555   2.330   6.508  16.493 -0.1398 -0.5295 -0.3173
19355TIP3    H179556   2.235   6.516  16.504 -0.0686 -2.0479  1.6473
19355TIP3    H279557   2.362   6.598  16.489 -1.4283  0.0234  1.3026
19356TIP3   OH279558   5.645   5.341   2.266 -0.1836 -0.4551  0.5123
19356TIP3    H179559   5.709   5.272   2.252 -0.8353 -0.8102 -0.7700
19356TIP3    H279560   5.568   5.314   2.216 -0.4894  1.1134  0.0840
19357TIP3   OH279561   1.349   5.892   5.733  0.2434  0.0601  0.0230
19357TIP3    H179562   1.410   5.942   5.678 -0.9040 -1.9656 -3.2621
19357TIP3    H279563   1.404   5.829   5.779  1.1489  1.3423  0.7420
19358TIP3   OH279564   0.357   4.492   0.639  0.4774 -0.4865  0.1720
19358TIP3    H179565   0.412   4.560   0.601  0.8135  0.0990  1.6582
19358TIP3    H279566   0.400   4.410   0.616  2.7016  0.0043  2.3517
19359TIP3   OH279567   3.712   5.451   2.499  0.6440 -0.2217  0.5341
19359TIP3    H179568   3.680   5.373   2.453 -3.4220 -0.0340  2.8016
19359TIP3    H279569   3.683   5.524   2.444 -1.4861 -0.1197  1.7374
19360TIP3   OH279570   2.886   5.557  14.859 -0.4756  0.4830 -0.6258
19360TIP3    H179571   2.963   5.540  14.806  0.0877  0.7439  0.1057
19360TIP3    H279572   2.846   5.471  14.872  1.3266 -0.0653  1.4906
19361TIP3   OH279573   2.008   0.058   4.529 -0.5078  0.0913  0.1711
19361TIP3    H179574   1.939  -0.006   4.544 -0.0957  0.2057  2.8432
19361TIP3    H279575   1.989   0.129   4.591  1.2238  0.7283  0.0112
19362TIP3   OH279576   2.054   0.817   0.651 -0.0316 -0.2347  0.1396
19362TIP3    H179577   2.056   0.864   0.735  0.1812 -2.2633  1.3127
19362TIP3    H279578   2.081   0.728   0.674 -1.5065 -1.2027 -1.8349
19363TIP3   OH279579   0.587   4.548   2.810 -0.1574 -0.2411 -0.9518
19363TIP3    H179580   0.558   4.623   2.863 -0.4000 -1.1783  0.2714
19363TIP3    H279581   0.658   4.582   2.756 -0.8539  1.0864 -1.0477
19364TIP3   OH279582   4.366   0.495   0.430 -0.2779 -0.4348  0.1102
19364TIP3    H179583   4.443   0.507   0.374 -0.5225 -0.9461 -0.3427
19364TIP3    H279584   4.323   0.580   0.432  0.1455 -0.2247  0.1277
19365TIP3   OH279585   1.665   5.064   0.403  0.4690 -0.8272  0.1088
19365TIP3    H179586   1.748   5.029   0.371  0.3444  0.1522 -1.3610
19365TIP3    H279587   1.689   5.124   0.474  1.2771  1.4135 -1.9832
19366TIP3   OH279588   6.365   6.661  14.033 -0.3382  0.0047 -0.7591
19366TIP3    H179589   6.408   6.715  13.967 -0.0264 -0.4300 -0.9089
19366TIP3    H279590   6.271   6.675  14.018 -0.2612  0.2802 -0.9820
19367TIP3   OH279591   2.814   6.421  13.191  0.3404  0.7801 -0.0470
19367TIP3    H179592   2.830   6.410  13.284 -0.3707  1.6257  0.1795
19367TIP3    H279593   2.788   6.512  13.181  0.0948  0.6144 -1.0259
19368TIP3   OH279594   0.675   3.563   6.037 -0.2401  0.1885 -0.0082
19368TIP3    H179595   0.611   3.634   6.043  1.2745  1.6078 -0.2487
19368TIP3    H279596   0.670   3.518   6.121  0.3131  1.9268  0.9621
19369TIP3   OH279597   1.355   4.448   3.233  0.1847  0.4175  0.3187
19369TIP3    H179598   1.357   4.356   3.206  0.5119  1.3332 -2.9456
19369TIP3    H279599   1.290   4.450   3.304  0.6620 -2.4186  0.9213
19370TIP3   OH279600   1.567   1.786  11.049 -0.6109  0.5652 -0.1376
19370TIP3    H179601   1.510   1.715  11.022 -1.5039  1.4121 -0.5245
19370TIP3    H279602   1.537   1.862  10.999  0.9808  0.9871 -0.4906
19371TIP3   OH279603   1.512   2.686  15.044  0.2009 -0.3070 -0.3955
19371TIP3    H179604   1.605   2.706  15.042  0.1775 -0.0225  0.9801
19371TIP3    H279605   1.469   2.772  15.052 -0.1876 -0.4350 -1.0196
19372TIP3   OH279606   3.775   3.299  13.023  0.7838 -0.0070 -0.1179
19372TIP3    H179607   3.866   3.277  13.002  1.2796  0.5072  1.4605
19372TIP3    H279608   3.734   3.317  12.938  2.7404  2.0433 -0.6634
19373TIP3   OH279609   0.102   0.268  14.541 -0.1646 -0.3922  0.5980
19373TIP3    H179610   0.147   0.327  14.602  0.9371 -1.3610  0.7450
19373TIP3    H279611   0.048   0.213  14.598  0.8970 -1.3256  0.7288
19374TIP3   OH279612   6.202   2.061   0.934  0.7891  0.2939 -0.2618
19374TIP3    H179613   6.173   1.984   0.982  2.0635 -0.5698 -0.8330
19374TIP3    H279614   6.242   2.117   1.000  0.5090  0.1317  0.0440
19375TIP3   OH279615   6.702   0.879  15.002  0.4123  0.0904  0.2230
19375TIP3    H179616   6.624   0.920  15.037  0.1209 -0.2543 -0.0175
19375TIP3    H279617   6.760   0.867  15.078 -0.3644 -0.9998  0.6509
19376TIP3   OH279618   3.192   3.142   6.132  0.0399  0.2418  0.7760
19376TIP3    H179619   3.232   3.153   6.219 -0.1237 -2.5566  1.2592
19376TIP3    H279620   3.110   3.095   6.150  0.8703 -1.9472 -1.0697
19377TIP3   OH279621   2.682   6.430  11.366  0.4423 -0.1019  0.0077
19377TIP3    H179622   2.703   6.349  11.321 -2.0911  0.3859 -2.1983
19377TIP3    H279623   2.610   6.408  11.424 -0.1481  0.5003 -0.4782
19378TIP3   OH279624   5.635   3.827  11.537  0.8342  0.8090  0.0530
19378TIP3    H179625   5.677   3.843  11.453  1.2511 -0.2914  0.0451
19378TIP3    H279626   5.650   3.907  11.587  5.5182 -0.5987  1.1180
19379TIP3   OH279627   4.114   1.224  15.787 -0.1995  0.2269  0.1507
19379TIP3    H179628   4.126   1.298  15.847 -0.7131  1.0472 -0.7461
19379TIP3    H279629   4.158   1.251  15.706  0.3825 -0.8208  0.1051
19380TIP3   OH279630   2.541   6.009   2.936  0.4573  0.8073 -0.1804
19380TIP3    H179631   2.538   5.967   2.851 -2.3033  0.9867 -0.2107
19380TIP3    H279632   2.609   5.961   2.984  1.6338  0.3402 -2.2380
19381TIP3   OH279633   6.222   4.529  14.198 -1.1799 -0.2594  0.3893
19381TIP3    H179634   6.269   4.490  14.272  0.9742 -0.6945 -1.1627
19381TIP3    H279635   6.137   4.485  14.198 -0.1207 -2.4203  0.8560
19382TIP3   OH279636   5.888   1.049   4.680  0.1965 -0.8773 -0.6222
19382TIP3    H179637   5.946   0.981   4.712  0.2235 -1.1939 -1.3276
19382TIP3    H279638   5.874   1.027   4.588  1.0570  0.6632 -1.1456
19383TIP3   OH279639   6.730   1.854  13.686  0.0848 -0.0127  0.2114
19383TIP3    H179640   6.713   1.778  13.630 -1.3320  0.6401 -0.2555
19383TIP3    H279641   6.815   1.887  13.655  0.4444 -1.0702  0.0455
19384TIP3   OH279642   3.887   4.924  16.126 -0.0166 -0.2238 -0.2007
19384TIP3    H179643   3.869   4.836  16.160  2.7001 -0.0237  1.9561
19384TIP3    H279644   3.862   4.982  16.198 -1.8512  0.7965 -1.6404
19385TIP3   OH279645   3.585   2.292  10.948 -0.0829 -0.1383 -0.1823
19385TIP3    H179646   3.504   2.253  10.980  0.3528  0.6868  1.9886
19385TIP3    H279647   3.632   2.220  10.906 -1.2002 -0.9875  0.0026
19386TIP3   OH279648   2.114   6.326  13.235  0.2879  0.5759  0.7968
19386TIP3    H179649   2.043   6.345  13.297  1.7321  1.9296  2.0959
19386TIP3    H279650   2.081   6.356  13.150 -1.0016  0.4632  1.2578
19387TIP3   OH279651   6.125   1.236   5.637  0.1108 -0.1128  0.4970
19387TIP3    H179652   6.030   1.246   5.633  0.0471 -1.1968 -0.7705
19387TIP3    H279653   6.156   1.316   5.680 -1.0953  1.6177 -1.8065
19388TIP3   OH279654   3.668   6.258  13.644 -0.1622 -0.3311 -0.3980
19388TIP3    H179655   3.716   6.225  13.568  1.4986  2.1943 -0.5060
19388TIP3    H279656   3.736   6.276  13.709 -1.4176 -0.9445  1.0991
19389TIP3   OH279657   1.562   0.272   3.508 -0.2050  0.2866 -0.1596
19389TIP3    H179658   1.480   0.299   3.549 -0.3677  0.0324 -0.3128
19389TIP3    H279659   1.593   0.350   3.462 -0.4481  0.3374 -0.2398
19390TIP3   OH279660   5.782   3.676   0.358  0.5140  0.4641 -0.1046
19390TIP3    H179661   5.819   3.719   0.436  0.3208 -0.8437  0.7155
19390TIP3    H279662   5.820   3.588   0.359 -0.7081 -0.0809 -0.6203
19391TIP3   OH279663   2.594   2.954   5.280 -0.2738  0.0422 -0.0728
19391TIP3    H179664   2.640   3.007   5.345 -0.1100  1.7314 -1.5464
19391TIP3    H279665   2.502   2.978   5.291 -0.0954  1.3636 -1.3896
19392TIP3   OH279666   3.396   6.360   5.728  0.0510 -0.7080  0.2967
19392TIP3    H179667   3.387   6.393   5.818 -2.2443  1.8621 -0.8005
19392TIP3    H279668   3.472   6.407   5.693 -0.0947 -0.4181  0.3651
19393TIP3   OH279669   2.432   6.297   1.796  0.2310  0.4154 -0.1156
19393TIP3    H179670   2.503   6.247   1.837 -1.4564 -0.4817  1.7685
19393TIP3    H279671   2.457   6.302   1.704  3.0821  0.6982  0.6056
19394TIP3   OH279672   3.754   3.480   4.815  0.3036 -0.7309 -0.5445
19394TIP3    H179673   3.837   3.521   4.790  0.5124  0.0403  1.3632
19394TIP3    H279674   3.768   3.386   4.802  1.5391 -0.6161 -0.0628
19395TIP3   OH279675   6.419   5.645  14.166  0.0498 -0.3677  0.6926
19395TIP3    H179676   6.373   5.567  14.197  1.2537 -3.0101 -3.7279
19395TIP3    H279677   6.508   5.616  14.149  0.9050  2.3401  0.3362
19396TIP3   OH279678   3.647   3.031  14.027  0.2994  0.7142  0.0469
19396TIP3    H179679   3.580   2.971  14.060  1.2210 -0.4730 -0.2077
19396TIP3    H279680   3.680   2.989  13.948 -0.3788  2.4938 -1.2224
19397TIP3   OH279681   4.476   0.049   1.057 -0.4949  0.6634  0.4758
19397TIP3    H179682   4.517   0.018   1.138 -2.1477 -0.5080  0.8734
19397TIP3    H279683   4.521   0.000   0.988  0.2305  0.9365  0.7474
19398TIP3   OH279684   1.755   0.972   1.969 -0.3015 -0.2258  0.3854
19398TIP3    H179685   1.726   1.062   1.986 -0.8859 -0.1702 -0.8231
19398TIP3    H279686   1.735   0.924   2.049  0.5360  0.8528  1.2480
19399TIP3   OH279687   2.930   4.008  14.423 -0.5036  0.0267  0.0268
19399TIP3    H179688   2.959   4.016  14.332 -2.6492 -1.6179 -0.8514
19399TIP3    H279689   2.960   3.921  14.450 -0.2253  0.3463  0.7417
19400TIP3   OH279690   3.535   4.586  12.680  0.6270 -0.2964  0.7343
19400TIP3    H179691   3.548   4.680  12.696 -1.6460 -0.1296  1.7677
19400TIP3    H279692   3.499   4.552  12.762  0.1970 -1.8247 -0.0708
19401TIP3   OH279693   4.664   0.406   0.892 -0.1841  0.1837 -0.6390
19401TIP3    H179694   4.737   0.345   0.880  0.3178  0.3112  1.4940
19401TIP3    H279695   4.607   0.363   0.956 -0.8633  1.0739 -0.6284
19402TIP3   OH279696   1.172   3.971   3.346 -0.0080 -0.1548  0.0039
19402TIP3    H179697   1.197   3.963   3.254  4.3834 -0.2050  1.0978
19402TIP3    H279698   1.171   3.882   3.379  1.5649  0.0874  0.7386
19403TIP3   OH279699   0.883   0.845   1.922  0.2840  0.0248  0.6622
19403TIP3    H179700   0.874   0.761   1.876  0.2695 -0.0315  0.7691
19403TIP3    H279701   0.809   0.897   1.891 -0.0797 -0.2317  1.0997
19404TIP3   OH279702   2.590   0.184  15.444 -0.1858 -0.4090  0.2215
19404TIP3    H179703   2.578   0.251  15.512  1.1241 -0.0351  0.1035
19404TIP3    H279704   2.580   0.101  15.491 -1.3019 -0.1386  0.4735
19405TIP3   OH279705   5.134   6.092  11.196  0.0785 -0.1056  0.3580
19405TIP3    H179706   5.084   6.161  11.241  0.3949  0.0036  0.5380
19405TIP3    H279707   5.113   6.013  11.246 -0.3689 -0.1626  0.0847
19406TIP3   OH279708   5.514   3.063  16.810  0.5869 -0.1789  0.3944
19406TIP3    H179709   5.543   3.051  16.720  0.2038  0.4262  0.1914
19406TIP3    H279710   5.526   2.977  16.851 -0.4546 -0.8042 -0.5859
19407TIP3   OH279711   3.800   5.316  16.258  0.6230 -0.8161 -0.4253
19407TIP3    H179712   3.797   5.297  16.165 -0.1702 -1.1856 -0.3244
19407TIP3    H279713   3.852   5.245  16.296  4.3723  1.4170 -1.0995
19408TIP3   OH279714   4.331   4.280  12.979  0.4547  0.2962  0.6284
19408TIP3    H179715   4.333   4.203  13.037  0.1951  0.1696  0.4684
19408TIP3    H279716   4.255   4.330  13.007  0.4163  0.3133  0.4926
19409TIP3   OH279717   2.566   5.470  16.787  0.1210  0.1429  0.1644
19409TIP3    H179718   2.489   5.448  16.734 -0.2538 -0.6281  1.0200
19409TIP3    H279719   2.636   5.483  16.723 -0.4758 -0.1632 -0.5610
19410TIP3   OH279720   0.285   3.723  15.131 -0.1848 -0.3157  0.3946
19410TIP3    H179721   0.222   3.752  15.066  1.1447  0.9764 -0.3295
19410TIP3    H279722   0.323   3.803  15.167  0.6936 -1.0562  1.1731
19411TIP3   OH279723   5.712   4.757   0.222  0.3275 -0.5354 -0.2588
19411TIP3    H179724   5.685   4.696   0.153 -0.6385  0.1555 -0.5175
19411TIP3    H279725   5.776   4.709   0.274 -2.2746 -2.6920  1.0933
19412TIP3   OH279726   4.223   3.381  13.220 -0.6344 -0.3404 -0.4838
19412TIP3    H179727   4.308   3.408  13.256 -0.8455  0.7369 -0.7797
19412TIP3    H279728   4.187   3.321  13.285  1.7365 -3.3346 -1.7682
19413TIP3   OH279729   1.896   4.626  12.613  0.1208  0.8732 -0.0522
19413TIP3    H179730   1.913   4.689  12.543 -0.7235  1.3127  0.1379
19413TIP3    H279731   1.827   4.569  12.578  1.6999 -0.7076 -0.6937
19414TIP3   OH279732   0.193   3.100  10.786  0.2321  0.4555  0.0556
19414TIP3    H179733   0.205   3.091  10.692  0.8011 -0.2015  0.1863
19414TIP3    H279734   0.109   3.145  10.795  0.5273  1.1736 -0.7757
19415TIP3   OH279735   0.264   0.879   2.176  0.2105  0.8325  0.8217
19415TIP3    H179736   0.304   0.961   2.206  2.6600 -0.4124  1.0433
19415TIP3    H279737   0.325   0.844   2.112 -0.1516 -1.4838  1.6892
19416TIP3   OH279738   5.018   2.113  13.917 -0.1396 -0.0896  0.0817
19416TIP3    H179739   5.083   2.168  13.873 -1.0267  0.0257 -1.1275
19416TIP3    H279740   5.058   2.027  13.922  0.8035  0.3998  0.9424
19417TIP3   OH279741   6.337   4.698   4.354  0.5216 -0.3039  0.5908
19417TIP3    H179742   6.253   4.654   4.337  0.6952 -0.6080  0.5093
19417TIP3    H279743   6.362   4.668   4.441  0.8076 -0.6350  0.3960
19418TIP3   OH279744   4.204   3.739   2.772 -0.0373 -0.3375 -0.5171
19418TIP3    H179745   4.236   3.696   2.693 -0.6114 -0.4897 -0.6645
19418TIP3    H279746   4.137   3.801   2.742  1.2846  1.1966 -0.3876
19419TIP3   OH279747   5.705   2.493  12.725 -0.3328 -0.2120 -0.1630
19419TIP3    H179748   5.742   2.554  12.789 -1.1628 -0.8281  0.9127
19419TIP3    H279749   5.641   2.545  12.677  1.1454  0.5818 -1.3462
19420TIP3   OH279750   3.632   1.439   2.419 -0.3720 -0.3233  0.1522
19420TIP3    H179751   3.699   1.406   2.479  0.3226 -1.5060 -1.2504
19420TIP3    H279752   3.568   1.367   2.414 -1.7645  0.7900  1.4812
19421TIP3   OH279753   4.657   1.050  12.595 -0.4588 -0.1239  0.1860
19421TIP3    H179754   4.746   1.020  12.612 -0.0197  0.1818 -1.4173
19421TIP3    H279755   4.636   1.014  12.508 -2.3002 -1.0880  0.9977
19422TIP3   OH279756   6.389   1.443  11.339  0.2813  0.2403 -0.1877
19422TIP3    H179757   6.389   1.348  11.346 -0.7596  0.2715  0.2211
19422TIP3    H279758   6.343   1.461  11.258 -0.5332  0.4339  0.3120
19423TIP3   OH279759   4.677   0.093   2.158  0.1489 -0.3499  0.1950
19423TIP3    H179760   4.699   0.033   2.087  0.0149 -1.7209  1.3079
19423TIP3    H279761   4.703   0.047   2.238 -1.1994  0.5135  1.1413
19424TIP3   OH279762   0.298   3.044   5.218  0.0116  0.3182  0.8240
19424TIP3    H179763   0.283   3.117   5.158  1.0908 -0.4431 -0.3844
19424TIP3    H279764   0.302   3.084   5.304 -0.8417  1.5139  0.3161
19425TIP3   OH279765   1.218   3.713  12.606  0.2249 -0.1100  0.4093
19425TIP3    H179766   1.138   3.761  12.584 -0.7767 -1.2636  1.3812
19425TIP3    H279767   1.284   3.781  12.620 -0.6923  0.8884 -0.0143
19426TIP3   OH279768   4.076   5.128   2.120  0.2338 -0.2361 -0.4842
19426TIP3    H179769   4.101   5.093   2.035  0.1827 -0.0589 -0.5728
19426TIP3    H279770   4.158   5.155   2.160  0.2605 -0.3376 -0.4691
19427TIP3   OH279771   2.299   6.171   1.551 -0.6204 -0.1303  0.1578
19427TIP3    H179772   2.275   6.263   1.537  1.0027  0.1477 -0.8575
19427TIP3    H279773   2.215   6.125   1.556 -1.4424  1.3915  0.5578
19428TIP3   OH279774   1.638   1.789   4.467  0.3638  0.0631 -0.1736
19428TIP3    H179775   1.679   1.860   4.417 -0.8799  0.7836 -0.1961
19428TIP3    H279776   1.685   1.710   4.441  0.3852  0.5731 -1.7273
19429TIP3   OH279777   4.737   2.207   1.116 -0.0713  0.0024 -0.1084
19429TIP3    H179778   4.675   2.135   1.102 -0.1451  0.0200  0.1264
19429TIP3    H279779   4.772   2.192   1.204 -0.0345  0.2142 -0.0863
19430TIP3   OH279780   0.747   3.389   0.559  0.6292  0.0301  0.2041
19430TIP3    H179781   0.731   3.380   0.465 -0.3920 -0.0604  0.3756
19430TIP3    H279782   0.691   3.322   0.598  1.7301 -0.5408  0.8272
19431TIP3   OH279783   4.320   2.982   1.292  0.7165  0.1021 -0.4965
19431TIP3    H179784   4.267   2.975   1.371  1.5739 -1.6894 -0.0486
19431TIP3    H279785   4.257   2.994   1.221 -0.2519 -1.1790  0.1350
19432TIP3   OH279786   2.344   6.258  12.256  0.9230  0.6363 -0.0135
19432TIP3    H179787   2.334   6.201  12.333 -0.4918  2.0208  0.8567
19432TIP3    H279788   2.279   6.328  12.270  0.2223  0.5679 -2.7739
19433TIP3   OH279789   2.688   3.038   1.152 -0.4027  0.1253  0.2426
19433TIP3    H179790   2.708   3.119   1.200 -0.8433  0.6015 -0.3667
19433TIP3    H279791   2.619   2.996   1.204  0.0039  0.0150  0.6931
19434TIP3   OH279792   5.578   2.785   4.251  0.1005 -0.0565  0.3034
19434TIP3    H179793   5.527   2.751   4.324  0.7705 -0.6161  0.5087
19434TIP3    H279794   5.666   2.799   4.286  0.0119  1.2630  0.0475
19435TIP3   OH279795   3.841   1.376   0.618 -0.6220  0.6333  0.7238
19435TIP3    H179796   3.837   1.453   0.562  0.4623 -0.5518 -1.0446
19435TIP3    H279797   3.814   1.407   0.704 -0.4621  2.9090 -0.0200
19436TIP3   OH279798   6.146   1.255   2.428 -0.1110  0.0145 -0.5770
19436TIP3    H179799   6.151   1.337   2.380 -3.1462  0.1789 -0.7201
19436TIP3    H279800   6.134   1.281   2.519  0.2523 -0.2933 -0.4380
19437TIP3   OH279801   4.021   5.129   6.381  0.6413 -0.6934  0.3637
19437TIP3    H179802   3.982   5.090   6.460  0.9854  0.7523  1.2519
19437TIP3    H279803   4.114   5.106   6.387  0.7238 -0.3085  0.5391
19438TIP3   OH279804   4.684   4.175  12.715 -0.5474 -0.1201 -0.0051
19438TIP3    H179805   4.737   4.139  12.644 -0.7814 -1.0853  0.3133
19438TIP3    H279806   4.651   4.258  12.680  0.1901 -0.0821 -0.6420
19439TIP3   OH279807   5.381   3.674   2.012  1.0500 -1.0264 -0.1781
19439TIP3    H179808   5.363   3.604   1.949  1.5718 -0.0064 -1.4851
19439TIP3    H279809   5.337   3.751   1.975  1.0845 -0.4834  0.8829
19440TIP3   OH279810   2.525   6.031   1.666  0.6979 -0.2636 -0.4051
19440TIP3    H179811   2.445   6.072   1.633  1.2940  1.4563  0.2175
19440TIP3    H279812   2.573   6.006   1.588  0.8151  1.2182 -0.8144
19441TIP3   OH279813   4.749   2.954  16.920  0.2052 -0.3388 -0.2500
19441TIP3    H179814   4.718   3.034  16.965 -1.1999  0.1504 -2.0184
19441TIP3    H279815   4.740   2.885  16.986  0.0761  0.6993  0.8539
19442TIP3   OH279816   4.183   1.635  10.774 -0.5216 -0.6251 -0.0382
19442TIP3    H179817   4.166   1.684  10.693 -0.2943 -1.3725 -0.5441
19442TIP3    H279818   4.107   1.579  10.784 -0.1475 -1.1654 -0.2088
19443TIP3   OH279819   0.540   2.426   0.368 -0.4240  0.1039 -0.0997
19443TIP3    H179820   0.470   2.368   0.338 -1.1048  1.4212 -1.1608
19443TIP3    H279821   0.505   2.514   0.354  1.5234  0.7972 -0.8640
19444TIP3   OH279822   5.466   1.387   3.711 -0.2095 -0.0970 -0.1664
19444TIP3    H179823   5.480   1.303   3.669 -1.6388  0.0935 -1.0315
19444TIP3    H279824   5.447   1.447   3.639 -1.2121  0.5395  0.6207
19445TIP3   OH279825   5.614   6.723  11.158  0.0980  0.0113  0.4147
19445TIP3    H179826   5.682   6.790  11.155 -0.4889  0.6144  0.1882
19445TIP3    H279827   5.574   6.725  11.071  0.2338 -0.8075  0.3314
19446TIP3   OH279828   0.544   6.517  15.713  0.0930  0.4023 -0.2135
19446TIP3    H179829   0.450   6.531  15.711 -0.3096 -2.0128 -0.2679
19446TIP3    H279830   0.572   6.528  15.622 -0.1867  0.8559 -0.2424
19447TIP3   OH279831   0.549   6.089   3.598  0.1986  0.5546  0.3094
19447TIP3    H179832   0.631   6.114   3.555 -0.2822 -1.5151 -1.9253
19447TIP3    H279833   0.571   6.009   3.646 -0.3105  0.4640  0.3929
19448TIP3   OH279834   4.272   5.954   0.891  0.0036  0.1858  0.0028
19448TIP3    H179835   4.313   5.908   0.964 -0.2196  1.2057  0.7860
19448TIP3    H279836   4.184   5.976   0.924 -0.3463  0.0373 -0.8266
19449TIP3   OH279837   1.940   2.521   3.706  0.4490 -0.0617  0.0468
19449TIP3    H179838   1.935   2.511   3.801 -0.8966  0.2909  0.0314
19449TIP3    H279839   1.985   2.604   3.692 -1.9286  1.3720  0.4636
19450TIP3   OH279840   5.699   5.069   3.187 -0.6773  0.0670 -0.1727
19450TIP3    H179841   5.734   5.003   3.246  1.3224 -1.0991 -2.5612
19450TIP3    H279842   5.632   5.023   3.136  0.7413 -0.1598 -1.8636
19451TIP3   OH279843   2.818   4.394   6.846 -0.1004 -1.0301  0.8788
19451TIP3    H179844   2.742   4.441   6.880  0.0272 -0.9054  0.9957
19451TIP3    H279845   2.857   4.455   6.783 -0.2951 -1.2312  0.5651
19452TIP3   OH279846   5.722   2.513  12.086  0.0082 -0.0903  0.8510
19452TIP3    H179847   5.635   2.518  12.126 -0.0476  1.2689  0.5788
19452TIP3    H279848   5.705   2.485  11.996 -0.1517  0.0945  0.8216
19453TIP3   OH279849   6.302   5.437  16.272 -0.2961  0.2365 -0.2531
19453TIP3    H179850   6.238   5.450  16.201 -3.1598 -2.5130  1.6890
19453TIP3    H279851   6.358   5.367  16.240  0.9619  1.7506 -1.4217
19454TIP3   OH279852   6.243   6.016   4.460  0.1162 -0.1534 -0.2676
19454TIP3    H179853   6.274   6.033   4.371 -0.0698 -0.5592 -0.4108
19454TIP3    H279854   6.262   5.924   4.475  0.5044  0.0111  0.2593
19455TIP3   OH279855   1.901   3.902   1.742  0.3943 -0.0999 -0.1458
19455TIP3    H179856   1.887   3.917   1.649  1.1825 -0.5439 -0.3430
19455TIP3    H279857   1.884   3.986   1.784 -2.3985 -0.4872 -0.4113
19456TIP3   OH279858   5.955   6.779   0.420 -0.1965 -0.0814  0.4143
19456TIP3    H179859   5.945   6.684   0.411 -2.8721  0.1287  0.8187
19456TIP3    H279860   5.928   6.797   0.510 -0.6812  1.1829  0.0156
19457TIP3   OH279861   4.207   1.896  11.317 -0.1989 -0.7578 -0.4303
19457TIP3    H179862   4.158   1.819  11.346 -1.5122 -0.0163 -0.6646
19457TIP3    H279863   4.150   1.940  11.254  0.1993  0.8614  0.2999
19458TIP3   OH279864   6.043   3.129   1.523  0.0787  0.0926 -0.2088
19458TIP3    H179865   6.009   3.210   1.562 -0.9141 -0.6827  0.5811
19458TIP3    H279866   6.033   3.064   1.592 -0.1894 -0.9532 -1.2244
19459TIP3   OH279867   3.243   6.017   3.692 -0.0768 -0.7303 -0.1315
19459TIP3    H179868   3.224   5.947   3.755 -0.0884 -0.4949  0.1233
19459TIP3    H279869   3.284   6.086   3.743  0.1638 -0.6491 -0.4309
19460TIP3   OH279870   0.805   1.941  12.289 -0.1938 -0.0161  0.3365
19460TIP3    H179871   0.875   1.892  12.246  0.8351  0.4594  1.4177
19460TIP3    H279872   0.770   1.998  12.220 -0.3848 -1.1716 -0.5379
19461TIP3   OH279873   0.412   3.197   2.822 -0.3230  0.2731 -0.1731
19461TIP3    H179874   0.338   3.236   2.775 -0.7896 -0.3017  0.0705
19461TIP3    H279875   0.478   3.266   2.824 -0.5277  0.5136 -1.1323
19462TIP3   OH279876   1.480   3.194   2.466 -0.5294  0.1588 -0.3970
19462TIP3    H179877   1.404   3.138   2.484 -0.9297  0.1896 -1.9533
19462TIP3    H279878   1.536   3.142   2.409 -0.4053  0.9509 -1.0059
19463TIP3   OH279879   1.456   4.767  11.575 -0.4536  0.2311  0.0167
19463TIP3    H179880   1.533   4.750  11.629 -0.7882 -0.4034  0.2930
19463TIP3    H279881   1.434   4.683  11.535 -0.5593  0.5701 -0.6484
19464TIP3   OH279882   2.422   2.333   6.457  0.1772 -0.2606 -0.3965
19464TIP3    H179883   2.352   2.392   6.486  1.1273  0.3953  0.6190
19464TIP3    H279884   2.417   2.258   6.515  1.0761  0.3376  0.4711
19465TIP3   OH279885   3.672   1.446  11.795 -0.3772 -0.4549  0.0743
19465TIP3    H179886   3.609   1.382  11.828 -2.7092  0.0472 -3.1306
19465TIP3    H279887   3.655   1.525  11.847 -1.6653 -0.6583 -0.0163
19466TIP3   OH279888   0.147   0.374  12.519  0.2357  0.0672 -0.2118
19466TIP3    H179889   0.186   0.461  12.519  1.4406 -0.4538 -1.0057
19466TIP3    H279890   0.200   0.323  12.581  0.8109 -0.6308 -1.2555
19467TIP3   OH279891   3.721   2.079  11.169 -0.5383 -0.2666 -0.0070
19467TIP3    H179892   3.741   2.025  11.093  1.3537  1.6840 -0.9649
19467TIP3    H279893   3.659   2.144  11.137 -0.2239  0.1693  0.2533
19468TIP3   OH279894   2.963   5.549   2.579 -0.5054 -0.2712  0.0927
19468TIP3    H179895   3.014   5.575   2.656 -1.1317  0.2944  0.3148
19468TIP3    H279896   3.011   5.474   2.544  0.7492  0.5450  0.0203
19469TIP3   OH279897   3.139   6.453  15.196 -0.0126 -0.3096 -0.6097
19469TIP3    H179898   3.126   6.373  15.246 -0.5326 -0.6599 -1.2850
19469TIP3    H279899   3.068   6.510  15.224  0.2652 -0.1462 -0.2431
19470TIP3   OH279900   5.141   1.092   4.003  0.2995  0.1969  0.1849
19470TIP3    H179901   5.158   1.186   4.010 -0.5432  0.3379  0.3771
19470TIP3    H279902   5.193   1.053   4.073  1.8757  0.3556 -0.8632
19471TIP3   OH279903   1.244   0.471   4.221 -0.6887  0.0331  0.0349
19471TIP3    H179904   1.161   0.441   4.186 -0.5960 -0.3484  0.1428
19471TIP3    H279905   1.222   0.510   4.306 -1.4201  4.0383 -1.8604
19472TIP3   OH279906   3.689   1.639  12.466  0.4906  0.1709  0.1670
19472TIP3    H179907   3.714   1.731  12.456 -0.1483  0.1320 -1.9051
19472TIP3    H279908   3.634   1.620  12.390  0.3014 -1.8275  0.7688
19473TIP3   OH279909   4.692   5.010   1.244 -0.2628  0.0961 -0.0828
19473TIP3    H179910   4.769   5.055   1.208  0.5917 -1.9707 -0.9428
19473TIP3    H279911   4.621   5.075   1.237  0.8547  1.2142 -1.5403
19474TIP3   OH279912   5.240   6.349   0.907  0.0677 -0.2413  0.3075
19474TIP3    H179913   5.148   6.366   0.925  0.2628  0.7859  0.3658
19474TIP3    H279914   5.240   6.268   0.856 -0.7862 -0.8123  1.1931
19475TIP3   OH279915   3.563   5.908  16.961  0.8845  0.0027 -0.1900
19475TIP3    H179916   3.481   5.867  16.989  0.8170  1.0735  1.2343
19475TIP3    H279917   3.542   5.953  16.880  0.1056  0.1143  0.0755
19476TIP3   OH279918   3.579   3.718  13.485 -0.4212  0.0049  0.2823
19476TIP3    H179919   3.555   3.641  13.433 -2.8495  0.0022  1.3620
19476TIP3    H279920   3.649   3.686  13.542  0.3672 -0.7096 -1.0352
19477TIP3   OH279921   5.613   1.838  15.232  0.7611  0.0491  0.3665
19477TIP3    H179922   5.532   1.817  15.185  0.6754  1.9410 -0.3701
19477TIP3    H279923   5.675   1.863  15.162  1.1153  1.3519  1.1345
19478TIP3   OH279924   4.206   1.965  13.202  0.8879  0.0649 -0.2010
19478TIP3    H179925   4.122   1.995  13.168  0.8742 -0.8421 -0.9738
19478TIP3    H279926   4.246   2.043  13.239 -1.2516  0.1043  2.1721
19479TIP3   OH279927   0.389   6.694  15.136  0.1777  0.1605  0.1271
19479TIP3    H179928   0.301   6.720  15.164  0.1270  0.8641 -0.6754
19479TIP3    H279929   0.379   6.602  15.109 -0.2091  0.0979  0.4674
19480TIP3   OH279930   0.019   6.521   2.693 -0.1560  0.0197 -0.2236
19480TIP3    H179931   0.018   6.453   2.625  2.7888 -0.6479  0.3287
19480TIP3    H279932   0.027   6.603   2.645  0.0531 -0.2993 -0.7383
19481TIP3   OH279933   5.389   0.952  16.798 -0.3009  0.2444 -0.6432
19481TIP3    H179934   5.356   0.988  16.880  0.6676 -0.5914  0.1189
19481TIP3    H279935   5.395   0.858  16.814  0.4066  0.1410 -1.4944
19482TIP3   OH279936   1.305   0.447  15.283  0.3358 -0.0317 -0.1148
19482TIP3    H179937   1.268   0.518  15.231  2.0404  0.7257 -0.3245
19482TIP3    H279938   1.343   0.490  15.359 -1.2679 -1.0332  1.2694
19483TIP3   OH279939   5.398   5.176  17.057 -0.2466 -0.2544 -0.3339
19483TIP3    H179940   5.345   5.100  17.036 -0.7692  0.5600 -2.1161
19483TIP3    H279941   5.336   5.241  17.089  0.2042 -0.5894  1.2430
19484TIP3   OH279942   0.478   6.346   3.607 -0.5196  0.6387 -0.0267
19484TIP3    H179943   0.550   6.402   3.580  1.7154 -1.9526  0.3054
19484TIP3    H279944   0.519   6.261   3.623 -3.3649 -0.4312  1.9534
19485TIP3   OH279945   5.361   0.056  16.864 -0.4437 -0.4394  0.6495
19485TIP3    H179946   5.295   0.111  16.906  0.9130  2.0671 -0.3915
19485TIP3    H279947   5.320   0.030  16.781 -0.1234  1.2272 -0.0620
19486TIP3   OH279948   6.527   4.022   3.831  0.4060 -0.0718 -0.4418
19486TIP3    H179949   6.478   4.086   3.780  0.0682  0.2878  0.3188
19486TIP3    H279950   6.478   3.941   3.823 -0.2890  0.2697  0.2629
19487TIP3   OH279951   1.505   0.597   1.936  0.4282  0.0458 -0.1104
19487TIP3    H179952   1.479   0.507   1.917  1.0133 -0.0888 -0.2936
19487TIP3    H279953   1.462   0.618   2.019  1.0567 -0.7332  0.4235
19488TIP3   OH279954   6.651   3.724  11.940  0.2090  0.0402 -0.3059
19488TIP3    H179955   6.588   3.730  11.869  0.1895  0.5401 -0.2468
19488TIP3    H279956   6.691   3.810  11.945 -0.8738  0.4689  1.2839
19489TIP3   OH279957   4.044   1.575   0.265 -0.1224 -0.0768 -0.6661
19489TIP3    H179958   4.138   1.567   0.280 -0.1518 -2.0911 -1.4943
19489TIP3    H279959   4.036   1.603   0.173 -0.2810  2.3979  0.0602
19490TIP3   OH279960   0.753   3.877   4.006 -0.4924 -0.5088 -0.3833
19490TIP3    H179961   0.735   3.971   4.012 -1.8075 -0.7342 -0.7401
19490TIP3    H279962   0.667   3.837   3.993 -0.0289 -1.8290  0.5666
19491TIP3   OH279963   1.120   0.155   2.063 -0.1083  0.0569 -0.4510
19491TIP3    H179964   1.120   0.112   2.148 -0.9675  2.6972  0.9446
19491TIP3    H279965   1.193   0.116   2.016  0.1267 -1.7238  1.3317
19492TIP3   OH279966   1.986   1.363   2.483 -0.3845  0.8687  0.4886
19492TIP3    H179967   1.983   1.380   2.577 -0.2304  0.8038  0.5042
19492TIP3    H279968   2.027   1.442   2.446 -0.5129  0.9264  0.4678
19493TIP3   OH279969   2.514   5.437   2.814 -0.5753  0.2215  0.6558
19493TIP3    H179970   2.494   5.527   2.838 -0.7580  0.4776 -0.4553
19493TIP3    H279971   2.519   5.390   2.898 -2.2835  0.8840  1.1297
19494TIP3   OH279972   6.125   6.581   0.644  0.3414  0.0493 -0.1446
19494TIP3    H179973   6.166   6.631   0.715  0.5984  0.1724 -0.3777
19494TIP3    H279974   6.175   6.605   0.566 -0.5363  0.6110 -0.5292
19495TIP3   OH279975   1.369   0.485   3.012 -0.0583  0.1211 -0.2643
19495TIP3    H179976   1.352   0.401   3.054 -2.3364  1.1305  0.9239
19495TIP3    H279977   1.343   0.472   2.921  0.8490 -0.8112 -0.4100
19496TIP3   OH279978   0.454   5.149   5.443  0.0199 -0.1791 -0.5972
19496TIP3    H179979   0.480   5.159   5.535 -0.9106  2.6194 -0.5983
19496TIP3    H279980   0.379   5.090   5.446 -0.3385  0.3075  0.4942
19497TIP3   OH279981   2.574   4.805   0.269  0.0772  0.3487  0.2102
19497TIP3    H179982   2.527   4.830   0.349 -0.6994 -1.3145  0.2823
19497TIP3    H279983   2.662   4.842   0.281 -0.9338  2.7319  0.4593
19498TIP3   OH279984   0.698   2.055  14.231  0.7600 -0.0919 -0.1957
19498TIP3    H179985   0.671   2.137  14.190 -0.1546  1.0215  2.5107
19498TIP3    H279986   0.635   1.990  14.200 -1.0977  1.1299  0.9490
19499TIP3   OH279987   1.768   2.736  15.341 -0.1548  0.1291 -0.5370
19499TIP3    H179988   1.759   2.723  15.246 -2.2824  0.3473 -0.3819
19499TIP3    H279989   1.747   2.651  15.379 -0.9784  0.4759 -0.1923
19500TIP3   OH279990   5.724   2.168  16.451 -0.1455  0.0486 -0.1677
19500TIP3    H179991   5.720   2.166  16.356 -0.7189  0.3645 -0.1558
19500TIP3    H279992   5.816   2.187  16.471 -0.2215  0.9923 -0.6819
19501TIP3   OH279993   6.120   4.208   0.738  0.4143 -0.3972 -0.5068
19501TIP3    H179994   6.130   4.119   0.772  0.6884 -0.9128 -1.8739
19501TIP3    H279995   6.154   4.265   0.807 -1.5983 -1.2099  1.2278
19502TIP3   OH279996   4.687   3.460  12.301  0.5721  0.0556  0.0517
19502TIP3    H179997   4.652   3.387  12.352  1.7021  0.6659  1.7460
19502TIP3    H279998   4.764   3.489  12.350  2.8620 -0.5921 -3.0503
19503TIP3   OH279999   5.393   2.944  15.634 -0.0014  0.3627 -0.3359
19503TIP3    H180000   5.486   2.945  15.613  0.0059  1.0771 -0.2858
19503TIP3    H280001   5.387   2.890  15.713  0.3098 -0.0797 -0.6128
19504TIP3   OH280002   4.242   5.187  11.540 -0.2263 -0.2909 -0.3360
19504TIP3    H180003   4.288   5.217  11.462  0.5880  1.1194  0.6620
19504TIP3    H280004   4.206   5.266  11.579 -1.2732 -1.0749  0.3225
19505TIP3   OH280005   1.708   4.410  13.539  0.8279  0.1751 -0.1885
19505TIP3    H180006   1.733   4.352  13.466  0.1910  0.4534 -0.6381
19505TIP3    H280007   1.670   4.487  13.496 -0.0116  0.1229  0.4471
19506TIP3   OH280008   4.786   4.878  14.676 -0.6567  0.1369  0.1723
19506TIP3    H180009   4.811   4.968  14.698 -0.4866 -0.0527  0.7621
19506TIP3    H280010   4.807   4.869  14.583 -2.0031  1.1655 -0.2612
19507TIP3   OH280011   1.303   3.147   0.914  0.7307  0.0266 -0.2091
19507TIP3    H180012   1.305   3.068   0.968 -1.8129 -0.2729 -0.4752
19507TIP3    H280013   1.211   3.155   0.887  0.6708  3.6839  0.7501
19508TIP3   OH280014   2.934   4.195   2.584  0.2048  0.4485  0.6121
19508TIP3    H180015   3.009   4.135   2.586 -0.8155 -0.8657  0.3991
19508TIP3    H280016   2.950   4.250   2.507  0.2923 -0.7050 -0.2205
19509TIP3   OH280017   3.256   4.041  16.495  0.4071 -0.3152 -0.1863
19509TIP3    H180018   3.298   3.971  16.446 -0.1030 -0.5477 -0.2924
19509TIP3    H280019   3.276   4.121  16.446  0.6469 -0.4369 -0.2835
19510TIP3   OH280020   0.762   2.382   4.482 -0.5034 -0.2171 -0.1219
19510TIP3    H180021   0.841   2.409   4.530 -0.2469  0.3146 -0.8411
19510TIP3    H280022   0.795   2.333   4.407 -0.8935 -0.6496 -0.0170
19511TIP3   OH280023   3.321   2.602  14.639 -0.2196  0.7935 -0.0549
19511TIP3    H180024   3.325   2.583  14.733  2.8230  1.2872 -0.0629
19511TIP3    H280025   3.308   2.697  14.634 -0.1789  0.7952 -0.1315
19512TIP3   OH280026   4.585   4.195  12.226  0.7061 -0.1546  0.7837
19512TIP3    H180027   4.580   4.268  12.165  1.5282  0.0574  0.9552
19512TIP3    H280028   4.671   4.156  12.208  0.4775 -0.7729  1.0326
19513TIP3   OH280029   0.841   1.500  10.751 -0.5867 -0.5092 -0.3624
19513TIP3    H180030   0.890   1.422  10.777 -1.3666 -0.5619  0.9888
19513TIP3    H280031   0.757   1.467  10.720  0.2353 -0.4283 -2.7955
19514TIP3   OH280032   0.712   0.220   1.828 -0.2205  0.4842  0.1866
19514TIP3    H180033   0.714   0.308   1.865 -1.5541  0.2873  0.7692
19514TIP3    H280034   0.656   0.170   1.888 -0.1999 -0.5257 -0.6228
19515TIP3   OH280035   1.475   1.827  11.871 -0.1795 -0.5714  0.7887
19515TIP3    H180036   1.545   1.886  11.898  0.8371 -1.1846 -0.4493
19515TIP3    H280037   1.395   1.880  11.877  0.4818  0.3607  1.4672
19516TIP3   OH280038   5.782   2.081  12.702 -0.4687 -0.2737 -0.1207
19516TIP3    H180039   5.841   2.006  12.709  0.5162  0.6085  1.1944
19516TIP3    H280040   5.745   2.092  12.790 -0.8497  0.5816 -0.3799
19517TIP3   OH280041   1.265   5.630   2.173  0.2022  0.2215 -0.2885
19517TIP3    H180042   1.314   5.666   2.099 -0.4480 -1.4274 -1.5483
19517TIP3    H280043   1.216   5.705   2.207  0.5167  1.0172 -1.5265
19518TIP3   OH280044   0.444   6.317   4.621 -0.0848  0.3213  0.7761
19518TIP3    H180045   0.353   6.347   4.610 -1.0646 -1.1629  4.1169
19518TIP3    H280046   0.448   6.235   4.573  0.2104  1.5448 -1.3553
19519TIP3   OH280047   1.823   5.313  11.167  0.4342 -0.1696  0.4911
19519TIP3    H180048   1.820   5.302  11.072 -0.5876  4.7473 -0.1919
19519TIP3    H280049   1.915   5.332  11.187 -0.1104  3.8866 -0.3605
19520TIP3   OH280050   0.493   1.445   0.809  0.3945  0.0744  0.5328
19520TIP3    H180051   0.425   1.493   0.762 -0.5831 -0.0109  1.8211
19520TIP3    H280052   0.518   1.374   0.750 -1.1778 -0.3262  0.3175
19521TIP3   OH280053   0.206   4.081  14.200 -0.4732  0.1808 -0.0752
19521TIP3    H180054   0.243   4.058  14.285  0.0184 -0.5024 -0.4603
19521TIP3    H280055   0.268   4.144  14.163  1.3094 -2.2839 -1.4635
19522TIP3   OH280056   5.495   0.938  12.214  0.1769  0.2945  0.0351
19522TIP3    H180057   5.427   0.882  12.250  0.2842 -0.6131 -1.1447
19522TIP3    H280058   5.450   0.994  12.151  0.3730  0.2956 -0.1061
19523TIP3   OH280059   2.950   5.144  12.679 -0.1765 -0.0522  0.4352
19523TIP3    H180060   2.909   5.219  12.722 -0.5763  1.4668 -2.5189
19523TIP3    H280061   2.878   5.082  12.667 -0.8950  1.1291 -1.5069
19524TIP3   OH280062   3.015   3.996  14.747  0.1748  0.4749  0.1242
19524TIP3    H180063   2.928   4.035  14.742  0.4546  1.0160 -0.5384
19524TIP3    H280064   3.066   4.041  14.680  0.2350 -1.7069 -1.3636
19525TIP3   OH280065   1.756   4.858   5.851  0.1530 -0.0161 -0.0460
19525TIP3    H180066   1.685   4.884   5.793 -0.7530 -1.6064  0.3051
19525TIP3    H280067   1.737   4.766   5.872  3.1102 -0.9369 -1.1380
19526TIP3   OH280068   6.216   4.648  13.571  0.0054 -0.1947  0.3909
19526TIP3    H180069   6.193   4.662  13.479  1.2105  1.1180  0.2739
19526TIP3    H280070   6.166   4.715  13.619 -0.9725 -1.1613  0.7643
19527TIP3   OH280071   5.079   4.430   1.913  0.0616 -0.0220  0.3162
19527TIP3    H180072   5.104   4.461   2.001 -0.9787 -2.4308  1.5149
19527TIP3    H280073   5.137   4.355   1.897 -0.4540 -0.2316 -0.6137
19528TIP3   OH280074   5.552   0.318  12.452 -0.4327 -0.5611  0.4188
19528TIP3    H180075   5.631   0.269  12.478 -1.1033 -0.9068  1.8550
19528TIP3    H280076   5.568   0.342  12.360  1.9645  0.6304  1.1160
19529TIP3   OH280077   0.002   5.382  15.569 -0.1983  0.0638 -0.2203
19529TIP3    H180078   0.059   5.415  15.499  1.0860 -2.0946 -0.2523
19529TIP3    H280079   0.012   5.444  15.640  1.6387  0.1236 -0.5108
19530TIP3   OH280080   1.789   2.791   4.563 -0.1494  0.9276  0.2903
19530TIP3    H180081   1.763   2.872   4.518  0.9337  1.3285  0.3770
19530TIP3    H280082   1.745   2.796   4.648 -1.3055  0.6934 -0.2789
19531TIP3   OH280083   5.337   2.374   2.676 -0.1758  0.9503  0.0206
19531TIP3    H180084   5.363   2.331   2.757 -1.3145  1.6220  0.7690
19531TIP3    H280085   5.322   2.303   2.614  1.3035  0.4646  0.2109
19532TIP3   OH280086   5.746   3.240   2.447  0.8047  0.0927 -0.6813
19532TIP3    H180087   5.766   3.204   2.534 -1.8195 -1.2092 -0.5780
19532TIP3    H280088   5.814   3.306   2.433  2.3618 -0.9416  1.5687
19533TIP3   OH280089   3.634   6.559   2.570  0.4913  0.2795 -0.0997
19533TIP3    H180090   3.585   6.479   2.551  1.0284 -0.1519  0.2989
19533TIP3    H280091   3.721   6.528   2.594  0.5123  0.9532  0.7136
19534TIP3   OH280092   5.082   3.819   5.058  0.2160 -0.9077 -0.0692
19534TIP3    H180093   5.104   3.873   4.983  1.9045 -0.9261  0.3973
19534TIP3    H280094   5.006   3.863   5.097  0.4027  0.0630 -0.7790
19535TIP3   OH280095   4.881   1.730   2.786 -0.0592  0.3529 -0.1344
19535TIP3    H180096   4.808   1.715   2.727 -1.7251  0.3135  1.8899
19535TIP3    H280097   4.943   1.659   2.767 -0.5560  0.3551 -1.8038
19536TIP3   OH280098   2.583   6.465  16.625 -0.3463 -0.0707  0.6878
19536TIP3    H180099   2.634   6.475  16.705  1.0732 -0.9963 -0.0828
19536TIP3    H280100   2.494   6.447  16.655 -0.2662  1.6585  2.0480
19537TIP3   OH280101   2.407   3.885  13.342  0.3968 -0.2071  0.1728
19537TIP3    H180102   2.425   3.866  13.250  0.0978  3.2874 -0.6674
19537TIP3    H280103   2.312   3.895  13.346  0.6478  2.6146  0.1929
19538TIP3   OH280104   5.952   0.659  11.050 -0.1778  0.6134 -0.2276
19538TIP3    H180105   6.047   0.657  11.036 -0.0128  1.3915  0.6607
19538TIP3    H280106   5.933   0.578  11.096  0.1523  0.7104  0.0864
19539TIP3   OH280107   5.518   3.438  16.150  0.0529  0.0867  0.7200
19539TIP3    H180108   5.514   3.499  16.075  1.0089 -3.0281 -1.9846
19539TIP3    H280109   5.610   3.440  16.177  0.2328 -0.6561  0.1729
19540TIP3   OH280110   2.350   1.807   2.288  0.4138  0.4757 -0.6229
19540TIP3    H180111   2.425   1.843   2.335  0.7076  0.6672 -1.2196
19540TIP3    H280112   2.387   1.740   2.231  0.1867  0.8155 -1.1824
19541TIP3   OH280113   2.303   5.477  14.676  0.2223  0.2564  0.2483
19541TIP3    H180114   2.378   5.457  14.732 -0.3024 -1.0947  0.5079
19541TIP3    H280115   2.227   5.461  14.732 -0.2803  0.4040 -0.3826
19542TIP3   OH280116   1.655   1.479  13.745  0.5637 -0.2688 -0.1298
19542TIP3    H180117   1.620   1.391  13.755 -0.3662  0.0285 -0.7179
19542TIP3    H280118   1.744   1.474  13.781  0.2614 -1.2651  0.4860
19543TIP3   OH280119   0.698   5.461   5.460 -0.0637 -0.3985  0.0382
19543TIP3    H180120   0.755   5.384   5.465  0.9459  0.2156 -1.8029
19543TIP3    H280121   0.728   5.517   5.532  0.9372 -0.5706 -0.2395
19544TIP3   OH280122   3.598   1.978  11.454  0.2985 -0.0851  0.2024
19544TIP3    H180123   3.516   2.028  11.461  0.1914 -0.2375  0.0181
19544TIP3    H280124   3.666   2.045  11.455  0.3027 -0.0624  2.6107
19545TIP3   OH280125   1.729   1.489  11.131  0.2839 -0.0960  0.0125
19545TIP3    H180126   1.746   1.451  11.045  0.2525  1.8866 -0.9050
19545TIP3    H280127   1.633   1.491  11.138  0.2641  0.6990 -0.3730
19546TIP3   OH280128   3.000   5.911  13.989  0.3693 -0.1108 -0.2802
19546TIP3    H180129   2.904   5.911  13.983  0.3918  0.4014 -0.6071
19546TIP3    H280130   3.021   5.993  14.033  0.6821 -0.0653 -0.5157
19547TIP3   OH280131   5.649   0.429   4.117  0.6153  0.4569  0.3132
19547TIP3    H180132   5.639   0.514   4.075  0.9975  1.0807  1.4525
19547TIP3    H280133   5.738   0.430   4.152  0.4586 -0.2194  0.7331
19548TIP3   OH280134   3.578   6.699  11.457  0.1744  0.2969 -0.4612
19548TIP3    H180135   3.534   6.614  11.451 -0.8818  0.8730 -0.7727
19548TIP3    H280136   3.585   6.715  11.551  1.4147 -0.6672 -0.3697
19549TIP3   OH280137   6.076   3.483  14.949 -0.3840 -0.4018 -0.2896
19549TIP3    H180138   6.081   3.561  15.004 -0.1692 -1.3331  1.0340
19549TIP3    H280139   6.123   3.416  14.998  0.8881 -0.9286 -2.1958
19550TIP3   OH280140   1.178   6.605  14.387 -0.7893  0.2357 -0.0451
19550TIP3    H180141   1.153   6.684  14.436  0.6456 -0.0790  1.2115
19550TIP3    H280142   1.257   6.574  14.430 -0.5608 -1.1191 -1.4118
19551TIP3   OH280143   5.871   3.486  17.100 -0.0830 -0.2649  1.0652
19551TIP3    H180144   5.934   3.524  17.161  0.5013 -0.0524  0.3300
19551TIP3    H280145   5.790   3.480  17.151  0.4639 -0.3423  1.9508
19552TIP3   OH280146   0.477   6.123   6.683 -0.1105 -0.2348  0.4363
19552TIP3    H180147   0.409   6.061   6.710 -0.7556  0.0030 -0.6148
19552TIP3    H280148   0.429   6.204   6.664  0.4110 -0.1845 -0.6909
19553TIP3   OH280149   3.049   3.661   0.952 -0.1504 -0.0366  0.0923
19553TIP3    H180150   2.977   3.702   1.000  1.0744  1.0937  0.9913
19553TIP3    H280151   3.108   3.733   0.932 -0.0781 -0.6768 -2.1227
19554TIP3   OH280152   4.464   1.980  16.414  0.1950 -0.6778  0.5310
19554TIP3    H180153   4.447   2.006  16.504 -1.0871  0.2723  0.0349
19554TIP3    H280154   4.436   2.055  16.361  0.9376 -1.2096 -0.6580
19555TIP3   OH280155   1.089   4.208   5.555  0.0924  0.5831  0.0841
19555TIP3    H180156   1.115   4.149   5.626 -0.1166 -0.4494 -0.6895
19555TIP3    H280157   1.048   4.283   5.600  0.9206  0.4421  1.1043
19556TIP3   OH280158   2.847   1.298   3.250  0.1615  0.2053  0.3825
19556TIP3    H180159   2.756   1.282   3.277  0.3035  0.7774  1.1907
19556TIP3    H280160   2.850   1.391   3.228  0.7091  0.3267  0.9587
19557TIP3   OH280161   3.753   3.856   5.323  0.3590 -0.3057  0.0713
19557TIP3    H180162   3.756   3.761   5.315  1.4915 -0.2801  0.0866
19557TIP3    H280163   3.696   3.872   5.399  0.7480 -0.9993  0.5182
19558TIP3   OH280164   0.397   1.140   2.127  0.9635  0.7072 -0.2268
19558TIP3    H180165   0.402   1.129   2.032  3.1371  1.8099 -0.2645
19558TIP3    H280166   0.321   1.197   2.140 -1.6560 -2.4512 -0.9959
19559TIP3   OH280167   5.665   4.654  16.052  0.0283  0.3576  0.1075
19559TIP3    H180168   5.643   4.562  16.067  1.1213  0.1951  0.7632
19559TIP3    H280169   5.587   4.702  16.081 -0.5636 -0.3547 -0.2744
19560TIP3   OH280170   0.399   4.024   4.804 -0.1339 -0.2671 -0.2559
19560TIP3    H180171   0.324   3.966   4.790 -0.0523 -0.5643  0.4839
19560TIP3    H280172   0.406   4.075   4.723 -0.5772 -0.8717 -0.6828
19561TIP3   OH280173   3.945   3.957   1.522 -0.0217  0.1360  0.0119
19561TIP3    H180174   3.918   3.905   1.447  2.7912 -1.1102 -0.1915
19561TIP3    H280175   3.999   4.027   1.485  0.3035  0.2786  0.7405
19562TIP3   OH280176   5.375   4.588   1.728  0.9325 -0.2762  0.5920
19562TIP3    H180177   5.341   4.505   1.695 -2.0385  0.2489  2.1791
19562TIP3    H280178   5.319   4.655   1.689  2.9286  0.9872 -0.2001
19563TIP3   OH280179   2.719   4.904  14.114  0.3307  0.5651  0.4085
19563TIP3    H180180   2.711   4.887  14.208  0.5098 -0.4232  0.2522
19563TIP3    H280181   2.756   4.992  14.108 -0.4107  0.9433  1.2492
19564TIP3   OH280182   0.162   0.178  11.832 -0.1582  0.0558 -0.4829
19564TIP3    H180183   0.069   0.178  11.852 -0.1986 -0.7214 -0.6300
19564TIP3    H280184   0.178   0.261  11.788 -1.0476 -0.3890 -1.6623
19565TIP3   OH280185   5.484   3.669  16.491 -0.5701 -0.2763  0.0922
19565TIP3    H180186   5.469   3.760  16.464  0.7853 -0.0218  0.1886
19565TIP3    H280187   5.456   3.666  16.582  1.2951  0.5567  0.7085
19566TIP3   OH280188   4.536   1.524   4.601  0.2903 -0.0873  0.3478
19566TIP3    H180189   4.570   1.598   4.550  0.4193 -0.3607  0.0359
19566TIP3    H280190   4.529   1.558   4.690  2.1007 -0.2395  0.5734
19567TIP3   OH280191   3.678   5.695   3.182 -0.1912  0.1173 -0.3001
19567TIP3    H180192   3.712   5.728   3.100 -1.4597 -0.6366 -1.1570
19567TIP3    H280193   3.618   5.763   3.212  1.0082  0.8325  0.5168
19568TIP3   OH280194   6.407   1.966   3.410 -0.6638  0.2988  0.1735
19568TIP3    H180195   6.332   1.911   3.433  0.2077 -0.7017  0.7080
19568TIP3    H280196   6.470   1.905   3.371 -1.1523  1.5634 -2.7112
19569TIP3   OH280197   6.396   3.294  15.941 -0.1328  0.2810  0.1147
19569TIP3    H180198   6.444   3.357  15.887 -0.4582  0.1825 -0.2900
19569TIP3    H280199   6.316   3.340  15.966  0.3123  0.5522  1.0402
19570TIP3   OH280200   4.931   0.197   1.881 -0.5179 -0.4990  0.0908
19570TIP3    H180201   4.842   0.185   1.850 -0.9829  1.8041  0.4142
19570TIP3    H280202   4.922   0.250   1.961  0.9841 -2.1102  1.3588
19571TIP3   OH280203   4.201   3.351   6.418  0.1509  0.1976  0.0956
19571TIP3    H180204   4.231   3.403   6.493  0.1499 -0.2212  0.3877
19571TIP3    H280205   4.105   3.353   6.425  0.1586 -0.1496  0.3187
19572TIP3   OH280206   0.040   0.441  10.614  0.6895 -0.4889  0.0089
19572TIP3    H180207  -0.053   0.456  10.633  0.6184 -2.7295  1.6693
19572TIP3    H280208   0.069   0.521  10.571 -1.4083  1.2311  1.6762
19573TIP3   OH280209   0.280   2.927   0.783 -0.1015  0.6187  0.1136
19573TIP3    H180210   0.321   2.854   0.737 -0.0466  0.6633  0.0912
19573TIP3    H280211   0.345   2.997   0.780  0.1263  0.4425  0.7442
19574TIP3   OH280212   5.025   6.187   4.125 -0.1714 -0.1823 -0.3322
19574TIP3    H180213   4.976   6.252   4.175  0.6992  0.4532 -0.2899
19574TIP3    H280214   5.004   6.103   4.167 -0.8674  0.1335 -0.0448
19575TIP3   OH280215   1.678   0.883  14.255 -0.1509 -0.7671 -0.0239
19575TIP3    H180216   1.710   0.793  14.253 -1.1290 -1.1087 -0.5047
19575TIP3    H280217   1.651   0.897  14.346  0.1656 -0.8993  0.0892
19576TIP3   OH280218   5.413   0.524  13.347  0.0543  0.4397 -0.5536
19576TIP3    H180219   5.328   0.485  13.326 -0.7583  0.0562  3.0920
19576TIP3    H280220   5.393   0.613  13.375  1.1181  1.0533 -1.6790
19577TIP3   OH280221   4.392   6.276   4.403  0.1399 -0.1578 -0.1162
19577TIP3    H180222   4.407   6.284   4.498 -0.8722 -1.6314  0.1802
19577TIP3    H280223   4.336   6.199   4.394 -0.3489  0.3847 -1.8717
19578TIP3   OH280224   5.441   5.330   5.642  0.8578 -1.0534 -0.7077
19578TIP3    H180225   5.456   5.422   5.619 -0.6480 -0.1745  1.7094
19578TIP3    H280226   5.349   5.314   5.621  0.0418 -0.8479  2.5120
19579TIP3   OH280227   5.782   2.667   3.655  0.1597 -0.4739 -0.4341
19579TIP3    H180228   5.745   2.579   3.646  0.1209 -0.6864  1.4620
19579TIP3    H280229   5.797   2.676   3.749 -1.6061  2.2470 -0.3483
19580TIP3   OH280230   6.816   1.583  14.841 -0.0550  0.0340  0.1871
19580TIP3    H180231   6.756   1.508  14.849 -0.0196  0.1487  1.5989
19580TIP3    H280232   6.793   1.622  14.757 -0.0892 -1.5451 -0.5650
19581TIP3   OH280233   1.857   3.385   1.912  0.4055 -0.2623 -0.1666
19581TIP3    H180234   1.771   3.408   1.877 -0.1844 -1.2519  0.5843
19581TIP3    H280235   1.896   3.469   1.938 -0.5158  0.1484 -0.0957
19582TIP3   OH280236   5.327   4.254  13.048 -0.3329  0.2924 -0.4787
19582TIP3    H180237   5.297   4.296  12.968 -0.5230 -1.0630 -1.1304
19582TIP3    H280238   5.273   4.175  13.055  0.3455 -0.0939  0.4651
19583TIP3   OH280239   3.624   5.046  12.914  0.0957  0.5776 -0.1045
19583TIP3    H180240   3.626   4.960  12.955  0.9248 -0.2592 -1.8438
19583TIP3    H280241   3.540   5.049  12.868  0.5026  0.2851 -0.8771
19584TIP3   OH280242   3.163   3.911   3.904  0.2971 -0.4123  0.4335
19584TIP3    H180243   3.123   3.924   3.818  0.1369 -1.8698  0.2686
19584TIP3    H280244   3.236   3.850   3.888  0.8633  0.0604  1.1741
19585TIP3   OH280245   4.347   4.038   2.736  0.0745  0.4666 -0.2259
19585TIP3    H180246   4.320   4.125   2.708  0.2721  0.4089 -0.5998
19585TIP3    H280247   4.270   3.983   2.720 -0.5425  0.8458  1.3631
19586TIP3   OH280248   4.582   2.379   5.503  0.2651  0.2163  0.4529
19586TIP3    H180249   4.546   2.456   5.458 -0.5304 -1.1681 -1.3743
19586TIP3    H280250   4.512   2.350   5.561 -0.3039 -0.4303 -0.5324
19587TIP3   OH280251   3.970   4.866   5.309 -0.2242  0.1302  0.2395
19587TIP3    H180252   3.882   4.848   5.278 -0.5378  0.7539  0.7600
19587TIP3    H280253   3.979   4.816   5.390 -0.0312 -0.0824  0.0893
19588TIP3   OH280254   0.316   2.982  11.675 -0.2352  0.5576 -0.9410
19588TIP3    H180255   0.343   2.908  11.621 -1.9950  0.8932 -2.3055
19588TIP3    H280256   0.275   3.044  11.614 -4.4091 -0.0860  0.9680
19589TIP3   OH280257   4.516   3.757   3.178 -0.1760  0.1947  0.2033
19589TIP3    H180258   4.441   3.781   3.123 -1.9623 -1.9583  1.5968
19589TIP3    H280259   4.548   3.840   3.213 -1.6819  1.1937 -0.7433
19590TIP3   OH280260   2.025   5.735  14.866 -0.2519  0.3125  0.1829
19590TIP3    H180261   2.087   5.805  14.887 -1.0411  0.7618  1.0645
19590TIP3    H280262   1.956   5.779  14.817  1.1923 -0.5908 -2.7821
19591TIP3   OH280263   4.707   1.084  13.709 -0.4040 -0.0827 -0.7158
19591TIP3    H180264   4.651   1.158  13.688 -0.9094  0.0989  1.1715
19591TIP3    H280265   4.721   1.091  13.804  1.6331 -0.9312 -0.9301
19592TIP3   OH280266   0.468   2.342  11.208 -0.2508  0.2026  0.1999
19592TIP3    H180267   0.504   2.424  11.243 -1.3883  0.4606  0.7837
19592TIP3    H280268   0.395   2.369  11.153  0.2928 -0.3339 -0.7951
19593TIP3   OH280269   3.737   3.053  12.116 -0.2756 -0.3294  0.1762
19593TIP3    H180270   3.711   3.135  12.159 -2.2136 -0.8939  0.1197
19593TIP3    H280271   3.788   3.007  12.182  1.6784  1.3382 -0.1162
19594TIP3   OH280272   2.147   4.547   3.730  0.0517 -0.0669 -0.2652
19594TIP3    H180273   2.146   4.462   3.774  0.9641  0.1499  0.1901
19594TIP3    H280274   2.223   4.543   3.672 -0.1983  0.2540 -0.6156
19595TIP3   OH280275   3.477   4.175   3.357 -0.0910  1.1566 -0.4069
19595TIP3    H180276   3.465   4.238   3.428 -0.6518  1.3547 -0.6735
19595TIP3    H280277   3.396   4.125   3.356  0.6534 -0.0943  0.3042
19596TIP3   OH280278   4.895   0.426   5.374  0.9978 -0.2914  0.4028
19596TIP3    H180279   4.971   0.396   5.324  1.1084  1.3936 -0.4957
19596TIP3    H280280   4.900   0.522   5.370 -0.9506 -0.1529  0.6861
19597TIP3   OH280281   2.272   3.982   5.236 -0.7957  0.3432  0.2326
19597TIP3    H180282   2.177   3.996   5.230 -0.8699  0.3464  1.2559
19597TIP3    H280283   2.299   4.038   5.309  0.0776  0.7143 -0.3689
19598TIP3   OH280284   5.434   4.514  12.534 -1.2443  0.4913 -0.2455
19598TIP3    H180285   5.436   4.494  12.628 -0.6670  0.2689 -0.3009
19598TIP3    H280286   5.508   4.464  12.498 -1.9627 -0.0752 -0.9463
19599TIP3   OH280287   3.603   0.011   2.576 -0.7322 -0.2816  0.2352
19599TIP3    H180288   3.630  -0.080   2.589  0.7920  0.4114  2.1887
19599TIP3    H280289   3.587   0.018   2.482  1.6757 -1.9001 -0.3427
19600TIP3   OH280290   3.936   0.368  12.929 -0.2696 -0.3903  0.2513
19600TIP3    H180291   3.871   0.342  12.995  1.4678  0.0253  2.2063
19600TIP3    H280292   3.999   0.420  12.978  0.9425  0.1528 -1.8410
19601TIP3   OH280293   0.014   3.665  14.205  0.1080 -0.6958  0.0169
19601TIP3    H180294   0.016   3.714  14.123  2.0068 -0.8670 -0.0789
19601TIP3    H280295  -0.005   3.575  14.179  0.3412 -0.6808 -0.2116
19602TIP3   OH280296   4.931   6.099   0.285  0.4863 -0.3684 -0.2299
19602TIP3    H180297   4.870   6.054   0.227 -0.2512  0.3111 -0.0019
19602TIP3    H280298   4.947   6.183   0.243  0.3177 -0.0629  0.3098
19603TIP3   OH280299   1.161   5.008   5.550 -0.5896 -0.2171 -1.2153
19603TIP3    H180300   1.161   4.912   5.551  2.0859 -0.2543  0.6164
19603TIP3    H280301   1.190   5.032   5.462 -0.2183 -1.1051 -1.3379
19604TIP3   OH280302   2.384   5.114  16.068  0.2168 -0.5845 -1.0377
19604TIP3    H180303   2.363   5.184  16.005 -0.5365  0.4777  0.3671
19604TIP3    H280304   2.479   5.109  16.067  0.2777  0.4519 -1.1801
19605TIP3   OH280305   4.398   3.410   1.956  0.0951 -0.7478  0.0571
19605TIP3    H180306   4.378   3.362   1.875 -1.3158 -0.4968  0.2548
19605TIP3    H280307   4.347   3.366   2.023 -1.3204  1.1031  0.2230
19606TIP3   OH280308   4.642   6.223  13.886 -0.1756 -0.6626  0.3207
19606TIP3    H180309   4.633   6.213  13.791  0.1543 -0.3655  0.2537
19606TIP3    H280310   4.579   6.163  13.924  0.4262 -1.5515 -0.0802
19607TIP3   OH280311   4.910   1.977  15.146 -0.1532 -0.2429  0.2186
19607TIP3    H180312   4.819   2.005  15.139 -0.1746 -0.5521 -0.7282
19607TIP3    H280313   4.914   1.896  15.095  1.0055  0.5836 -1.0209
19608TIP3   OH280314   5.855   0.376  10.777 -0.0420  0.0319  0.2392
19608TIP3    H180315   5.937   0.396  10.732  1.8051 -3.1234  2.1047
19608TIP3    H280316   5.875   0.386  10.870 -2.0991  0.3556  0.6653
19609TIP3   OH280317   4.940   2.272  12.508  0.3499  0.1533  0.0271
19609TIP3    H180318   4.845   2.277  12.519  0.3667  0.7271 -0.0652
19609TIP3    H280319   4.975   2.281  12.596  0.2458 -2.3361  0.3411
19610TIP3   OH280320   6.251   2.686  15.424  0.0647  0.3263  0.5433
19610TIP3    H180321   6.320   2.753  15.423  0.9508 -0.5844 -1.8048
19610TIP3    H280322   6.298   2.603  15.418 -1.2140 -0.3251 -0.5887
19611TIP3   OH280323   0.592   3.908  14.198 -0.6345 -0.2115 -0.1256
19611TIP3    H180324   0.666   3.967  14.186  1.6396 -3.1379 -1.1195
19611TIP3    H280325   0.523   3.944  14.143  0.4629  1.8791 -0.1760
19612TIP3   OH280326   5.221   3.242   1.794  0.1422  0.4077  0.1134
19612TIP3    H180327   5.244   3.322   1.841 -0.5586  1.2383 -0.9496
19612TIP3    H280328   5.296   3.225   1.738  0.3378  0.2610  0.4198
19613TIP3   OH280329   5.340   3.508   4.511  0.0793  0.3675  0.7403
19613TIP3    H180330   5.282   3.563   4.563 -0.6666  0.8687 -0.5931
19613TIP3    H280331   5.318   3.418   4.537  0.5124  0.6523  2.1030
19614TIP3   OH280332   4.597   4.811   1.716 -0.3486 -0.5171 -0.2107
19614TIP3    H180333   4.532   4.845   1.777  1.0645 -0.4552  1.3067
19614TIP3    H280334   4.637   4.889   1.678  1.7348 -0.4208  2.0282
19615TIP3   OH280335   6.230   0.427  10.910 -0.2122 -0.0728  0.3797
19615TIP3    H180336   6.249   0.463  10.824 -0.2758 -0.1130  0.3492
19615TIP3    H280337   6.307   0.447  10.963 -0.8696  1.4203  0.7843
19616TIP3   OH280338   0.787   0.208  15.755  0.2345  0.4188  0.0383
19616TIP3    H180339   0.883   0.207  15.754  0.2333 -0.8568 -0.4154
19616TIP3    H280340   0.764   0.288  15.802  1.5232  0.6107  0.3646
19617TIP3   OH280341   5.044   1.632   1.908  0.2115  0.1315  0.2334
19617TIP3    H180342   4.985   1.646   1.981  0.4496  0.7557  0.3045
19617TIP3    H280343   5.013   1.692   1.840  0.3685 -0.0073  0.0372
19618TIP3   OH280344   6.187   0.747  12.006 -0.4009  0.2436  0.6501
19618TIP3    H180345   6.104   0.714  11.970  0.5975 -1.1667 -0.4612
19618TIP3    H280346   6.248   0.675  11.992  0.8047  0.9381  2.2769
19619TIP3   OH280347   3.382   2.245  13.009  0.1541 -0.4188  0.6413
19619TIP3    H180348   3.428   2.325  12.984 -1.0050  0.1793  0.3945
19619TIP3    H280349   3.360   2.258  13.102  1.8164 -1.3621  1.1894
19620TIP3   OH280350   6.655   5.153   0.995  0.5778  0.0075  0.4706
19620TIP3    H180351   6.636   5.228   0.939 -2.1713  0.4031  1.7994
19620TIP3    H280352   6.745   5.165   1.023  0.8827  1.6077 -1.1287
19621TIP3   OH280353   5.736   3.129   5.347 -0.4285 -0.4801  0.2883
19621TIP3    H180354   5.826   3.102   5.361 -0.4714  0.0874  1.7460
19621TIP3    H280355   5.700   3.063   5.286  0.8521 -0.8920 -0.0356
19622TIP3   OH280356   3.575   0.322   0.488 -0.1219 -0.0644  0.0669
19622TIP3    H180357   3.516   0.395   0.468 -0.1172 -0.2715 -0.7179
19622TIP3    H280358   3.645   0.330   0.423  0.5446 -0.0174  0.7828
19623TIP3   OH280359   5.729   1.650  16.830  0.2000  0.5992 -0.2237
19623TIP3    H180360   5.664   1.721  16.831 -0.2671  0.1711  1.1741
19623TIP3    H280361   5.804   1.687  16.784 -1.5898  0.5863 -3.2839
19624TIP3   OH280362   4.550   5.083  11.514 -0.6209  0.1487  0.1398
19624TIP3    H180363   4.610   5.019  11.476 -0.9705  0.2185 -0.5410
19624TIP3    H280364   4.473   5.080  11.457 -0.7672  0.9481  0.2873
19625TIP3   OH280365   3.823   6.010  15.803 -0.3185  0.4209 -0.6806
19625TIP3    H180366   3.843   6.076  15.737  0.6110 -1.5949 -2.4396
19625TIP3    H280367   3.773   5.943  15.756 -1.2581 -0.1394  1.0793
19626TIP3   OH280368   6.362   6.172  13.740 -0.0407 -1.4472  0.3880
19626TIP3    H180369   6.449   6.140  13.762  1.0994  0.2836 -1.3639
19626TIP3    H280370   6.349   6.248  13.797  0.7747 -0.0564 -1.2304
19627TIP3   OH280371   5.313   6.389   1.681  0.0344 -0.1626 -0.4398
19627TIP3    H180372   5.361   6.325   1.628  0.1311  0.5007 -1.1758
19627TIP3    H280373   5.245   6.338   1.724  0.3447 -0.8266 -0.7195
19628TIP3   OH280374   4.320   4.021  14.125  0.1792 -0.0213 -0.6234
19628TIP3    H180375   4.312   4.108  14.163  1.4331 -0.0264 -0.3258
19628TIP3    H280376   4.235   3.979  14.141  0.0776  0.6215  0.5162
19629TIP3   OH280377   4.757   2.365  15.384  0.1841  0.0137  0.1980
19629TIP3    H180378   4.724   2.409  15.463  1.3160 -0.7508  1.1133
19629TIP3    H280379   4.729   2.274  15.394  0.3841 -0.0968 -0.2528
19630TIP3   OH280380   4.424   3.650  13.917  0.4112 -0.2001  0.1391
19630TIP3    H180381   4.472   3.641  13.999  0.5216 -0.6264  0.0307
19630TIP3    H280382   4.332   3.656  13.944  0.5604  1.1675  0.3796
19631TIP3   OH280383   3.988   5.640  11.152 -0.0528  0.2192 -0.0775
19631TIP3    H180384   4.052   5.620  11.083  0.2350 -0.0763  0.2666
19631TIP3    H280385   3.905   5.649  11.106  0.2551  0.7193 -0.5470
19632TIP3   OH280386   4.087   5.966  17.243 -0.0189 -0.0146  0.3912
19632TIP3    H180387   4.070   6.027  17.172  1.0962 -0.8293 -0.5955
19632TIP3    H280388   4.022   5.896  17.232  0.4889 -0.4034 -0.1385
19633TIP3   OH280389   1.076   5.048  12.554  0.3830 -0.4362  0.2850
19633TIP3    H180390   1.005   5.026  12.613  1.1185 -0.0573  1.3389
19633TIP3    H280391   1.046   5.126  12.508 -0.2240 -0.7698  0.1172
19634TIP3   OH280392   4.196   0.590  12.999 -0.3987 -0.0110 -0.3174
19634TIP3    H180393   4.194   0.502  13.036 -2.6535  0.6873  1.3238
19634TIP3    H280394   4.212   0.647  13.074 -0.3878  1.0806 -1.1455
19635TIP3   OH280395   6.291   4.775   5.301  0.3082  0.0927 -0.0924
19635TIP3    H180396   6.304   4.716   5.375 -1.1871 -0.6874 -0.4241
19635TIP3    H280397   6.230   4.841   5.334 -0.9613 -0.6892 -0.8496
19636TIP3   OH280398   3.075   4.576  14.382  0.2918  1.2947  0.3281
19636TIP3    H180399   3.010   4.507  14.398  0.9787  0.2367 -1.2217
19636TIP3    H280400   3.123   4.584  14.464 -0.8439  1.0654  1.0323
19637TIP3   OH280401   4.911   0.007   4.934 -0.2749 -0.3663  0.4201
19637TIP3    H180402   4.873   0.091   4.961 -0.5897 -0.6036  0.7129
19637TIP3    H280403   4.933   0.019   4.842  0.0259  0.1674  0.5598
19638TIP3   OH280404   6.623   0.477  14.316 -0.6324  0.0834 -0.4549
19638TIP3    H180405   6.708   0.445  14.287 -0.4300  0.7776 -0.6429
19638TIP3    H280406   6.637   0.570  14.334 -1.5105  0.3499 -1.1250
19639TIP3   OH280407   1.842   0.170   1.931  0.5174 -0.6741 -0.3179
19639TIP3    H180408   1.861   0.252   1.885  0.7325 -1.3923 -1.5511
19639TIP3    H280409   1.762   0.137   1.888 -0.0504 -0.6898  0.7441
19640TIP3   OH280410   3.549   0.621   6.373  0.0328 -0.3903 -0.4203
19640TIP3    H180411   3.616   0.570   6.418 -1.1097 -2.3420 -0.8723
19640TIP3    H280412   3.595   0.662   6.300  1.3565  0.7748  1.0335
19641TIP3   OH280413   5.069   3.814   1.102  0.6733  0.2376 -0.0745
19641TIP3    H180414   5.004   3.878   1.076 -0.4216 -1.1063 -0.7314
19641TIP3    H280415   5.153   3.853   1.076 -0.0699  0.8327 -1.6799
19642TIP3   OH280416   0.508   1.826  15.131 -0.2080 -0.6636  0.2930
19642TIP3    H180417   0.551   1.849  15.048 -1.5566 -1.7225 -0.7150
19642TIP3    H280418   0.552   1.746  15.159 -0.3591 -0.7971  0.1467
19643TIP3   OH280419   0.968   0.301  10.988  0.2668  0.0958 -0.1091
19643TIP3    H180420   0.913   0.367  10.947  1.0848 -0.0125 -1.4239
19643TIP3    H280421   1.054   0.313  10.947  0.3944 -1.8456 -0.4521
19644TIP3   OH280422   4.152   3.343   3.179 -0.8741 -0.0179  0.7148
19644TIP3    H180423   4.140   3.255   3.217  0.6800 -1.1128 -1.2465
19644TIP3    H280424   4.216   3.385   3.237 -0.9743 -0.4979  1.1806
19645TIP3   OH280425   4.020   0.664   6.234  0.2680 -0.3714  0.3056
19645TIP3    H180426   4.028   0.702   6.321  2.4759 -0.0542 -0.0173
19645TIP3    H280427   4.059   0.577   6.242 -0.0924 -0.5832 -0.2134
19646TIP3   OH280428   2.475   2.719  16.790 -0.2532  0.6956 -0.0963
19646TIP3    H180429   2.552   2.702  16.736 -0.9746 -0.9382 -0.6438
19646TIP3    H280430   2.482   2.812  16.813  1.7489  0.6225 -0.3150
19647TIP3   OH280431   1.692   2.245   0.648  0.3536  0.2980  0.0668
19647TIP3    H180432   1.738   2.205   0.721  1.0595  0.9200 -0.0401
19647TIP3    H280433   1.758   2.297   0.602 -0.7342  2.2682  0.6847
19648TIP3   OH280434   2.849   3.996  16.561  0.9133  0.0928  0.0780
19648TIP3    H180435   2.757   3.972  16.556  0.8946  0.2965 -0.5817
19648TIP3    H280436   2.882   3.947  16.637  0.1859  0.3072  0.5406
19649TIP3   OH280437   1.128   4.690   1.338  0.1378 -0.4577 -0.0605
19649TIP3    H180438   1.043   4.654   1.362  0.1537  0.5195  1.4911
19649TIP3    H280439   1.116   4.785   1.342  1.0881 -0.3098 -0.6109
19650TIP3   OH280440   0.726   3.602  14.150 -0.1109  0.2408 -0.0284
19650TIP3    H180441   0.786   3.554  14.207 -0.2048 -0.6969 -0.7060
19650TIP3    H280442   0.732   3.693  14.179 -0.1076 -0.2154  1.4272
19651TIP3   OH280443   1.319   5.207  15.833  0.2180  0.4575  0.1330
19651TIP3    H180444   1.343   5.262  15.908  0.7260  0.2385  0.1306
19651TIP3    H280445   1.297   5.270  15.764 -1.0288  0.6700  0.7001
19652TIP3   OH280446   4.253   1.958   1.570 -0.3558 -0.3083 -0.4245
19652TIP3    H180447   4.345   1.942   1.550 -0.1683  1.3565 -1.0147
19652TIP3    H280448   4.216   1.872   1.587  1.8830 -0.8113  2.3148
19653TIP3   OH280449   1.159   0.582   3.154  0.2790 -0.1542 -0.1805
19653TIP3    H180450   1.234   0.533   3.119  0.5554  0.7697 -0.9037
19653TIP3    H280451   1.157   0.560   3.247  0.9506 -0.8233 -0.3186
19654TIP3   OH280452   0.397   6.449   0.239 -0.3465 -1.1689  0.0974
19654TIP3    H180453   0.322   6.438   0.296 -0.5755  0.2469  0.0942
19654TIP3    H280454   0.449   6.519   0.280  0.8668 -2.0010  0.0031
19655TIP3   OH280455   5.195   5.847  16.004  0.7400 -0.6343 -0.0154
19655TIP3    H180456   5.177   5.931  16.046  2.3222  0.1928 -0.9690
19655TIP3    H280457   5.237   5.795  16.072  0.6234 -0.3231  0.2964
19656TIP3   OH280458   4.791   0.416  13.027  0.5638 -0.0682 -0.0575
19656TIP3    H180459   4.883   0.389  13.031  0.0279 -1.7197  2.5242
19656TIP3    H280460   4.757   0.397  13.114 -2.7834 -1.5416 -1.6121
19657TIP3   OH280461   0.135   6.247   4.799 -0.0362 -0.1976  0.0189
19657TIP3    H180462   0.046   6.236   4.832  0.1624  1.4014  1.1517
19657TIP3    H280463   0.189   6.190   4.854 -0.2318 -0.4173 -0.0184
19658TIP3   OH280464   5.124   6.719  14.002 -0.5204  0.1063  0.2668
19658TIP3    H180465   5.078   6.685  14.079  0.3885 -1.3666  0.1795
19658TIP3    H280466   5.211   6.680  14.008  1.5251  4.4737  1.6058
19659TIP3   OH280467   4.883   0.458   4.212  0.5425  0.3742  0.4256
19659TIP3    H180468   4.974   0.460   4.184  0.1272  0.5551 -0.9334
19659TIP3    H280469   4.869   0.543   4.255  1.5244 -0.4016  2.3009
19660TIP3   OH280470   1.240   1.748   1.468 -0.3103 -0.3969 -0.1959
19660TIP3    H180471   1.334   1.752   1.486 -0.2088  0.2803 -0.8526
19660TIP3    H280472   1.230   1.676   1.405 -0.3452 -1.0489  0.5483
19661TIP3   OH280473   5.861   5.344  12.975  0.2252  0.2593 -0.1488
19661TIP3    H180474   5.931   5.305  12.923 -0.5232  0.3918 -1.2757
19661TIP3    H280475   5.793   5.277  12.980  0.7781 -0.2012  1.7075
19662TIP3   OH280476   2.975   3.234   3.685 -0.7048  0.5848 -0.6171
19662TIP3    H180477   3.002   3.219   3.595 -0.1617 -0.1310 -0.3312
19662TIP3    H280478   3.051   3.212   3.738 -1.4500 -0.2784  0.1062
19663TIP3   OH280479   1.782   6.381   5.611  0.4846  0.7385  0.9814
19663TIP3    H180480   1.871   6.345   5.614  0.3122  0.2262  0.2263
19663TIP3    H280481   1.730   6.320   5.664  0.3762  0.4191  0.5083
19664TIP3   OH280482   5.285   2.546  16.909  0.0117  0.6008  0.7205
19664TIP3    H180483   5.206   2.502  16.940 -0.9599  1.7012 -0.1530
19664TIP3    H280484   5.316   2.596  16.985  0.7813 -1.0808  1.5386
19665TIP3   OH280485   2.341   0.364  13.276  0.0527  0.1731 -0.4349
19665TIP3    H180486   2.312   0.425  13.207  0.7855 -1.2053 -1.9938
19665TIP3    H280487   2.271   0.299  13.281 -0.2448  0.5613  0.5076
19666TIP3   OH280488   4.840   6.120   1.562 -0.1960  0.4238  0.6079
19666TIP3    H180489   4.874   6.113   1.651  0.4491  1.6516  0.4764
19666TIP3    H280490   4.779   6.047   1.553  1.1424 -0.8024  1.4178
19667TIP3   OH280491   3.911   4.143   6.110  0.5833 -0.0225  0.4766
19667TIP3    H180492   3.856   4.064   6.111  0.2797  0.1829  0.1446
19667TIP3    H280493   3.898   4.180   6.023  0.8781  0.2890  0.5642
19668TIP3   OH280494   0.504   4.964  16.851  0.1057  0.1737 -0.1640
19668TIP3    H180495   0.501   5.058  16.836  2.0374  0.3008  0.0620
19668TIP3    H280496   0.468   4.952  16.939 -0.3330  0.6725 -0.2744
19669TIP3   OH280497   3.916   1.016  11.493  0.4185 -0.4489  0.0532
19669TIP3    H180498   3.887   0.986  11.407 -0.5778 -0.9836  0.5613
19669TIP3    H280499   3.963   1.097  11.476  1.8644 -1.5225 -1.1977
19670TIP3   OH280500   4.214   0.773   1.008  0.2757 -0.4919  0.4730
19670TIP3    H180501   4.264   0.695   1.032 -0.3122 -1.0958 -0.2149
19670TIP3    H280502   4.193   0.760   0.915  1.3327  1.1375  0.0009
19671TIP3   OH280503   0.616   3.818  14.651 -0.1046 -0.1889 -0.2121
19671TIP3    H180504   0.561   3.839  14.576 -0.4120 -3.6499 -1.0529
19671TIP3    H280505   0.646   3.728  14.634  2.3963  0.1065  2.2674
19672TIP3   OH280506   5.799   2.334   5.631 -0.3868  0.7654 -0.3155
19672TIP3    H180507   5.883   2.342   5.676  0.0846 -0.6545 -0.8990
19672TIP3    H280508   5.733   2.349   5.698  0.3315  1.4265  0.2449
19673TIP3   OH280509   5.836   0.993   4.090 -0.7224  0.2659 -0.3933
19673TIP3    H180510   5.796   0.999   4.003 -1.5478 -0.4857 -0.0688
19673TIP3    H280511   5.771   1.027   4.150  0.1458  1.5036 -0.1370
19674TIP3   OH280512   2.174   4.853  15.222  0.3959  0.2402 -0.7803
19674TIP3    H180513   2.235   4.787  15.255 -1.3019 -0.2243  1.5430
19674TIP3    H280514   2.192   4.931  15.275 -0.5959  0.2887 -0.5049
19675TIP3   OH280515   4.061   3.774   5.305  0.1391  0.2849 -0.2973
19675TIP3    H180516   4.030   3.839   5.368 -2.0809 -1.2497  0.2338
19675TIP3    H280517   4.050   3.690   5.349 -0.9901 -0.7837 -2.5232
19676TIP3   OH280518   1.826   2.140   2.558 -0.0972 -0.3479 -0.3629
19676TIP3    H180519   1.839   2.231   2.532 -1.3041 -0.2864 -0.8127
19676TIP3    H280520   1.833   2.141   2.653 -1.5980  0.5023 -0.2401
19677TIP3   OH280521   3.074   1.271   5.121  0.8048 -1.0212 -0.0359
19677TIP3    H180522   3.114   1.354   5.095 -0.5906  0.3567  2.0349
19677TIP3    H280523   2.990   1.269   5.076 -1.4356  1.1778  3.7236
19678TIP3   OH280524   4.222   2.401   5.828 -0.2346 -0.3777  0.4852
19678TIP3    H180525   4.205   2.443   5.912  0.5818 -0.3586  0.6492
19678TIP3    H280526   4.137   2.370   5.798 -0.6117  0.0908  1.0642
19679TIP3   OH280527   6.117   4.485   3.823 -0.4854  0.5160  0.8895
19679TIP3    H180528   6.143   4.544   3.894 -1.2794 -0.4406  2.0172
19679TIP3    H280529   6.028   4.511   3.801 -0.7557 -0.0831  1.2353
19680TIP3   OH280530   6.279   5.624  12.084 -0.1869  0.0617 -0.0812
19680TIP3    H180531   6.245   5.535  12.093  0.2623 -0.0393  0.6339
19680TIP3    H280532   6.348   5.617  12.018 -0.5010 -0.0254 -0.3992
19681TIP3   OH280533   0.633   6.811  11.667  0.2751 -1.0920 -0.1540
19681TIP3    H180534   0.728   6.815  11.680  0.4100 -1.4657 -1.0195
19681TIP3    H280535   0.615   6.718  11.651 -0.3647 -1.1746  0.9846
19682TIP3   OH280536   0.360   6.793   0.046 -0.2260 -0.0732 -0.4463
19682TIP3    H180537   0.410   6.829  -0.028  0.2857  1.0785  0.4452
19682TIP3    H280538   0.326   6.710   0.013  1.6487 -0.5288 -1.3186
19683TIP3   OH280539   2.630   3.533   1.513  0.2308 -0.1878  0.0571
19683TIP3    H180540   2.676   3.489   1.441  0.3681  0.3678 -0.2012
19683TIP3    H280541   2.685   3.517   1.589  1.8924  2.0629 -0.5937
19684TIP3   OH280542   5.879   1.843  12.371 -0.0091 -0.0051 -0.3626
19684TIP3    H180543   5.851   1.913  12.312  1.4122 -0.3799 -1.5091
19684TIP3    H280544   5.909   1.773  12.313 -0.0636 -1.0021  0.7990
19685TIP3   OH280545   3.421   1.314   5.078 -0.2886 -0.0509 -0.4598
19685TIP3    H180546   3.355   1.381   5.093  0.0629  0.3120 -0.5072
19685TIP3    H280547   3.473   1.347   5.004 -0.5625 -0.7208 -0.9498
19686TIP3   OH280548   5.591   6.275  13.716 -0.6040  0.1965 -0.4705
19686TIP3    H180549   5.610   6.181  13.720 -0.4401  0.2525  0.3447
19686TIP3    H280550   5.566   6.292  13.626 -1.4271 -0.7862 -0.4211
19687TIP3   OH280551   1.319   5.537   2.764  0.1704  0.3643  0.0980
19687TIP3    H180552   1.247   5.586   2.724  1.6543  0.7534 -2.1707
19687TIP3    H280553   1.340   5.469   2.700  2.1826  0.5864  0.5050
19688TIP3   OH280554   5.785   0.327  16.503 -0.6040  0.0029 -0.0048
19688TIP3    H180555   5.834   0.256  16.544  0.2591  0.0758 -0.8780
19688TIP3    H280556   5.706   0.336  16.556  0.1899 -0.3151  1.2567
19689TIP3   OH280557   3.422   3.169   5.512 -0.2319 -0.0363  0.0197
19689TIP3    H180558   3.499   3.153   5.566  0.0520  0.8209 -0.1218
19689TIP3    H280559   3.404   3.262   5.522 -2.7382 -0.6721  1.9750
19690TIP3   OH280560   5.252   5.961   1.740  0.2631  0.0014 -0.3842
19690TIP3    H180561   5.244   6.026   1.811  0.9728  0.9008 -1.1243
19690TIP3    H280562   5.219   5.880   1.779 -0.7249  0.8197  0.5300
19691TIP3   OH280563   4.863   3.962   5.172 -0.6132  0.5102  0.2248
19691TIP3    H180564   4.776   3.942   5.137 -0.3126  0.4472 -0.4806
19691TIP3    H280565   4.853   3.950   5.267 -0.9585 -1.0174  0.0037
19692TIP3   OH280566   4.500   4.737  15.588  0.3118 -0.2802  0.4906
19692TIP3    H180567   4.407   4.715  15.593  0.0053  1.0656  1.1283
19692TIP3    H280568   4.545   4.653  15.587 -0.9373 -0.9544 -0.4884
19693TIP3   OH280569   5.447   1.508   5.673  0.1063 -0.2899 -0.6940
19693TIP3    H180570   5.431   1.429   5.622 -0.0248 -2.0460  1.9389
19693TIP3    H280571   5.402   1.578   5.625  0.3236 -1.7760 -3.1261
19694TIP3   OH280572   2.158   1.666  13.444  0.2038  0.5089  0.1885
19694TIP3    H180573   2.083   1.712  13.409  1.3758  1.9161 -0.5318
19694TIP3    H280574   2.148   1.672  13.539 -0.2858  1.1865  0.0958
19695TIP3   OH280575   3.290   4.339  16.088 -0.4341 -0.2821 -0.3921
19695TIP3    H180576   3.377   4.357  16.052 -0.1933  0.3886  0.5306
19695TIP3    H280577   3.230   4.364  16.018  0.1310 -1.6063 -1.3892
19696TIP3   OH280578   1.484   6.504   2.083 -0.3232 -0.4901 -0.4904
19696TIP3    H180579   1.525   6.581   2.043 -2.8717  0.5649 -1.2033
19696TIP3    H280580   1.531   6.430   2.047  0.4622  0.6402 -1.8373
19697TIP3   OH280581   2.734   4.024   1.973 -0.3454  0.1067  0.1771
19697TIP3    H180582   2.748   3.929   1.963 -0.6459 -0.0139  0.8659
19697TIP3    H280583   2.642   4.031   2.000  0.0859  0.4952  1.5667
19698TIP3   OH280584   3.134   1.042  14.898  0.0001  0.5234  0.0292
19698TIP3    H180585   3.140   1.123  14.847  2.1831  0.7912  0.6757
19698TIP3    H280586   3.214   0.994  14.877 -0.7289 -0.9477  0.5445
19699TIP3   OH280587   6.713   6.306   4.231 -0.2284 -0.0130 -0.3432
19699TIP3    H180588   6.629   6.277   4.268  0.1162 -2.5442 -1.4474
19699TIP3    H280589   6.689   6.363   4.158 -1.0001 -0.4060 -0.4012
19700TIP3   OH280590   0.702   0.235  13.371 -0.0773  0.1956 -0.3042
19700TIP3    H180591   0.735   0.158  13.324  0.8178  2.1344 -2.9925
19700TIP3    H280592   0.781   0.278  13.404 -0.4753  0.5805  0.1432
19701TIP3   OH280593   3.482   2.777  12.906 -0.2105  0.0505  0.4591
19701TIP3    H180594   3.514   2.846  12.847  2.7304 -0.6902  1.1177
19701TIP3    H280595   3.459   2.704  12.848  1.0486 -0.0644  0.1054
19702TIP3   OH280596   4.400   1.014  13.608 -0.2226 -0.0096 -0.0280
19702TIP3    H180597   4.418   1.108  13.613  1.9634 -0.4028  0.0396
19702TIP3    H280598   4.351   0.995  13.687  0.6029  0.8323  0.7021
19703TIP3   OH280599   1.703   3.381  13.104  0.2637 -0.4230  0.0606
19703TIP3    H180600   1.702   3.437  13.027 -0.9639 -1.1219 -0.4532
19703TIP3    H280601   1.793   3.384  13.136  0.3669  1.2823 -0.3531
19704TIP3   OH280602   3.301   6.289  10.951  0.3320 -0.5477 -0.1528
19704TIP3    H180603   3.283   6.251  11.037 -1.7501 -0.9559 -0.7306
19704TIP3    H280604   3.300   6.383  10.965  1.0920 -0.6291  0.4713
19705TIP3   OH280605   6.792   3.966  15.936  0.3446 -0.4874 -0.2294
19705TIP3    H180606   6.741   4.029  15.886 -0.8727  1.3104  3.0914
19705TIP3    H280607   6.881   4.000  15.934 -0.2291  1.1219  1.1718
19706TIP3   OH280608   1.769   4.545  16.629 -0.1260  0.0382 -0.8319
19706TIP3    H180609   1.695   4.605  16.637  0.6152  0.8497  0.0552
19706TIP3    H280610   1.784   4.514  16.718  1.3400  0.7729 -0.8175
19707TIP3   OH280611   5.505   6.152  16.812  0.4447  0.4010 -0.1558
19707TIP3    H180612   5.589   6.116  16.839  1.0788  1.2560 -0.9382
19707TIP3    H280613   5.502   6.138  16.717 -0.2934  0.3768 -0.1313
19708TIP3   OH280614   4.242   6.338  12.376  0.2551 -0.3731 -0.2176
19708TIP3    H180615   4.256   6.245  12.396 -1.2581 -0.3674  0.9664
19708TIP3    H280616   4.310   6.383  12.426 -0.1222 -0.7177  0.6012
19709TIP3   OH280617   4.211   4.395   1.621  0.0836 -0.0631 -0.3384
19709TIP3    H180618   4.183   4.322   1.676  3.6033 -1.7374 -0.6566
19709TIP3    H280619   4.230   4.466   1.683 -1.1202 -0.1418  0.1388
19710TIP3   OH280620   3.761   6.583  11.046 -0.2896  0.0172 -0.2269
19710TIP3    H180621   3.844   6.545  11.020 -0.3407 -1.3135  1.5204
19710TIP3    H280622   3.760   6.669  11.003  1.2448 -0.6057 -1.5609
19711TIP3   OH280623   5.264   3.883  11.749 -0.1330  0.3315  0.4894
19711TIP3    H180624   5.216   3.858  11.828 -0.1191 -1.3824 -0.0225
19711TIP3    H280625   5.197   3.895  11.682 -0.1466  1.8051  0.7584
19712TIP3   OH280626   0.034   4.303   5.450 -0.2332  0.1832  0.7294
19712TIP3    H180627   0.062   4.339   5.535  1.2069 -2.0360  1.2624
19712TIP3    H280628   0.108   4.320   5.392 -0.0233 -0.8493  0.6885
19713TIP3   OH280629   4.655   0.352  12.672  0.6213  0.0546 -0.2753
19713TIP3    H180630   4.689   0.336  12.584 -1.0784  2.1125 -1.3608
19713TIP3    H280631   4.643   0.265  12.710  1.2786 -0.8566 -2.1012
19714TIP3   OH280632   0.009   1.845  11.104 -0.3827 -0.3938 -0.0334
19714TIP3    H180633  -0.060   1.906  11.132 -1.4525 -1.5788 -0.0244
19714TIP3    H280634   0.013   1.856  11.009 -0.8176 -0.5469 -0.0734
19715TIP3   OH280635   2.293   4.291  12.323  0.0069 -0.9733  0.3864
19715TIP3    H180636   2.352   4.352  12.367 -1.4133  1.4829 -0.9600
19715TIP3    H280637   2.350   4.226  12.283  1.8137  1.1117 -0.5135
19716TIP3   OH280638   2.437   1.742  13.350 -0.6680  0.2626  0.4477
19716TIP3    H180639   2.431   1.813  13.413 -2.2170  1.5353 -1.0854
19716TIP3    H280640   2.346   1.717  13.333 -0.1208 -2.4090  1.3112
19717TIP3   OH280641   2.057   5.553   2.146  0.0958 -0.3865 -0.0601
19717TIP3    H180642   1.985   5.490   2.153 -1.3413  1.1946 -0.4984
19717TIP3    H280643   2.056   5.582   2.055  1.3038 -0.3351 -0.0755
19718TIP3   OH280644   1.217   5.927   0.639  0.6048 -0.2385  0.1929
19718TIP3    H180645   1.156   5.930   0.713  2.0163  1.9596  1.3193
19718TIP3    H280646   1.194   6.003   0.585  1.3605 -0.2765 -0.1865
19719TIP3   OH280647   3.386   5.846  11.717  0.0087  0.4059 -0.1894
19719TIP3    H180648   3.343   5.781  11.662  1.0499  0.3088 -0.8899
19719TIP3    H280649   3.395   5.923  11.660  0.4031  0.5568  0.0767
19720TIP3   OH280650   2.478   3.600  16.029  0.2939  0.3228  0.3580
19720TIP3    H180651   2.518   3.685  16.048  3.1553 -0.6023 -1.1448
19720TIP3    H280652   2.432   3.613  15.946  0.5171  0.4837  0.2615
19721TIP3   OH280653   0.396   5.749   0.718  0.1725  0.7502 -0.1511
19721TIP3    H180654   0.368   5.790   0.800 -2.9809 -0.0106 -0.7511
19721TIP3    H280655   0.336   5.785   0.652  0.8611 -0.7266 -1.6187
19722TIP3   OH280656   4.227   0.624  10.558  0.1081  0.0599 -0.8883
19722TIP3    H180657   4.210   0.705  10.606  1.5082 -0.6698  0.9287
19722TIP3    H280658   4.307   0.641  10.509 -0.9712  0.5869 -2.5176
19723TIP3   OH280659   4.902   2.043  16.978 -0.7505  0.1007  0.1711
19723TIP3    H180660   4.953   2.039  17.059  2.3236 -0.0253 -1.6942
19723TIP3    H280661   4.878   1.952  16.961  0.2730 -0.1280 -0.0741
19724TIP3   OH280662   3.421   5.962   0.265  0.2728 -0.2905  0.2469
19724TIP3    H180663   3.445   5.996   0.178  0.9736 -0.7283  0.2652
19724TIP3    H280664   3.464   6.021   0.326  0.3341 -0.3789  0.2892
19725TIP3   OH280665   6.529   0.443   4.135 -0.2138 -0.2448  0.5874
19725TIP3    H180666   6.489   0.480   4.056  0.9438  3.1908  1.5339
19725TIP3    H280667   6.475   0.475   4.207  0.4300 -0.9545  1.3970
19726TIP3   OH280668   2.209   0.819  11.998 -0.5718  0.4567 -0.0609
19726TIP3    H180669   2.303   0.807  11.982 -0.7307  1.4078 -1.8313
19726TIP3    H280670   2.197   0.914  11.999 -1.5177  0.3377  0.0888
19727TIP3   OH280671   1.160   1.298  13.580 -0.3574  0.2248 -0.0491
19727TIP3    H180672   1.119   1.228  13.530 -1.8841  1.3545 -0.4260
19727TIP3    H280673   1.157   1.268  13.671 -0.1717 -0.6034 -0.3206
19728TIP3   OH280674   0.175   3.761  11.681 -0.7235  0.5174  0.4591
19728TIP3    H180675   0.236   3.752  11.608 -0.4865 -0.9440  0.8264
19728TIP3    H280676   0.197   3.846  11.719  0.3875  0.4730 -0.0445
19729TIP3   OH280677   6.561   1.744   2.001  0.4128  0.2100  0.8673
19729TIP3    H180678   6.497   1.681   1.967  0.5927 -0.0006  0.9138
19729TIP3    H280679   6.528   1.829   1.973 -0.2932  0.1647  1.5313
19730TIP3   OH280680   2.000   6.563  10.713 -0.8097  0.0223  0.1514
19730TIP3    H180681   1.908   6.568  10.738 -1.1329 -1.5840 -0.6323
19730TIP3    H280682   1.999   6.521  10.627  0.5786  1.1813 -0.4421
19731TIP3   OH280683   6.798   2.788   0.527 -0.1283  0.0782 -0.3965
19731TIP3    H180684   6.829   2.765   0.615  0.7859 -0.3311 -0.8200
19731TIP3    H280685   6.877   2.785   0.473 -0.5128  1.3862 -1.0239
19732TIP3   OH280686   2.296   4.873  15.736  0.1939 -0.2460  0.1974
19732TIP3    H180687   2.339   4.787  15.740  0.8684  0.1222  0.9182
19732TIP3    H280688   2.304   4.899  15.645  1.3820 -0.2417  0.3007
19733TIP3   OH280689   3.408   5.074   3.561  0.0791 -0.2718 -0.0745
19733TIP3    H180690   3.418   4.990   3.517  2.3416  0.4169 -0.9314
19733TIP3    H280691   3.327   5.111   3.525 -0.8634 -1.9901  0.2242
19734TIP3   OH280692   0.914   6.818  14.166 -0.0296  0.2208  0.8468
19734TIP3    H180693   1.009   6.832  14.169 -0.1703  1.1957  1.0244
19734TIP3    H280694   0.891   6.794  14.256 -0.1488  1.3770  1.1317
19735TIP3   OH280695   3.112   5.593   4.671  0.1785  0.7728  0.3838
19735TIP3    H180696   3.117   5.508   4.714  3.1150  1.1203  0.8360
19735TIP3    H280697   3.065   5.648   4.733 -1.3737 -0.4035  0.2642
19736TIP3   OH280698   3.078   3.506   1.669  0.0706  0.2398  0.3793
19736TIP3    H180699   3.166   3.543   1.668 -0.0899  0.6118 -0.0613
19736TIP3    H280700   3.090   3.416   1.701  0.6276  0.2410  0.1788
19737TIP3   OH280701   1.028   0.272  12.770  0.9326  0.5778 -0.0786
19737TIP3    H180702   1.084   0.327  12.715  3.6039 -2.9215 -1.0316
19737TIP3    H280703   1.074   0.266  12.853 -0.5946  1.7151  0.8907
19738TIP3   OH280704   3.891   2.285   0.729  0.1856  0.7910  0.3382
19738TIP3    H180705   3.917   2.332   0.808  1.0629 -2.1454  1.8522
19738TIP3    H280706   3.966   2.229   0.708 -0.3973  0.8583 -2.0483
19739TIP3   OH280707   2.908   6.703  13.349 -0.2298 -0.2948 -0.4062
19739TIP3    H180708   2.924   6.658  13.266 -1.0093  0.1797 -0.8200
19739TIP3    H280709   2.880   6.633  13.409  1.9741 -0.9164 -0.0472
19740TIP3   OH280710   6.730   4.029   4.383 -0.4303 -0.2397 -0.7233
19740TIP3    H180711   6.693   4.004   4.467  1.3006  0.8736  0.4014
19740TIP3    H280712   6.820   4.055   4.403 -0.1872  0.6339 -2.8187
19741TIP3   OH280713   5.917   0.598   3.881 -0.3383  0.1272 -0.2339
19741TIP3    H180714   5.872   0.644   3.809 -1.6570 -1.2514 -0.3113
19741TIP3    H280715   5.846   0.569   3.938  0.5334 -1.2615  0.1430
19742TIP3   OH280716   4.526   1.992  13.990 -0.0033 -0.0898 -0.0343
19742TIP3    H180717   4.519   2.085  14.008  0.2829  0.1753 -1.2661
19742TIP3    H280718   4.609   1.982  13.944 -0.2242 -0.8907 -0.2798
19743TIP3   OH280719   5.416   3.964   1.320  0.2864 -0.3120 -0.3047
19743TIP3    H180720   5.392   4.015   1.398  0.1193 -0.4946 -0.2381
19743TIP3    H280721   5.421   4.029   1.250  1.3838  0.0037  0.0548
19744TIP3   OH280722   0.747   4.771  13.781  0.4104 -0.0144  0.0233
19744TIP3    H180723   0.748   4.829  13.705  1.7861  1.4390  1.1065
19744TIP3    H280724   0.781   4.688  13.749 -3.0034 -0.7487 -1.9127
19745TIP3   OH280725   1.944   6.770   1.425 -0.2213 -0.0928  0.6565
19745TIP3    H180726   1.968   6.704   1.490 -0.1898 -2.0570 -1.2879
19745TIP3    H280727   2.028   6.806   1.395 -0.1245 -0.7891  0.0879
19746TIP3   OH280728   5.044   2.251   3.819  0.3734 -0.2793 -0.0698
19746TIP3    H180729   5.065   2.160   3.840  0.0820 -0.1196  0.9292
19746TIP3    H280730   5.129   2.292   3.804  0.4876 -0.7827 -0.8272
19747TIP3   OH280731   2.604   3.522  15.222  0.0174  0.1062 -0.2117
19747TIP3    H180732   2.589   3.514  15.316 -0.1903 -0.7644 -0.3176
19747TIP3    H280733   2.698   3.538  15.214 -0.2092  1.7952  0.2240
19748TIP3   OH280734   5.766   3.504  13.547 -0.3956  0.2145  0.5435
19748TIP3    H180735   5.833   3.511  13.615 -0.2895  0.2507  0.4356
19748TIP3    H280736   5.711   3.582  13.560  0.1949  0.7318 -0.0223
19749TIP3   OH280737   1.984   3.794   0.989  0.8697 -0.0068  0.3658
19749TIP3    H180738   1.914   3.746   1.034  1.0443 -0.7081 -0.1014
19749TIP3    H280739   1.946   3.880   0.971 -0.4681 -0.9130 -1.3387
19750TIP3   OH280740   2.123   2.459   5.233 -0.1861  0.4353 -0.2267
19750TIP3    H180741   2.081   2.374   5.246 -0.4294  0.6423  0.3683
19750TIP3    H280742   2.067   2.504   5.171  1.3374 -0.8137 -2.6037
19751TIP3   OH280743   4.617   3.624  11.373  0.2776 -0.2712  0.0054
19751TIP3    H180744   4.671   3.703  11.372  0.9433 -0.7354 -0.7567
19751TIP3    H280745   4.665   3.561  11.320  0.3573 -1.6023  1.6319
19752TIP3   OH280746   0.580   1.116  12.348 -0.4853  0.4573 -0.4280
19752TIP3    H180747   0.525   1.191  12.325 -0.2794  0.6132 -0.4006
19752TIP3    H280748   0.577   1.061  12.269 -1.9507 -0.2911  0.1160
19753TIP3   OH280749   5.788   5.774  13.298  0.7873  0.2214 -0.5246
19753TIP3    H180750   5.712   5.806  13.249  1.0875  0.0947 -1.0745
19753TIP3    H280751   5.757   5.695  13.341  0.4154  0.5323 -0.2099
19754TIP3   OH280752   5.781   1.290  17.082  0.4201  0.1713 -0.2162
19754TIP3    H180753   5.769   1.200  17.114 -1.9259  0.2945 -0.6807
19754TIP3    H280754   5.818   1.278  16.994 -0.6728 -0.3953 -0.6200
19755TIP3   OH280755   3.583   1.424   1.963 -0.2237 -0.1314 -0.2029
19755TIP3    H180756   3.640   1.429   1.886  0.4255 -1.4243  0.1844
19755TIP3    H280757   3.599   1.507   2.009  0.4174  0.0551 -0.7450
19756TIP3   OH280758   1.967   3.742  15.628 -0.1342  0.2477 -0.9850
19756TIP3    H180759   2.030   3.763  15.697 -1.6341 -0.0372  0.4993
19756TIP3    H280760   1.993   3.798  15.554  0.4193  1.8791  0.4026
19757TIP3   OH280761   3.186   1.742  11.484 -0.7375 -0.5261  0.2315
19757TIP3    H180762   3.246   1.761  11.412  0.7337 -1.7513  1.1133
19757TIP3    H280763   3.116   1.691  11.443 -0.8262  0.3028 -0.6667
19758TIP3   OH280764   5.855   2.902   5.970 -0.8265 -0.2949  0.5348
19758TIP3    H180765   5.802   2.845   6.025 -0.5465 -0.9052  0.1732
19758TIP3    H280766   5.923   2.845   5.935 -1.2149  0.0140 -0.7300
19759TIP3   OH280767   2.912   6.107   1.550  0.5365  0.2475 -0.0000
19759TIP3    H180768   2.820   6.087   1.529  1.3271 -0.9595 -2.5877
19759TIP3    H280769   2.932   6.052   1.625 -0.7547  0.2148  0.3358
19760TIP3   OH280770   0.818   2.863   0.104  0.4198  0.0546 -0.0551
19760TIP3    H180771   0.806   2.868   0.009 -0.9859  2.4994  0.2236
19760TIP3    H280772   0.808   2.770   0.124 -1.3152 -0.2255 -2.0496
19761TIP3   OH280773   4.730   5.550   6.344  0.0047 -0.2270 -0.0117
19761TIP3    H180774   4.647   5.572   6.385  1.1203  1.3238  1.4951
19761TIP3    H280775   4.731   5.454   6.341 -0.6206 -0.3446  2.5618
19762TIP3   OH280776   2.556   0.121   4.497  0.6010  0.3925  0.0440
19762TIP3    H180777   2.466   0.153   4.508 -0.2608 -1.5309 -1.2257
19762TIP3    H280778   2.584   0.099   4.586 -0.2403  0.8246  0.4285
19763TIP3   OH280779   3.223   4.528  16.262  0.2939 -1.1093 -0.2051
19763TIP3    H180780   3.245   4.497  16.350  0.6109 -0.1190  0.0642
19763TIP3    H280781   3.251   4.457  16.204 -0.0335 -1.8236  0.4993
19764TIP3   OH280782   0.639   5.151  16.462  0.4356  0.0425 -0.3143
19764TIP3    H180783   0.659   5.091  16.390 -1.3401 -1.9228  0.7505
19764TIP3    H280784   0.691   5.118  16.535 -1.5053 -1.0313  0.6253
19765TIP3   OH280785   6.292   6.659   2.132  0.4580 -0.6948 -0.3899
19765TIP3    H180786   6.380   6.675   2.098  0.3657  0.0787 -0.2752
19765TIP3    H280787   6.235   6.715   2.079  0.1654 -0.3870  0.2466
19766TIP3   OH280788   5.347   5.710   0.299  1.0395 -0.6016 -0.2345
19766TIP3    H180789   5.275   5.646   0.302  0.6977 -0.1756  0.7949
19766TIP3    H280790   5.309   5.786   0.256  0.7213 -0.1916  0.7649
19767TIP3   OH280791   2.083   5.640   3.963 -0.0042  0.8056  0.0819
19767TIP3    H180792   2.031   5.721   3.963 -0.9913  0.1707 -0.3546
19767TIP3    H280793   2.027   5.576   4.007  0.7449  0.3283  0.3425
19768TIP3   OH280794   0.331   4.298   4.873  0.1063  0.1015 -0.2247
19768TIP3    H180795   0.380   4.225   4.836 -0.7733 -0.6697  0.1093
19768TIP3    H280796   0.257   4.257   4.918  1.8637  0.8425  3.6141
19769TIP3   OH280797   4.982   4.320  12.115  0.4535 -0.0852  0.2963
19769TIP3    H180798   4.994   4.390  12.180  1.4301 -1.1631  1.3115
19769TIP3    H280799   5.055   4.260  12.131 -0.8996 -1.8245  0.0702
19770TIP3   OH280800   1.709   6.071  12.824  0.0539 -0.0779  0.0413
19770TIP3    H180801   1.722   5.983  12.858 -1.6585 -0.4802 -0.3122
19770TIP3    H280802   1.726   6.063  12.730  1.4112  0.3122  0.2382
19771TIP3   OH280803   5.670   2.501  11.787  0.8066  0.2042  0.2658
19771TIP3    H180804   5.709   2.414  11.786  1.4494  0.4960  0.2873
19771TIP3    H280805   5.743   2.561  11.794  0.5311  0.8542 -1.8903
19772TIP3   OH280806   4.151   3.248   3.983 -0.0746 -0.2472 -0.6066
19772TIP3    H180807   4.063   3.264   3.949 -0.5102 -1.8796 -0.2731
19772TIP3    H280808   4.209   3.273   3.911 -0.7743  1.3009 -0.6541
19773TIP3   OH280809   0.011   1.647   1.414  0.1181 -0.1435  0.5599
19773TIP3    H180810   0.027   1.585   1.343 -1.2236 -0.1858  0.2682
19773TIP3    H280811  -0.058   1.705   1.380  2.4217  2.5054  0.2083
19774TIP3   OH280812   5.660   0.728   6.371  0.1725 -0.1505 -0.0596
19774TIP3    H180813   5.636   0.813   6.408  1.0781 -0.3840  1.0873
19774TIP3    H280814   5.582   0.698   6.325  0.4157  2.1441 -2.0411
19775TIP3   OH280815   4.808   1.578   2.077 -0.3111 -0.0109  0.8468
19775TIP3    H180816   4.725   1.626   2.076  0.3328  1.2234 -3.2325
19775TIP3    H280817   4.793   1.502   2.021  1.2093  0.0750  0.2792
19776TIP3   OH280818   0.432   3.727   3.905 -0.0025  0.0001  0.1717
19776TIP3    H180819   0.451   3.758   3.816  2.1040  1.2991  1.0410
19776TIP3    H280820   0.337   3.739   3.914 -0.3891 -1.0283 -2.2111
19777TIP3   OH280821   1.384   2.848  11.915  0.4396  0.2019  0.0339
19777TIP3    H180822   1.437   2.803  11.850  1.6258 -0.2478  1.2915
19777TIP3    H280823   1.342   2.920  11.867  0.3145 -0.8658 -1.4781
19778TIP3   OH280824   3.883   1.129  15.887 -0.2993 -0.2219  0.8588
19778TIP3    H180825   3.963   1.182  15.889  0.2207 -1.0074  0.7349
19778TIP3    H280826   3.878   1.095  15.798 -1.6469  1.1500  0.3864
19779TIP3   OH280827   6.419   1.187  13.660 -0.9024 -0.7372 -0.1264
19779TIP3    H180828   6.404   1.274  13.696 -1.6701 -1.3646  1.1082
19779TIP3    H280829   6.482   1.200  13.589  1.8255  0.3222  2.4196
19780TIP3   OH280830   2.824   1.982  14.699  0.3576  0.1518  0.3506
19780TIP3    H180831   2.873   1.965  14.780  1.4691 -0.0760 -0.3676
19780TIP3    H280832   2.887   2.026  14.642 -0.8844  1.7657  0.1838
19781TIP3   OH280833   2.082   0.768  11.318 -0.3513  0.2014 -0.1284
19781TIP3    H180834   2.123   0.743  11.235 -2.8350 -2.1082 -0.7305
19781TIP3    H280835   2.000   0.809  11.293 -0.4534  0.8430  1.1870
19782TIP3   OH280836   4.014   0.434   2.769 -0.1002  0.1336 -0.4529
19782TIP3    H180837   4.016   0.365   2.703  1.6881  2.1189 -2.5376
19782TIP3    H280838   4.105   0.445   2.796 -0.1820  2.5128 -1.0601
19783TIP3   OH280839   0.391   3.981  13.963 -0.2458  0.0006  0.1497
19783TIP3    H180840   0.462   4.046  13.953 -0.9481  0.6836 -0.4213
19783TIP3    H280841   0.362   3.963  13.874  0.5587 -1.8001  0.2461
19784TIP3   OH280842   2.637   4.466   6.546 -0.0619 -0.4581  0.4063
19784TIP3    H180843   2.732   4.480   6.552  0.0430 -0.2583 -1.3315
19784TIP3    H280844   2.599   4.553   6.559  0.0841 -0.2556 -0.4878
19785TIP3   OH280845   0.819   5.246  14.736 -0.2650 -0.0801 -0.1599
19785TIP3    H180846   0.849   5.299  14.662 -0.1518  0.6522  0.3986
19785TIP3    H280847   0.891   5.186  14.754 -0.1816 -0.0699 -0.4638
19786TIP3   OH280848   0.403   1.659   2.609  0.2110 -0.0796 -0.3247
19786TIP3    H180849   0.497   1.668   2.627 -0.3288 -0.4745  3.1107
19786TIP3    H280850   0.377   1.745   2.574  1.3246  1.0075  1.4107
19787TIP3   OH280851   5.705   2.520   1.101  0.3953  0.8306  0.2031
19787TIP3    H180852   5.624   2.471   1.112  1.2930 -0.6764  0.2437
19787TIP3    H280853   5.686   2.606   1.138 -0.4893 -0.2022  2.2500
19788TIP3   OH280854   0.761   4.627  16.045 -0.6246  0.0882  0.3176
19788TIP3    H180855   0.797   4.715  16.034 -2.0243  0.7596  0.8895
19788TIP3    H280856   0.810   4.590  16.119  0.8245 -0.0852 -0.7246
19789TIP3   OH280857   1.348   1.708   6.279  0.1189  0.1176  0.2006
19789TIP3    H180858   1.317   1.791   6.314  2.8747  0.6453  1.5884
19789TIP3    H280859   1.339   1.646   6.352  2.1461  0.2674  0.6060
19790TIP3   OH280860   5.798   6.074   0.482 -0.4786  0.1123  0.1090
19790TIP3    H180861   5.711   6.048   0.451 -0.1133 -0.8651 -0.1173
19790TIP3    H280862   5.852   6.072   0.403 -0.2447  0.7268  0.2507
19791TIP3   OH280863   0.104   3.849   0.329  0.6320  0.0513  0.2869
19791TIP3    H180864   0.039   3.780   0.314  1.3606 -0.6659  0.3540
19791TIP3    H280865   0.093   3.872   0.421  0.9597 -0.5961  0.4970
19792TIP3   OH280866   6.083   1.378   2.005 -0.0349 -0.1607 -0.6971
19792TIP3    H180867   6.087   1.287   2.037 -2.8953 -0.2273 -0.4630
19792TIP3    H280868   5.991   1.401   2.008  0.7832  3.3000  0.6677
19793TIP3   OH280869   0.415   4.897  15.534 -0.7802  0.0501  0.3221
19793TIP3    H180870   0.384   4.807  15.546 -0.7593  0.2740  2.1074
19793TIP3    H280871   0.336   4.948  15.516 -0.6858 -0.4731 -1.6837
19794TIP3   OH280872   0.909   6.207  11.373  0.3710 -0.4306  0.5009
19794TIP3    H180873   0.981   6.202  11.311  0.2480  1.0130  0.2212
19794TIP3    H280874   0.857   6.128  11.356  1.3393 -0.9804  0.0463
19795TIP3   OH280875   3.082   0.136   1.187  0.2237 -0.1808  0.2452
19795TIP3    H180876   3.162   0.170   1.147 -0.0129 -0.3242 -0.3559
19795TIP3    H280877   3.029   0.214   1.205  0.5364 -0.0771  0.7408
19796TIP3   OH280878   0.721   5.888  14.773 -0.1009  0.4885 -0.4189
19796TIP3    H180879   0.676   5.806  14.752 -1.8226  1.0128  1.0980
19796TIP3    H280880   0.683   5.916  14.857  1.0305  2.4201 -0.5146
19797TIP3   OH280881   3.682   2.357   1.731 -0.2135  0.1853  0.1402
19797TIP3    H180882   3.668   2.416   1.657 -0.0254  1.4111  1.0808
19797TIP3    H280883   3.748   2.295   1.699 -1.0097 -0.0305 -1.1326
19798TIP3   OH280884   3.677   2.966  14.894 -0.1004 -0.5025 -0.4037
19798TIP3    H180885   3.758   2.971  14.842 -0.9805 -0.6740 -1.8321
19798TIP3    H280886   3.628   3.044  14.870 -0.7392 -0.8365 -0.2019
19799TIP3   OH280887   3.959   2.888   3.960 -0.2368 -0.3342  0.2933
19799TIP3    H180888   3.919   2.818   3.909 -1.0815 -0.4860  1.1500
19799TIP3    H280889   4.049   2.858   3.973 -0.4580 -1.0383  0.2451
19800TIP3   OH280890   2.561   5.746   5.859 -0.2100  0.2520  0.0370
19800TIP3    H180891   2.656   5.729   5.860 -0.3352 -0.7632 -2.3892
19800TIP3    H280892   2.545   5.793   5.941  2.6379  1.7854 -0.2192
19801TIP3   OH280893   3.279   1.242  17.155  0.3619 -0.0666  0.2896
19801TIP3    H180894   3.280   1.149  17.179 -0.4909 -0.4327 -1.0683
19801TIP3    H280895   3.314   1.244  17.066 -0.6355  0.7857 -0.0953
19802TIP3   OH280896   2.555   1.604  12.283 -0.6936 -0.4888  0.0755
19802TIP3    H180897   2.636   1.652  12.270 -1.6621  0.7080 -1.6197
19802TIP3    H280898   2.529   1.625  12.373 -0.1868  0.7422 -0.0567
19803TIP3   OH280899   3.867   6.605  12.650  0.1764  0.3611 -0.5077
19803TIP3    H180900   3.821   6.683  12.681  0.8882  0.4137  0.4272
19803TIP3    H280901   3.797   6.545  12.625 -0.3881  0.8780 -0.1908
19804TIP3   OH280902   2.535   5.990   0.766 -0.0131  0.2888  0.6415
19804TIP3    H180903   2.552   6.024   0.854  0.4817 -1.0423  1.0728
19804TIP3    H280904   2.534   5.895   0.776  0.6364  0.1001 -0.8952
19805TIP3   OH280905   2.806   0.529   1.437 -0.0683  0.3329 -0.1204
19805TIP3    H180906   2.733   0.510   1.378  0.1001 -1.6850  0.3023
19805TIP3    H280907   2.793   0.621   1.461 -1.7507  0.3650 -1.0438
19806TIP3   OH280908   5.782   5.662  14.268  0.0106 -0.7886 -0.6584
19806TIP3    H180909   5.877   5.661  14.259  0.0843  1.2281 -0.4677
19806TIP3    H280910   5.762   5.589  14.327  1.2159 -2.5538 -2.4091
19807TIP3   OH280911   4.830   1.795  12.240  0.1656  0.0264 -0.0743
19807TIP3    H180912   4.868   1.874  12.200 -0.4598  0.3841  0.0313
19807TIP3    H280913   4.889   1.773  12.312  0.7206 -0.0056 -0.5331
19808TIP3   OH280914   2.384   5.609   5.682 -0.7264 -0.2125  0.0603
19808TIP3    H180915   2.470   5.604   5.641 -1.4827 -1.5408 -1.4474
19808TIP3    H280916   2.368   5.703   5.693  1.1307  0.0308  0.8902
19809TIP3   OH280917   3.865   2.974  10.847 -0.0533  0.3981 -0.5170
19809TIP3    H180918   3.878   2.928  10.764  0.1899 -0.8009  0.1792
19809TIP3    H280919   3.857   2.905  10.912 -0.5895  1.3254  0.4192
19810TIP3   OH280920   4.996   1.386  12.358  0.0536  0.8283  0.3896
19810TIP3    H180921   4.999   1.293  12.338  0.8305  1.2954 -1.8566
19810TIP3    H280922   4.965   1.391  12.448 -1.7979 -1.5329 -0.0759
19811TIP3   OH280923   2.284   4.796  12.223  0.1471 -0.1900  0.0451
19811TIP3    H180924   2.286   4.793  12.127  0.1307 -0.6423  0.0595
19811TIP3    H280925   2.369   4.760  12.249 -0.7753 -2.2934  0.2482
19812TIP3   OH280926   5.968   2.120  17.085 -0.4628 -0.1708  0.1318
19812TIP3    H180927   5.978   2.194  17.146 -0.6303 -0.2830  0.2942
19812TIP3    H280928   6.047   2.068  17.099 -0.6871 -0.4075  0.5419
19813TIP3   OH280929   6.108   2.354  11.828  0.1257 -0.1152 -0.0675
19813TIP3    H180930   6.201   2.339  11.839  0.1983 -0.0115 -0.5340
19813TIP3    H280931   6.094   2.445  11.856 -0.1531 -0.7052  1.7940
19814TIP3   OH280932   4.282   0.369   2.321 -0.2538  0.2284  0.8856
19814TIP3    H180933   4.338   0.308   2.272 -0.0406  1.7981 -0.8727
19814TIP3    H280934   4.331   0.451   2.322 -1.3183  0.8664  1.6889
19815TIP3   OH280935   6.371   5.158   3.278  0.0558 -0.7194  0.3384
19815TIP3    H180936   6.325   5.143   3.360  0.4449 -0.8100  0.5395
19815TIP3    H280937   6.419   5.077   3.261  1.2200 -0.1440  0.8287
19816TIP3   OH280938   0.714   6.332   5.798  0.2182  0.2307 -0.1119
19816TIP3    H180939   0.763   6.390   5.739  0.7709  1.2609  1.3086
19816TIP3    H280940   0.773   6.319   5.873 -0.6038 -0.7532  0.3743
19817TIP3   OH280941   0.313   1.693   5.522  0.0974  0.8230 -0.0625
19817TIP3    H180942   0.226   1.679   5.484 -0.8435 -0.2683  2.3441
19817TIP3    H280943   0.312   1.784   5.550 -0.8141  0.4513  1.1766
19818TIP3   OH280944   4.229   0.715   5.032 -0.2146 -0.2982  0.2621
19818TIP3    H180945   4.149   0.666   5.049 -0.5396 -0.5551 -1.8726
19818TIP3    H280946   4.199   0.803   5.010  0.1558 -0.0638  0.6999
19819TIP3   OH280947   4.803   1.346  14.660 -0.1633  0.2660 -0.0118
19819TIP3    H180948   4.837   1.429  14.628 -1.1026 -0.0144 -1.8301
19819TIP3    H280949   4.844   1.334  14.745 -0.0418  2.6052  0.2839
19820TIP3   OH280950   2.826   2.438   5.581 -0.2560  0.4313  0.0383
19820TIP3    H180951   2.893   2.507   5.579 -0.7580  0.8806 -1.8000
19820TIP3    H280952   2.875   2.357   5.571  0.3631  0.4709  2.4523
19821TIP3   OH280953   4.286   2.396   4.575 -0.5203 -0.2296  1.1916
19821TIP3    H180954   4.349   2.386   4.504 -2.1178 -1.2511 -0.0965
19821TIP3    H280955   4.306   2.482   4.612  4.4448 -2.2376  3.6243
19822TIP3   OH280956   5.810   0.315  11.981 -0.2985  0.2307  0.0877
19822TIP3    H180957   5.863   0.256  12.036  0.5756  1.9521  1.1290
19822TIP3    H280958   5.830   0.288  11.892  3.5350  1.7925  0.3884
19823TIP3   OH280959   6.143   6.613  15.838  0.4497  0.3043  0.2455
19823TIP3    H180960   6.069   6.562  15.871  0.9615 -0.8075 -0.2835
19823TIP3    H280961   6.124   6.703  15.863 -0.0275 -0.2678  2.0395
19824TIP3   OH280962   0.255   1.807  14.957  0.5780  0.0036 -0.5125
19824TIP3    H180963   0.317   1.818  15.028 -1.0535 -0.1071  0.9575
19824TIP3    H280964   0.169   1.824  14.996 -0.3215  0.3557 -2.5334
19825TIP3   OH280965   6.124   5.466   2.422  0.0240  0.0386  0.3691
19825TIP3    H180966   6.078   5.423   2.349  0.8328 -0.2849  0.0460
19825TIP3    H280967   6.217   5.456   2.401  0.2502  0.4401  1.1673
19826TIP3   OH280968   5.063   4.706  13.959  0.7417 -0.2470  0.0429
19826TIP3    H180969   5.044   4.797  13.940  1.1403 -0.4023 -1.1515
19826TIP3    H280970   5.050   4.660  13.876 -2.4273 -1.7891  1.3034
19827TIP3   OH280971   2.114   4.736  12.439 -0.3606  0.2805 -0.1621
19827TIP3    H180972   2.078   4.825  12.443  1.0473  0.9305 -1.6468
19827TIP3    H280973   2.152   4.729  12.352  0.0815 -1.5849  0.1566
19828TIP3   OH280974   4.983   3.261  11.927  0.2491  0.6148 -0.3495
19828TIP3    H180975   5.068   3.256  11.883  0.3794  1.8188 -0.2401
19828TIP3    H280976   4.928   3.312  11.867 -0.9688 -1.7137 -1.2950
19829TIP3   OH280977   4.045   3.803  15.712 -0.0325 -0.0398 -0.2228
19829TIP3    H180978   4.072   3.730  15.768 -0.6041 -0.1983 -0.1498
19829TIP3    H280979   4.032   3.764  15.626  0.7343  0.1841 -0.4471
19830TIP3   OH280980   3.798   1.619   4.012 -0.3580 -0.3877  0.4820
19830TIP3    H180981   3.858   1.684   4.049 -0.2602  0.1653 -0.6251
19830TIP3    H280982   3.812   1.625   3.918  0.3689 -2.7419  0.4254
19831TIP3   OH280983   6.658   6.244  15.030  0.1995 -0.3722 -0.1158
19831TIP3    H180984   6.719   6.294  14.976  1.7224 -2.2554 -0.1670
19831TIP3    H280985   6.648   6.161  14.984 -0.9580 -0.7854  0.8739
19832TIP3   OH280986   4.880   3.405  13.284  0.6193  0.1497  0.3515
19832TIP3    H180987   4.955   3.457  13.253  1.1373 -0.0767  1.2068
19832TIP3    H280988   4.920   3.331  13.330 -0.1315 -0.2252  0.3976
19833TIP3   OH280989   3.385   1.050  15.729 -0.0214  0.1302 -0.1047
19833TIP3    H180990   3.464   1.075  15.778  0.7740 -1.0874 -0.7427
19833TIP3    H280991   3.414   1.049  15.637 -0.9357  0.2365 -0.3945
19834TIP3   OH280992   3.143   0.365  11.264 -0.3085  0.0515 -0.5943
19834TIP3    H180993   3.132   0.454  11.228  0.3335 -0.2775 -1.6408
19834TIP3    H280994   3.112   0.371  11.354 -0.8763  1.1899 -0.8610
19835TIP3   OH280995   5.599   4.694  11.225  0.0613  0.0456 -0.1574
19835TIP3    H180996   5.617   4.610  11.267 -1.9380  1.1369  3.0858
19835TIP3    H280997   5.667   4.703  11.158  1.0850 -3.5373  0.3164
19836TIP3   OH280998   1.190   0.672  13.983 -0.0620  0.0353  0.0807
19836TIP3    H180999   1.279   0.693  13.953  0.7827 -0.3569  2.1998
19836TIP3    H281000   1.201   0.649  14.075 -2.5471  1.2840  0.7435
19837TIP3   OH281001   5.041   1.295  12.757  0.6542 -0.9609 -0.2833
19837TIP3    H181002   5.106   1.240  12.800  0.2869 -1.6334 -0.5879
19837TIP3    H281003   5.014   1.246  12.680  1.2795  0.2182 -1.2825
19838TIP3   OH281004   4.434   0.274   3.921 -0.7873  0.7087  0.7774
19838TIP3    H181005   4.505   0.306   3.976  0.3940 -0.7373  0.1079
19838TIP3    H281006   4.415   0.347   3.862  1.5584  0.4121 -0.4118
19839TIP3   OH281007   5.379   1.844   3.596 -0.1458 -0.2265  0.2744
19839TIP3    H181008   5.384   1.915   3.532  1.7539 -0.4901  0.0846
19839TIP3    H281009   5.307   1.789   3.565 -0.8447  0.9627 -0.2571
19840TIP3   OH281010   1.109   3.885   0.925 -0.4265 -0.2701  0.0782
19840TIP3    H181011   1.055   3.841   0.990 -0.9983 -1.3290 -1.0915
19840TIP3    H281012   1.199   3.859   0.947 -0.3531  1.5797  2.0830
19841TIP3   OH281013   5.042   5.517   1.000 -0.0529 -0.0080 -0.1191
19841TIP3    H181014   5.104   5.530   1.072 -0.0698 -1.0754  0.0840
19841TIP3    H281015   4.979   5.454   1.033 -0.8532  0.5328 -0.5831
19842TIP3   OH281016   6.621   1.655  12.659  0.3529 -0.0246 -0.4530
19842TIP3    H181017   6.654   1.565  12.654  0.1494 -0.0825 -0.8500
19842TIP3    H281018   6.567   1.657  12.738 -2.2558 -1.1632 -2.1124
19843TIP3   OH281019   3.873   5.769  13.465 -0.1956 -0.5264 -0.3171
19843TIP3    H181020   3.855   5.791  13.556 -0.3010 -2.2311  0.0965
19843TIP3    H281021   3.798   5.714  13.438  0.7047 -1.5101 -0.8648
19844TIP3   OH281022   0.329   4.696  11.879  0.2868 -0.1724  0.0168
19844TIP3    H181023   0.321   4.692  11.784  0.2745  0.2521  0.0006
19844TIP3    H281024   0.241   4.676  11.911 -0.1680  1.5913 -0.1043
19845TIP3   OH281025   2.164   2.050  13.096  0.4819  0.1326 -0.3965
19845TIP3    H181026   2.145   2.144  13.104  2.0369  0.6167 -1.8953
19845TIP3    H281027   2.098   2.017  13.035 -0.1565  0.2215  0.2466
19846TIP3   OH281028   5.860   3.759  15.349  0.5480  0.3842 -0.0178
19846TIP3    H181029   5.825   3.829  15.403  0.1408 -0.5536  0.9700
19846TIP3    H281030   5.887   3.801  15.267 -0.0818  1.6028  0.4010
19847TIP3   OH281031   0.336   3.613   3.614 -1.0050 -0.2941  0.4671
19847TIP3    H181032   0.430   3.614   3.597 -0.8704  0.6223  1.1868
19847TIP3    H281033   0.306   3.698   3.584 -1.7128 -0.8176 -0.3078
19848TIP3   OH281034   5.621   5.060  14.324 -0.6772  0.7292  0.1901
19848TIP3    H181035   5.702   5.048  14.374  0.5548  1.1711 -1.6775
19848TIP3    H281036   5.584   5.141  14.358 -1.2334 -0.3330  2.2264
19849TIP3   OH281037   4.442   5.851  15.287  0.1774 -0.2217  0.8045
19849TIP3    H181038   4.500   5.780  15.314  1.3793  0.2217 -0.5415
19849TIP3    H281039   4.445   5.913  15.359  1.6771 -0.0368  0.6060
19850TIP3   OH281040   5.093   5.759  13.545  0.0288 -0.0779 -0.1937
19850TIP3    H181041   5.183   5.757  13.577  0.0497  1.2393 -0.1740
19850TIP3    H281042   5.101   5.742  13.451  0.1283 -1.8749  0.1081
19851TIP3   OH281043   5.303   4.132  15.990  0.1684  0.0189  0.1688
19851TIP3    H181044   5.270   4.049  15.955  1.4027 -0.0755 -0.8159
19851TIP3    H281045   5.331   4.111  16.079  2.5103 -1.1802 -0.7941
19852TIP3   OH281046   6.023   2.798   5.199 -0.7202  0.1199 -0.0549
19852TIP3    H181047   6.011   2.863   5.130 -0.5962 -0.7834 -0.9327
19852TIP3    H281048   5.972   2.832   5.273  1.1327  2.3361  0.2623
19853TIP3   OH281049   3.548   2.285   5.797  0.9719 -0.0764 -0.2747
19853TIP3    H181050   3.538   2.302   5.704  1.3459  0.9284 -0.1320
19853TIP3    H281051   3.559   2.371   5.837 -0.2241 -0.4034  0.8247
19854TIP3   OH281052   4.855   3.617  16.007  0.2904 -0.5565  0.2920
19854TIP3    H181053   4.948   3.599  15.990  0.3115 -1.0313  0.8677
19854TIP3    H281054   4.809   3.570  15.938  0.4160 -1.6095  0.9093
19855TIP3   OH281055   6.787   0.083  14.701 -0.0901  0.4289 -0.1951
19855TIP3    H181056   6.790   0.137  14.780  1.0571  0.1460 -0.0370
19855TIP3    H281057   6.702   0.039  14.705  0.1623  0.0496  1.1284
19856TIP3   OH281058   5.353   5.181   4.687  0.6669 -0.1710  0.0232
19856TIP3    H181059   5.314   5.152   4.605 -0.2913 -0.2568  0.5115
19856TIP3    H281060   5.447   5.164   4.676  0.7876  1.6411 -1.8056
19857TIP3   OH281061   4.637   2.599   2.079  0.2608  0.0309  0.4734
19857TIP3    H181062   4.558   2.603   2.025  0.5727  0.8536  0.0722
19857TIP3    H281063   4.709   2.610   2.017  0.6570  0.0320  0.9342
19858TIP3   OH281064   5.404   5.318  10.486  0.3389 -0.0372 -0.0022
19858TIP3    H181065   5.494   5.286  10.471 -0.2898 -1.3699 -1.0930
19858TIP3    H281066   5.357   5.295  10.406 -0.4055  2.8898 -0.4660
19859TIP3   OH281067   3.941   2.335  15.802 -0.2990  0.1007 -0.1448
19859TIP3    H181068   3.862   2.386  15.821 -0.8769 -0.5098 -0.8740
19859TIP3    H281069   4.001   2.355  15.874 -0.9699  0.8803  0.1980
19860TIP3   OH281070   4.045   4.027  15.409  0.1100 -0.2242 -0.2069
19860TIP3    H181071   3.958   3.988  15.422 -0.0663  0.3165  0.2394
19860TIP3    H281072   4.049   4.098  15.473  0.9599 -0.3721 -0.0891
19861TIP3   OH281073   1.350   5.485   5.438 -0.0940 -0.5058  0.0764
19861TIP3    H181074   1.288   5.532   5.493 -0.8063 -0.4915 -0.7356
19861TIP3    H281075   1.344   5.527   5.353  0.5971 -0.8942 -0.1711
19862TIP3   OH281076   0.479   4.088  15.746 -0.5907  0.0509  0.0397
19862TIP3    H181077   0.442   4.121  15.828  0.5251 -1.0656  1.0148
19862TIP3    H281078   0.487   4.165  15.690 -4.2859  0.3723 -0.1942
19863TIP3   OH281079   4.385   5.807  15.956  0.2522  0.2803  0.0492
19863TIP3    H181080   4.348   5.821  15.869 -0.3191  2.0318  0.5604
19863TIP3    H281081   4.403   5.895  15.989 -1.9256 -0.2241  2.7164
19864TIP3   OH281082   3.965   1.208  16.295 -0.4300  0.2541 -0.4284
19864TIP3    H181083   3.887   1.181  16.345  0.1790  0.5202  0.6800
19864TIP3    H281084   4.022   1.248  16.360  1.7843 -2.2949 -0.7079
19865TIP3   OH281085   5.106   2.579  10.816 -0.1840 -0.6326  0.2206
19865TIP3    H181086   5.127   2.534  10.898  0.8516  0.9178  0.8281
19865TIP3    H281087   5.182   2.561  10.760 -0.2592 -0.5303  0.0890
19866TIP3   OH281088   5.402   4.777  16.128  0.0189 -0.4856  0.9108
19866TIP3    H181089   5.386   4.786  16.222 -0.8928  0.3981  0.6869
19866TIP3    H281090   5.384   4.864  16.093  1.3462 -0.5345  0.0468
19867TIP3   OH281091   0.994   0.969   5.303  0.4227  0.2968  0.2294
19867TIP3    H181092   0.965   1.059   5.293 -0.1214  0.1441  0.4200
19867TIP3    H281093   1.084   0.976   5.335  0.9441  0.7715 -1.2853
19868TIP3   OH281094   3.545   2.238  15.784 -0.6719  0.1537 -0.7085
19868TIP3    H181095   3.474   2.174  15.783 -0.8504  0.2776  1.7302
19868TIP3    H281096   3.625   2.187  15.797 -0.5913  0.2446 -0.8442
19869TIP3   OH281097   6.607   0.689  12.559 -0.3975 -0.1831  0.3975
19869TIP3    H181098   6.519   0.655  12.547 -0.9581  1.4829 -0.3854
19869TIP3    H281099   6.647   0.686  12.472  0.0410 -0.1761  0.5917
19870TIP3   OH281100   0.162   0.662   4.283  0.2683 -0.0077 -0.1841
19870TIP3    H181101   0.141   0.572   4.310 -0.6605  0.4934  0.8376
19870TIP3    H281102   0.098   0.682   4.215  0.3757 -0.0711 -0.3029
19871TIP3   OH281103   3.601   2.148  12.547 -0.4114  0.0580 -0.4381
19871TIP3    H181104   3.534   2.196  12.498 -2.4119  0.9959  3.0315
19871TIP3    H281105   3.662   2.215  12.577 -1.0581 -0.0440  1.1455
19872TIP3   OH281106   2.902   5.519   4.279  0.1760  0.4480  0.0821
19872TIP3    H181107   2.947   5.446   4.235  0.4779  1.6353 -1.6392
19872TIP3    H281108   2.855   5.563   4.208 -2.6973 -0.0064  1.6229
19873TIP3   OH281109   6.759   4.108   5.612 -0.2254  0.6617 -0.0820
19873TIP3    H181110   6.811   4.033   5.584  0.5293  1.6477 -1.3563
19873TIP3    H281111   6.774   4.175   5.544 -2.5194  1.2359 -0.0728
19874TIP3   OH281112   3.391   3.055  16.714  0.0182 -0.2064  0.6986
19874TIP3    H181113   3.379   3.146  16.685 -0.0820 -0.4297  0.0292
19874TIP3    H281114   3.486   3.044  16.716  0.0393 -0.9663 -2.0755
19875TIP3   OH281115   5.243   4.222  16.300 -0.1391  0.1987 -0.0243
19875TIP3    H181116   5.195   4.209  16.382 -2.0490  1.8007 -0.8630
19875TIP3    H281117   5.335   4.205  16.324 -1.0486 -2.9657  1.5802
19876TIP3   OH281118   4.983   0.859  14.680 -0.1110  0.8455  0.4775
19876TIP3    H181119   5.022   0.936  14.639 -2.2624  1.5878 -0.2337
19876TIP3    H281120   5.006   0.787  14.623 -0.0456  1.3249 -0.1026
19877TIP3   OH281121   4.816   5.609  12.259  0.6515 -0.0470  0.0919
19877TIP3    H181122   4.806   5.520  12.293  3.9861 -1.1293 -1.5665
19877TIP3    H281123   4.760   5.612  12.182 -3.4240  1.0022  2.9027
19878TIP3   OH281124   0.944   4.336   1.910 -0.1444 -0.1052  0.0760
19878TIP3    H181125   0.904   4.412   1.867  1.8518  1.3824  0.7645
19878TIP3    H281126   0.931   4.351   2.003 -0.1106 -0.8332  0.2030
19879TIP3   OH281127   0.797   1.538   1.640  0.7629 -0.1498 -0.0702
19879TIP3    H181128   0.826   1.457   1.681  0.3553 -1.6412 -2.5782
19879TIP3    H281129   0.869   1.563   1.583 -0.8074 -1.2188 -2.6460
19880TIP3   OH281130   5.414   1.246   3.376  0.5080 -0.3540  0.4524
19880TIP3    H181131   5.442   1.226   3.465  0.3711 -0.2330  0.5221
19880TIP3    H281132   5.490   1.225   3.322  0.8666  0.3511  0.6803
19881TIP3   OH281133   0.587   4.619   4.249  0.6836  0.1550  0.0412
19881TIP3    H181134   0.614   4.676   4.178 -0.6420  0.5687 -0.1477
19881TIP3    H281135   0.515   4.567   4.213 -0.6577  1.0548  1.3479
19882TIP3   OH281136   3.168   3.049   3.381 -0.0606 -0.1744 -0.3714
19882TIP3    H181137   3.182   2.999   3.461 -2.6292  0.4920  0.5486
19882TIP3    H281138   3.178   3.141   3.408 -1.3048  0.0729 -0.7219
19883TIP3   OH281139   3.062   5.610   6.112 -0.8328 -0.2849 -0.0730
19883TIP3    H181140   2.967   5.601   6.109 -1.2121  2.6270  1.2063
19883TIP3    H281141   3.080   5.636   6.203  1.0533  0.3049 -0.6032
19884TIP3   OH281142   0.137   6.647   6.260 -0.1452  0.5020 -0.3549
19884TIP3    H181143   0.181   6.704   6.323  1.1480  1.4469 -2.0487
19884TIP3    H281144   0.049   6.684   6.251  0.1219  1.1932 -0.1413
19885TIP3   OH281145   4.278   2.456  16.409 -0.0586  1.1570 -0.3622
19885TIP3    H181146   4.321   2.506  16.479 -1.2524  0.0438  1.2078
19885TIP3    H281147   4.188   2.487  16.409 -0.3842  0.2251 -0.5330
19886TIP3   OH281148   2.292   2.017   1.014  0.4214  0.0929  0.0296
19886TIP3    H181149   2.281   1.928   1.048 -0.5429  0.7948  1.6431
19886TIP3    H281150   2.263   2.011   0.923  0.4478 -1.2612  0.0915
19887TIP3   OH281151   5.856   1.208  12.175 -0.2366 -0.0576  0.6590
19887TIP3    H181152   5.772   1.213  12.222 -0.9002 -1.3686 -0.3344
19887TIP3    H281153   5.853   1.123  12.131  2.2074 -0.6875  1.6763
19888TIP3   OH281154   0.569   2.850   5.213  0.3267  0.3899 -0.7219
19888TIP3    H181155   0.503   2.904   5.168 -0.3091  0.5285  0.3707
19888TIP3    H281156   0.629   2.914   5.252 -0.8344  0.3517  1.1912
19889TIP3   OH281157   0.257   3.797  16.276 -0.8886 -0.3687 -0.8932
19889TIP3    H181158   0.339   3.779  16.322 -2.0759 -0.0819  1.4172
19889TIP3    H281159   0.265   3.889  16.250 -0.6795 -0.2030 -0.2559
19890TIP3   OH281160   2.842   1.558  14.776 -1.0605 -0.3126 -0.0869
19890TIP3    H181161   2.777   1.624  14.800 -1.4575 -1.2943  1.6404
19890TIP3    H281162   2.868   1.519  14.860  0.4523 -1.1431 -0.9295
19891TIP3   OH281163   6.333   2.308   0.395 -0.6075 -0.0252  0.0214
19891TIP3    H181164   6.248   2.293   0.355 -1.1357 -0.1761  1.1770
19891TIP3    H281165   6.364   2.389   0.356 -1.8240  0.6687  0.4859
19892TIP3   OH281166   4.043   3.005  11.157  0.3483  0.0278 -0.0345
19892TIP3    H181167   4.138   3.013  11.163  0.6734 -1.4278 -2.4775
19892TIP3    H281168   4.027   2.975  11.067 -2.3873 -0.1851  0.4743
19893TIP3   OH281169   4.762   4.288  11.399 -0.2762 -0.2502 -0.1710
19893TIP3    H181170   4.704   4.239  11.339 -0.5993 -0.2917  0.1710
19893TIP3    H281171   4.769   4.375  11.359  0.5862 -0.6747 -0.9705
19894TIP3   OH281172   0.162   6.765   0.885  0.0409  0.5286 -0.8180
19894TIP3    H181173   0.216   6.733   0.813 -1.2615 -2.1732 -0.6430
19894TIP3    H281174   0.200   6.724   0.963 -1.4191 -0.3163 -0.5395
19895TIP3   OH281175   3.331   4.597  16.772 -0.2929  0.0648  0.0472
19895TIP3    H181176   3.403   4.551  16.815  0.3519  1.7509  0.8299
19895TIP3    H281177   3.328   4.682  16.815 -2.1338  0.3791 -0.6579
19896TIP3   OH281178   6.636   4.573  11.313  0.4474  0.6360 -0.4594
19896TIP3    H181179   6.546   4.541  11.319  0.1499  1.4194 -0.6677
19896TIP3    H281180   6.656   4.570  11.219  0.4100  1.0896 -0.4816
19897TIP3   OH281181   2.385   4.473   0.121  0.1579 -0.0444 -0.2830
19897TIP3    H181182   2.316   4.493   0.185  0.6306  0.1733  0.1563
19897TIP3    H281183   2.338   4.462   0.038 -0.3079  1.0599 -0.1766
19898TIP3   OH281184   4.612   6.282  11.302  0.0702  0.0926  0.3741
19898TIP3    H181185   4.667   6.205  11.318  3.9808  2.9467  1.4565
19898TIP3    H281186   4.552   6.284  11.377  1.9141 -0.2980  1.8995
19899TIP3   OH281187   2.910   0.144  13.587 -0.6028  0.2431 -0.7751
19899TIP3    H181188   2.940   0.133  13.677 -0.2890  1.6277 -0.6991
19899TIP3    H281189   2.915   0.056  13.549  0.1500 -0.1833  0.2855
19900TIP3   OH281190   3.103   0.295  17.275 -0.3461  0.0495 -0.5286
19900TIP3    H181191   3.133   0.346  17.350 -0.9040 -1.5821  0.8234
19900TIP3    H281192   3.154   0.329  17.201  0.5675  1.3242  0.6719
19901TIP3   OH281193   1.719   5.540  17.078 -0.8047 -0.1741 -0.0198
19901TIP3    H181194   1.720   5.614  17.017 -1.2398 -0.7289 -0.7086
19901TIP3    H281195   1.766   5.470  17.032 -0.6710 -0.4244  0.4990
19902TIP3   OH281196   3.942   1.848  14.638  0.8978  0.4239  0.5362
19902TIP3    H181197   3.854   1.887  14.644  1.0797  0.9001  0.1035
19902TIP3    H281198   3.926   1.756  14.619  0.5167  0.7944 -0.9951
19903TIP3   OH281199   2.736   2.155   4.158 -0.4427 -0.1199  0.7894
19903TIP3    H181200   2.826   2.182   4.142 -1.1532  1.9637  0.1106
19903TIP3    H281201   2.712   2.197   4.241 -1.1359  0.2971  0.3881
19904TIP3   OH281202   4.731   0.696  17.130  0.0048 -0.4584 -0.2006
19904TIP3    H181203   4.815   0.711  17.172 -0.4337 -0.5785  0.7399
19904TIP3    H281204   4.752   0.655  17.046  0.9010 -0.0703 -0.1628
19905TIP3   OH281205   3.785   3.826  11.583  0.0061 -0.1089  0.0662
19905TIP3    H181206   3.802   3.747  11.532 -0.5297 -0.0169 -0.2594
19905TIP3    H281207   3.812   3.898  11.525  0.5747 -0.0520  0.3961
19906TIP3   OH281208   0.051   2.900  16.167 -0.4618  0.2111  0.2830
19906TIP3    H181209   0.037   2.983  16.212  1.7899  1.8523 -1.8261
19906TIP3    H281210   0.050   2.924  16.074  3.5057 -1.4741 -0.3036
19907TIP3   OH281211   6.366   1.603   2.996 -0.6096 -0.5730  0.2645
19907TIP3    H181212   6.457   1.614   3.025 -0.0872  0.6734 -1.7495
19907TIP3    H281213   6.317   1.667   3.047  0.0729  0.5843 -0.5055
19908TIP3   OH281214   6.077   5.937  16.819 -0.4055  0.6515 -0.2510
19908TIP3    H181215   6.080   5.987  16.737  0.0691  0.7842 -0.1510
19908TIP3    H281216   6.108   5.998  16.886 -0.4726  0.4361 -0.0231
19909TIP3   OH281217   2.775   5.603   4.063  0.2300  0.0535 -0.1707
19909TIP3    H181218   2.768   5.698   4.050  1.0984  0.1506  0.0345
19909TIP3    H281219   2.685   5.571   4.055 -0.3093  1.1090  1.5634
19910TIP3   OH281220   2.594   0.612   0.293 -0.5292 -0.1714 -0.4882
19910TIP3    H181221   2.649   0.546   0.335 -1.0881  1.0213  2.1706
19910TIP3    H281222   2.656   0.673   0.254  0.0827  0.9939  2.2214
19911TIP3   OH281223   3.619   6.492   5.603 -0.5085  0.2740  0.3831
19911TIP3    H181224   3.630   6.474   5.510 -1.2918  0.0767  0.3267
19911TIP3    H281225   3.692   6.446   5.645  0.4215  1.1852 -0.2144
19912TIP3   OH281226   1.384   4.612  12.464 -0.1682 -0.3453 -0.0504
19912TIP3    H181227   1.423   4.661  12.537  0.1323 -1.4574  0.5557
19912TIP3    H281228   1.458   4.590  12.408 -0.1188 -1.1651  0.3257
19913TIP3   OH281229   0.022   0.406   4.830 -0.2900  0.5405 -0.0479
19913TIP3    H181230   0.080   0.481   4.820  0.3379  0.3238  1.7753
19913TIP3    H281231   0.014   0.369   4.742  0.9465  1.5886 -0.6079
19914TIP3   OH281232   3.044   2.673  15.739  0.5298  0.1893  0.3626
19914TIP3    H181233   3.118   2.684  15.800  1.0102 -2.8033  0.4290
19914TIP3    H281234   3.052   2.582  15.710 -2.1700  0.3452 -0.9365
19915TIP3   OH281235   2.894   1.965   0.929  0.2625  0.2388  0.6006
19915TIP3    H181236   2.807   1.942   0.960 -0.5199  0.5258 -1.2994
19915TIP3    H281237   2.886   2.057   0.902  0.8791 -0.0286 -0.5210
19916TIP3   OH281238   1.664   5.661  12.707  0.2680 -0.2073  0.0771
19916TIP3    H181239   1.708   5.696  12.630 -1.8778 -0.0107 -1.0882
19916TIP3    H281240   1.629   5.576  12.678  0.9435 -0.9425  1.3524
19917TIP3   OH281241   2.680   5.369   4.380 -0.4703  0.1163 -0.0909
19917TIP3    H181242   2.757   5.396   4.330  1.1702 -1.4792  1.4640
19917TIP3    H281243   2.631   5.312   4.320 -0.7120  1.5138 -1.2473
19918TIP3   OH281244   3.149   0.644  13.293  0.1563  0.1761  0.1205
19918TIP3    H181245   3.184   0.731  13.273 -0.4648  0.4546  0.2251
19918TIP3    H281246   3.068   0.639  13.242  0.6631 -0.7023 -0.6090
19919TIP3   OH281247   5.192   6.014  15.763  0.0985 -0.7151 -0.7955
19919TIP3    H181248   5.171   5.977  15.677 -0.7098 -1.7982 -0.1498
19919TIP3    H281249   5.206   5.938  15.819  0.3445 -0.0162  0.1017
19920TIP3   OH281250   4.944   4.254  13.394  0.0979  0.1703 -0.2123
19920TIP3    H181251   4.932   4.348  13.407  1.7427  0.2465  0.8961
19920TIP3    H281252   4.918   4.215  13.477 -1.7139 -0.4825 -1.0526
19921TIP3   OH281253   5.897   1.448  14.060 -0.0724  0.8817  0.4203
19921TIP3    H181254   5.824   1.389  14.045 -0.4208  1.5157 -0.4456
19921TIP3    H281255   5.870   1.501  14.135  1.3873 -1.8463  2.9457
19922TIP3   OH281256   1.466   1.773  13.096 -0.0904  0.5085 -0.0247
19922TIP3    H181257   1.384   1.817  13.120 -0.9448  0.4361 -2.6513
19922TIP3    H281258   1.469   1.696  13.153 -1.9184  0.4701  0.0569
19923TIP3   OH281259   3.023   4.986  14.404  0.1454  0.6966 -0.5125
19923TIP3    H181260   3.053   4.938  14.327 -0.5027 -1.4878  0.5670
19923TIP3    H281261   3.095   5.046  14.424  1.4352 -0.5684 -1.2523
19924TIP3   OH281262   4.221   3.419   2.338 -0.2187  0.1502 -0.1590
19924TIP3    H181263   4.222   3.506   2.299 -0.0716 -0.3714 -1.3530
19924TIP3    H281264   4.135   3.383   2.314 -0.3430  0.0254  0.4615
19925TIP3   OH281265   0.747   2.711  14.468 -0.2411 -0.8405 -0.3986
19925TIP3    H181266   0.814   2.734  14.403  0.0090 -1.7793 -0.4846
19925TIP3    H281267   0.666   2.703  14.417 -0.7326  1.7739 -0.0633
19926TIP3   OH281268   0.246   6.158   0.485 -0.2206 -0.2137  0.3451
19926TIP3    H181269   0.252   6.126   0.575  1.3876 -2.0672 -0.3843
19926TIP3    H281270   0.334   6.148   0.450 -0.5095  1.8006 -1.0152
19927TIP3   OH281271   1.834   4.498   3.630 -0.2921  0.6212  0.3393
19927TIP3    H181272   1.889   4.429   3.594 -2.4052  0.3033 -2.4008
19927TIP3    H281273   1.878   4.579   3.605  0.6674  0.3386  1.0718
19928TIP3   OH281274   6.526   0.406  13.921 -0.0897 -0.2471 -0.2029
19928TIP3    H181275   6.511   0.452  14.004 -1.2417 -0.7510 -0.1346
19928TIP3    H281276   6.447   0.356  13.906  0.9385 -1.7907 -0.5744
19929TIP3   OH281277   4.894   1.012   2.510  0.7373 -0.0639 -0.2111
19929TIP3    H181278   4.808   0.999   2.551  0.2604  0.4279 -1.0452
19929TIP3    H281279   4.911   0.930   2.465 -0.5907  0.8125 -2.3929
19930TIP3   OH281280   5.547   2.071   1.045 -0.3420  0.9238 -0.1535
19930TIP3    H181281   5.622   2.129   1.031  0.2856 -0.0910 -1.1443
19930TIP3    H281282   5.478   2.128   1.078  1.2240  1.6873  1.9878
19931TIP3   OH281283   5.073   4.989  14.280 -0.0500  0.0207 -0.6368
19931TIP3    H181284   5.114   5.026  14.201  0.6537 -2.2923 -1.3961
19931TIP3    H281285   5.123   4.909  14.297 -0.9309 -0.0961  1.5171
19932TIP3   OH281286   0.645   4.891   4.146  0.5662  0.0773 -0.1640
19932TIP3    H181287   0.596   4.865   4.067  0.2701  3.7276 -1.2484
19932TIP3    H281288   0.577   4.907   4.212  0.6975 -0.9339  0.2269
19933TIP3   OH281289   1.369   3.667   4.698  0.0536 -0.5512 -0.1202
19933TIP3    H181290   1.445   3.608   4.698  1.6043  1.3735 -0.9672
19933TIP3    H281291   1.338   3.665   4.608 -0.6127 -0.9569  0.1167
19934TIP3   OH281292   4.865   3.743   1.312 -0.2881 -0.4346 -0.0376
19934TIP3    H181293   4.843   3.835   1.294 -0.1348 -0.2999  0.4669
19934TIP3    H281294   4.939   3.725   1.253  1.0674  0.3992  1.3728
19935TIP3   OH281295   0.579   2.836  12.608 -0.0913 -0.3129 -0.2951
19935TIP3    H181296   0.662   2.861  12.567 -0.2010  0.7586  0.1327
19935TIP3    H281297   0.588   2.742  12.623  1.2500 -0.1258  0.1932
19936TIP3   OH281298   3.156   3.671   6.845  0.2616 -0.2310  0.2182
19936TIP3    H181299   3.244   3.706   6.839  0.4193 -0.3096  1.9676
19936TIP3    H281300   3.143   3.625   6.762  1.6472  0.2517 -0.2799
19937TIP3   OH281301   5.636   2.033   3.621  0.7837 -0.0277 -0.7622
19937TIP3    H181302   5.566   1.985   3.665 -1.0319  0.6953 -2.7139
19937TIP3    H281303   5.694   1.966   3.585  1.0658 -0.6382  0.8347
19938TIP3   OH281304   6.069   1.401  12.129 -0.2212 -0.0057  0.1813
19938TIP3    H181305   5.989   1.372  12.086  0.5378 -0.1608 -1.1293
19938TIP3    H281306   6.139   1.370  12.073  0.6864  2.2705  0.0214
19939TIP3   OH281307   0.078   0.063  12.349 -0.3328 -0.5068 -0.2072
19939TIP3    H181308   0.150   0.026  12.401 -0.2213  1.3952  1.0447
19939TIP3    H281309   0.078   0.011  12.269  2.6040 -0.4286 -0.3366
19940TIP3   OH281310   6.239   1.584   0.019  0.3097 -0.0115 -0.2682
19940TIP3    H181311   6.262   1.677   0.023  1.4438 -0.2812 -0.3374
19940TIP3    H281312   6.143   1.583   0.015  0.3456  1.2010 -1.7099
19941TIP3   OH281313   4.881   3.175   1.496 -0.0066 -0.2974 -0.4364
19941TIP3    H181314   4.956   3.233   1.491 -0.0993 -0.1704 -0.3592
19941TIP3    H281315   4.805   3.233   1.501 -0.2112 -0.4119 -1.9309
19942TIP3   OH281316   2.187   5.676  14.176  0.3844  0.1185 -0.0499
19942TIP3    H181317   2.115   5.618  14.199  1.2547 -1.5590 -1.3887
19942TIP3    H281318   2.264   5.619  14.175  1.0798  1.0365 -2.5432
19943TIP3   OH281319   0.805   3.005   0.709  0.1540 -0.0240  0.3813
19943TIP3    H181320   0.782   2.912   0.699 -2.7391  1.0406 -3.8767
19943TIP3    H281321   0.743   3.038   0.774  1.0546 -0.9622  1.7554
19944TIP3   OH281322   2.258   5.318   2.893  0.6361 -0.5556 -0.5252
19944TIP3    H181323   2.274   5.253   2.826  0.9679 -0.3630 -0.6331
19944TIP3    H281324   2.256   5.269   2.975  2.3466 -0.5114 -0.4447
19945TIP3   OH281325   3.458   0.915  16.074 -0.3511  0.3630  0.3525
19945TIP3    H181326   3.528   0.856  16.048 -0.0606  0.8313  0.0572
19945TIP3    H281327   3.460   0.985  16.009 -0.2030  1.0850  1.1181
19946TIP3   OH281328   3.504   5.460  15.026  0.6056  0.4032  0.5373
19946TIP3    H181329   3.481   5.412  14.947  3.5814  1.1009 -0.8285
19946TIP3    H281330   3.506   5.552  14.998  2.6873  0.5587  1.1146
19947TIP3   OH281331   1.208   0.541  12.845  0.3855  0.1853  0.3039
19947TIP3    H181332   1.152   0.617  12.827 -0.6680 -0.3826  1.1381
19947TIP3    H281333   1.200   0.528  12.939 -0.9040 -2.1037 -0.0993
19948TIP3   OH281334   5.093   5.972   1.219  0.0296  0.3775 -0.4479
19948TIP3    H181335   5.179   5.986   1.179  0.9114  0.4721  1.4445
19948TIP3    H281336   5.104   5.895   1.274 -1.5819 -0.6445 -1.5248
19949TIP3   OH281337   2.110   3.474  15.851  0.3414 -0.0206 -0.0253
19949TIP3    H181338   2.108   3.488  15.756 -1.9523 -0.1218 -0.0167
19949TIP3    H281339   2.031   3.516  15.884 -0.0572 -1.9140  1.5571
19950TIP3   OH281340   5.859   2.011   0.860  0.6432 -0.0450  0.3200
19950TIP3    H181341   5.905   1.993   0.942  0.1880 -0.7806  0.4176
19950TIP3    H281342   5.803   2.086   0.880 -0.2005 -0.8313  0.9757
19951TIP3   OH281343   2.156   0.662  15.031 -0.3468  0.2763  0.1574
19951TIP3    H181344   2.110   0.706  14.959 -0.0143 -1.1307 -0.9284
19951TIP3    H281345   2.133   0.570  15.021  0.7094 -0.0986  1.1075
19952TIP3   OH281346   0.210   5.018   2.796  0.4199  0.4770 -0.4740
19952TIP3    H181347   0.145   5.068   2.747 -0.4497 -0.4046 -0.2485
19952TIP3    H281348   0.251   4.962   2.731 -1.3868 -1.3735 -0.0834
19953TIP3   OH281349   1.310   1.156  15.572 -0.2074 -0.0267 -0.3652
19953TIP3    H181350   1.227   1.108  15.576  0.2826 -0.9143 -0.6816
19953TIP3    H281351   1.301   1.213  15.495 -0.3182 -0.5321 -0.7336
19954TIP3   OH281352   2.360   4.797  11.656 -0.5282  0.3426  0.0919
19954TIP3    H181353   2.308   4.771  11.732 -0.0232 -1.2551 -0.0856
19954TIP3    H281354   2.448   4.765  11.676 -0.3491  0.0892 -1.0837
19955TIP3   OH281355   2.524   4.019  12.810  0.4398 -1.4503  0.0729
19955TIP3    H181356   2.447   3.963  12.820 -0.3629 -0.2950  0.3881
19955TIP3    H281357   2.566   4.017  12.896 -1.3676  1.0035  1.0721
19956TIP3   OH281358   5.830   0.538   6.239  0.2498  0.0567 -0.1165
19956TIP3    H181359   5.774   0.601   6.285  1.7205 -0.5769  2.6868
19956TIP3    H281360   5.919   0.568   6.257  0.9024 -1.2542 -1.0602
19957TIP3   OH281361   4.794   0.767   4.778 -0.5408  0.0895 -0.5443
19957TIP3    H181362   4.772   0.859   4.768  2.5592  0.9329 -0.2329
19957TIP3    H281363   4.742   0.722   4.711 -4.3937  1.6156  1.2920
19958TIP3   OH281364   1.717   5.879  12.106  0.0448 -0.2575  0.3582
19958TIP3    H181365   1.702   5.854  12.015  1.6180  1.8629 -0.5371
19958TIP3    H281366   1.810   5.902  12.109 -0.2144  0.6220  2.2573
19959TIP3   OH281367   2.849   0.045  16.455  0.1297 -0.1465  0.4790
19959TIP3    H181368   2.937   0.065  16.485 -0.4492  0.0635  2.0655
19959TIP3    H281369   2.834  -0.046  16.481 -0.3621  0.0214  0.7796
19960TIP3   OH281370   2.650   2.370  16.866 -0.1242  0.4053  0.2317
19960TIP3    H181371   2.728   2.358  16.920 -0.3171 -0.7951  0.2603
19960TIP3    H281372   2.603   2.443  16.907 -0.4016 -0.6694  1.8687
19961TIP3   OH281373   0.855   2.195   1.859  0.7940  0.1960 -0.0889
19961TIP3    H181374   0.801   2.190   1.780  1.1806 -0.4260 -0.3131
19961TIP3    H281375   0.910   2.272   1.846 -0.2451  1.0112  0.2749
19962TIP3   OH281376   3.959   3.778  10.950 -0.0800 -0.7458  0.2813
19962TIP3    H181377   3.935   3.860  10.908 -0.9904 -1.1174  0.0782
19962TIP3    H281378   3.998   3.725  10.880 -0.5398 -0.9266  0.1654
19963TIP3   OH281379   4.047   3.655  16.704 -0.2237  0.2224  0.0692
19963TIP3    H181380   4.049   3.641  16.799  2.1746 -0.4430 -0.0540
19963TIP3    H281381   4.036   3.567  16.668 -0.5970  0.4192 -0.2969
19964TIP3   OH281382   2.018   5.350   5.616 -0.0376 -0.1728 -0.2812
19964TIP3    H181383   2.113   5.362   5.610  0.0336  0.1043  1.1140
19964TIP3    H281384   2.006   5.255   5.615  0.2856 -0.2145 -0.2455
19965TIP3   OH281385   3.127   0.079   2.943  0.3977 -0.6078 -0.3013
19965TIP3    H181386   3.100   0.009   2.883  1.7607 -1.1515 -0.2845
19965TIP3    H281387   3.087   0.158   2.906 -2.1354 -1.5427  0.3348
19966TIP3   OH281388   6.136   2.167   2.383  0.3500  0.1399 -0.3037
19966TIP3    H181389   6.215   2.173   2.330 -0.5782  1.3167 -1.5935
19966TIP3    H281390   6.158   2.212   2.465  1.3789 -0.5719 -0.1806
19967TIP3   OH281391   2.782   3.008  15.112  0.2904 -0.2422  0.3211
19967TIP3    H181392   2.758   2.953  15.038 -1.5157  0.8094  0.0730
19967TIP3    H281393   2.847   3.069  15.077  1.2924 -1.3229  0.2599
19968TIP3   OH281394   6.047   4.851  15.227  0.4222 -0.0600  0.1589
19968TIP3    H181395   5.961   4.843  15.270  1.1145  0.1160  1.5946
19968TIP3    H281396   6.095   4.913  15.281  1.4303 -0.0896 -0.7030
19969TIP3   OH281397   6.160   6.296  17.195  0.0441  0.2931 -0.2030
19969TIP3    H181398   6.160   6.220  17.252 -0.0485  1.1488  0.9643
19969TIP3    H281399   6.172   6.261  17.107 -1.2222 -1.1524  0.1922
19970TIP3   OH281400   2.090   0.625   0.859 -0.5893  0.2522  0.1687
19970TIP3    H181401   2.054   0.540   0.835  0.2357 -0.5416  1.6553
19970TIP3    H281402   2.175   0.605   0.898 -0.4223  1.7516  0.6000
19971TIP3   OH281403   0.325   5.145  12.453 -0.0360  0.0114  0.2291
19971TIP3    H181404   0.370   5.094  12.385  0.7185  0.1331  0.6354
19971TIP3    H281405   0.331   5.090  12.531 -1.0346 -0.1932  0.1666
19972TIP3   OH281406   4.708   0.632  14.764  0.4492 -0.2513  0.0874
19972TIP3    H181407   4.791   0.659  14.803  0.2226  0.6178 -0.0050
19972TIP3    H281408   4.644   0.694  14.800 -0.0449 -0.4956 -0.3597
19973TIP3   OH281409   4.321   2.142  12.697 -0.4309 -0.0677 -0.1965
19973TIP3    H181410   4.385   2.075  12.721 -1.0236 -0.0697  1.4654
19973TIP3    H281411   4.371   2.206  12.646  0.6271 -0.6455  0.0910
19974TIP3   OH281412   4.272   2.973   0.855  0.3532  0.5210  0.6376
19974TIP3    H181413   4.219   3.022   0.916  0.1923  0.4087  0.5882
19974TIP3    H281414   4.232   2.989   0.769  0.0269 -0.0596  0.6778
19975TIP3   OH281415   5.242   1.940   4.151 -0.1475  0.7038  0.3285
19975TIP3    H181416   5.310   1.901   4.095 -0.3876 -0.0533  0.5557
19975TIP3    H281417   5.234   1.878   4.224 -3.1023 -0.6952 -1.1178
19976TIP3   OH281418   1.016   0.959   2.385 -0.9994 -0.4547  0.6214
19976TIP3    H181419   0.930   0.972   2.346 -1.1949  0.1143  1.2216
19976TIP3    H281420   1.078   0.990   2.319 -1.3230  0.4573  0.7386
19977TIP3   OH281421   4.249   0.709   6.039 -0.0392 -0.1684 -0.7091
19977TIP3    H181422   4.172   0.751   6.076 -0.4096 -0.6799 -0.9010
19977TIP3    H281423   4.279   0.648   6.106  0.5770  0.4960 -0.3773
19978TIP3   OH281424   1.572   1.016   2.642 -0.0150  0.0115 -0.2318
19978TIP3    H181425   1.544   1.071   2.715 -1.6146 -1.2058  0.1092
19978TIP3    H281426   1.654   1.055   2.612 -1.3352  2.8326 -0.2777
19979TIP3   OH281427   3.480   4.054  12.121 -0.0131 -0.0762 -0.0942
19979TIP3    H181428   3.448   4.114  12.054  0.1751 -0.3964 -0.4740
19979TIP3    H281429   3.444   3.969  12.097 -0.0914 -0.1635  0.3141
19980TIP3   OH281430   4.084   3.017   2.226  0.0748  0.1361  0.1712
19980TIP3    H181431   4.078   3.052   2.315 -1.5863  0.2121  0.0361
19980TIP3    H281432   3.993   3.000   2.201  0.5561 -0.1103 -1.4238
19981TIP3   OH281433   0.120   5.317  12.425  0.9677  0.3561  0.0954
19981TIP3    H181434   0.134   5.378  12.352  1.4235 -0.0256 -0.1370
19981TIP3    H281435   0.185   5.248  12.412 -0.7426 -1.1572 -0.6773
19982TIP3   OH281436   2.905   0.374   1.173  0.4278 -0.5190  0.4999
19982TIP3    H181437   2.826   0.428   1.177  0.0892 -0.9425 -0.3396
19982TIP3    H281438   2.971   0.425   1.220  0.1202  0.6585 -0.3129
19983TIP3   OH281439   1.578   2.450   3.604  0.8244  0.4830 -0.2498
19983TIP3    H181440   1.543   2.369   3.642  1.6937  0.2736  0.1315
19983TIP3    H281441   1.660   2.422   3.563  1.1195  1.1685 -0.1232
19984TIP3   OH281442   6.545   6.237   1.157 -0.0132  0.4698 -0.3275
19984TIP3    H181443   6.521   6.311   1.100 -0.2639  0.9084  0.3363
19984TIP3    H281444   6.462   6.210   1.197 -0.0077 -0.5067 -0.9501
19985TIP3   OH281445   6.511   6.508  16.898  0.3229 -0.0580  0.4470
19985TIP3    H181446   6.521   6.600  16.874  1.0581 -0.1853  0.2452
19985TIP3    H281447   6.576   6.494  16.967  0.9443 -0.6868 -0.2530
19986TIP3   OH281448   4.689   3.945   6.268 -0.5820 -0.4294  0.6514
19986TIP3    H181449   4.659   3.928   6.358  0.0456 -1.2457  0.7171
19986TIP3    H281450   4.717   4.036   6.269 -1.8509 -0.0451  0.9307
19987TIP3   OH281451   4.880   0.091   5.944 -0.8583 -0.0068 -0.1528
19987TIP3    H181452   4.800   0.102   5.995 -0.5816 -1.5985  0.6616
19987TIP3    H281453   4.948   0.132   5.998 -0.9857  0.5842 -0.4428
19988TIP3   OH281454   5.891   3.710   0.603  0.1284  0.1221  0.0185
19988TIP3    H181455   5.980   3.705   0.638 -0.6481 -2.4634  1.6994
19988TIP3    H281456   5.866   3.802   0.616  2.6151  0.9678 -0.7680
19989TIP3   OH281457   3.677   2.985  16.788 -0.1874 -0.3278  0.0378
19989TIP3    H181458   3.724   2.956  16.710  1.5901 -1.3261  1.4476
19989TIP3    H281459   3.726   3.060  16.819  0.2834 -1.1526  1.3173
19990TIP3   OH281460   6.215   4.340   4.141 -0.0815  0.4376  0.3569
19990TIP3    H181461   6.231   4.257   4.096 -0.0633  0.4268  0.3833
19990TIP3    H281462   6.279   4.400   4.103  0.2646  0.3014  0.7226
19991TIP3   OH281463   2.478   0.967  13.043  0.3150  0.2366 -0.3713
19991TIP3    H181464   2.537   1.042  13.051 -0.6691  0.7999  1.9490
19991TIP3    H281465   2.505   0.908  13.113  0.0166 -0.8561 -1.1595
19992TIP3   OH281466   2.975   5.411  13.189 -0.2188 -0.3364 -0.0041
19992TIP3    H181467   2.908   5.347  13.216 -0.0272 -1.4163 -1.9888
19992TIP3    H281468   3.058   5.363  13.195  0.3921  1.0087  2.4630
19993TIP3   OH281469   4.948   4.497   0.900 -0.1273 -0.3313  0.2952
19993TIP3    H181470   4.916   4.566   0.958 -1.3245  0.5420 -1.3620
19993TIP3    H281471   5.040   4.519   0.885 -0.3818  0.6324  0.1407
19994TIP3   OH281472   5.439   1.441  15.300  0.4566 -0.1680  0.1859
19994TIP3    H181473   5.505   1.391  15.347 -1.2036 -1.6560  1.0000
19994TIP3    H281474   5.418   1.514  15.358  0.6149 -0.2893  0.3951
19995TIP3   OH281475   4.881   2.869  10.986 -0.5263 -0.3398  0.6044
19995TIP3    H181476   4.846   2.956  11.006  2.1970  1.5153 -2.2647
19995TIP3    H281477   4.942   2.851  11.058 -1.4725 -0.1231  1.4734
19996TIP3   OH281478   4.012   1.495   3.013 -0.2704 -0.1274  0.4680
19996TIP3    H181479   3.925   1.521   2.984  0.9070  1.7895 -1.5464
19996TIP3    H281480   4.027   1.545   3.093  0.0461  1.7302 -0.7170
19997TIP3   OH281481   4.642   5.308   2.325  0.2726 -0.3600  0.4614
19997TIP3    H181482   4.582   5.363   2.376  1.2837 -0.5226  1.8423
19997TIP3    H281483   4.649   5.353   2.241  0.1351  0.9815  1.1465
19998TIP3   OH281484   5.626   4.024  11.721 -0.0135  0.0297  0.0034
19998TIP3    H181485   5.630   4.077  11.800 -1.8102 -1.9064  1.4654
19998TIP3    H281486   5.555   4.063  11.670 -0.9894 -0.6099  0.8412
19999TIP3   OH281487   6.361   5.467   4.940 -0.3987  0.1776 -0.2343
19999TIP3    H181488   6.352   5.403   4.869 -1.5071  0.6963 -0.5734
19999TIP3    H281489   6.401   5.544   4.899  1.6923 -0.5626  0.3451
20000TIP3   OH281490   3.923   6.002  11.395  0.2084 -0.7785 -0.1323
20000TIP3    H181491   3.859   6.023  11.464  0.6669 -0.8875  0.3338
20000TIP3    H281492   3.977   6.081  11.389 -0.7600 -0.2050 -1.4184
20001TIP3   OH281493   5.561   4.611   1.390  0.0173 -0.3901 -0.2215
20001TIP3    H181494   5.624   4.680   1.412 -0.4619 -0.0710  0.1743
20001TIP3    H281495   5.567   4.603   1.294 -2.7180  2.9748 -0.7825
20002TIP3   OH281496   6.304   1.167  11.314 -0.3694 -0.9559 -0.6864
20002TIP3    H181497   6.350   1.115  11.249 -3.3940 -0.4217 -3.3996
20002TIP3    H281498   6.218   1.125  11.322  0.1586 -1.4284  3.5529
20003TIP3   OH281499   5.582   3.059   0.828 -0.1827 -0.1199 -0.0359
20003TIP3    H181500   5.645   2.987   0.821  0.4134  0.2392  1.3572
20003TIP3    H281501   5.635   3.138   0.819 -0.3152  0.1970  1.7761
20004TIP3   OH281502   4.186   5.348   5.041 -0.3927 -0.6090  0.1935
20004TIP3    H181503   4.261   5.318   5.092 -0.2845 -0.5719  0.0542
20004TIP3    H281504   4.128   5.388   5.107 -0.4277 -0.9033  0.3438
20005TIP3   OH281505   1.347   2.847   3.591  0.2643  0.5455 -0.4075
20005TIP3    H181506   1.367   2.936   3.619 -0.6928  0.9904 -1.0948
20005TIP3    H281507   1.251   2.845   3.584  0.1109 -1.1601  1.6184
20006TIP3   OH281508   5.899   0.179   0.226 -0.3918  0.5537 -0.5872
20006TIP3    H181509   5.928   0.110   0.287 -0.4851  1.4107  0.4389
20006TIP3    H281510   5.837   0.134   0.168 -1.7921  0.1276  1.1685
20007TIP3   OH281511   0.650   2.737  13.796  0.3578 -0.3372 -0.5140
20007TIP3    H181512   0.741   2.752  13.770  0.0605 -0.7413 -1.7825
20007TIP3    H281513   0.640   2.642  13.795 -0.0716 -0.2957 -0.3199
20008TIP3   OH281514   1.625   2.446  15.133 -0.4856  0.1390 -0.3535
20008TIP3    H181515   1.581   2.525  15.102  0.3793 -0.0696 -2.1603
20008TIP3    H281516   1.559   2.377  15.124 -0.7249  0.3612 -0.2928
20009TIP3   OH281517   0.796   6.733  13.923  0.0285  0.4274  0.1032
20009TIP3    H181518   0.706   6.736  13.957 -0.2142  0.4766 -0.5372
20009TIP3    H281519   0.850   6.762  13.997 -0.8030  4.1286 -0.6373
20010TIP3   OH281520   5.686   2.108  12.975  0.6410  0.6606 -0.2309
20010TIP3    H181521   5.725   2.196  12.973 -2.8643  2.3391  1.6084
20010TIP3    H281522   5.600   2.119  12.935 -0.5811 -1.5208  1.7078
20011TIP3   OH281523   0.709   5.219   3.487 -0.1676  0.7026  0.4694
20011TIP3    H181524   0.716   5.288   3.552  0.8120  1.2875 -0.2476
20011TIP3    H281525   0.689   5.264   3.405  0.4447  0.1516  0.0001
20012TIP3   OH281526   3.580   3.935  13.008 -0.0992  0.4176  0.2189
20012TIP3    H181527   3.581   3.842  12.985 -0.0847  0.5412 -0.2952
20012TIP3    H281528   3.500   3.947  13.058 -0.0463  0.1060  0.3775
20013TIP3   OH281529   4.603   1.535  11.843 -0.0505 -0.3118  0.2075
20013TIP3    H181530   4.641   1.623  11.837 -0.7354  0.0203  0.6101
20013TIP3    H281531   4.517   1.543  11.801 -0.0082 -0.8458  0.0265
20014TIP3   OH281532   0.495   3.071  14.757 -0.5959  0.0169 -0.1177
20014TIP3    H181533   0.425   3.014  14.790  0.9238 -1.1781  1.1107
20014TIP3    H281534   0.547   3.094  14.834  1.8207 -1.1619 -1.3152
20015TIP3   OH281535   2.754   6.342   3.294 -0.1283  0.0567 -0.2381
20015TIP3    H181536   2.697   6.309   3.363  1.0621 -2.4923 -0.4156
20015TIP3    H281537   2.738   6.284   3.220  2.0288 -0.1289 -0.5772
20016TIP3   OH281538   0.142   4.736   1.723  0.3504  0.4323  0.2858
20016TIP3    H181539   0.196   4.675   1.672  0.4439  0.3065  0.5359
20016TIP3    H281540   0.057   4.693   1.729  0.4771  0.2236  0.6452
20017TIP3   OH281541   1.503   6.523   2.349 -0.6417 -0.9927 -0.5062
20017TIP3    H181542   1.473   6.502   2.261  1.2522 -0.5741 -1.2748
20017TIP3    H281543   1.505   6.618   2.353  1.8539 -1.0062 -0.9379
20018TIP3   OH281544   5.955   1.134  13.408  0.6284  0.0653  0.1051
20018TIP3    H181545   5.875   1.088  13.434 -0.1466  1.2257 -0.2144
20018TIP3    H281546   6.023   1.098  13.465  0.1991 -2.0518 -0.6380
20019TIP3   OH281547   3.385   4.795  15.341 -0.1810  0.3379  0.4800
20019TIP3    H181548   3.476   4.770  15.323  0.3217  2.7841 -0.6313
20019TIP3    H281549   3.392   4.867  15.404 -1.1639  2.4652 -1.7628
20020TIP3   OH281550   1.987   5.161   2.394  0.8027 -0.5958 -0.3223
20020TIP3    H181551   1.908   5.210   2.418  2.0195 -0.5765  4.1895
20020TIP3    H281552   2.053   5.228   2.377  0.9149 -0.6319 -0.0318
20021TIP3   OH281553   2.202   0.637   2.657 -0.1588  0.1543  0.1038
20021TIP3    H181554   2.173   0.727   2.676 -0.4972  0.0317  0.1717
20021TIP3    H281555   2.209   0.634   2.562  1.6150  0.7955  0.1959
20022TIP3   OH281556   1.369   2.238   2.212  0.1796 -0.2076  0.1139
20022TIP3    H181557   1.330   2.186   2.142 -0.1075  1.2879 -0.8479
20022TIP3    H281558   1.417   2.174   2.265 -0.5130 -1.5119 -0.8045
20023TIP3   OH281559   1.893   4.711  13.759 -0.0500 -0.1220 -0.5454
20023TIP3    H181560   1.844   4.785  13.723 -1.7237 -0.8773  0.1634
20023TIP3    H281561   1.922   4.662  13.682 -1.6406 -0.4639 -0.9367
20024TIP3   OH281562   5.613   0.753   5.544 -0.0591  0.5641  0.2837
20024TIP3    H181563   5.663   0.734   5.624  0.2358 -2.3606 -0.5220
20024TIP3    H281564   5.550   0.681   5.538 -1.4271  1.8447 -1.0663
20025TIP3   OH281565   6.035   5.400  12.388 -0.0044 -0.1203 -0.4966
20025TIP3    H181566   5.950   5.396  12.431  1.1910  1.4876  2.1170
20025TIP3    H281567   6.031   5.479  12.334 -0.6797 -0.8616 -1.5473
20026TIP3   OH281568   3.124   2.857   5.117 -0.1725 -0.3986 -0.3002
20026TIP3    H181569   3.076   2.778   5.093 -1.8897  0.5907 -0.1492
20026TIP3    H281570   3.185   2.828   5.185 -1.6540 -1.3534  0.6507
20027TIP3   OH281571   2.393   5.683   1.239 -0.2001 -0.1156  0.4592
20027TIP3    H181572   2.342   5.670   1.159  0.0713 -0.1555  0.2930
20027TIP3    H281573   2.348   5.755   1.284 -1.7296 -1.6073  1.4041
20028TIP3   OH281574   2.059   4.441  16.572 -0.5681 -0.2192  0.2721
20028TIP3    H181575   2.001   4.516  16.586 -1.4473 -0.8582  0.1313
20028TIP3    H281576   2.043   4.415  16.481 -1.8973 -1.9017  0.9503
20029TIP3   OH281577   6.534   1.427   2.298  0.5948 -0.1941  0.5825
20029TIP3    H181578   6.518   1.339   2.331  0.2455 -0.1532  0.5256
20029TIP3    H281579   6.466   1.481   2.339  1.0416  0.1183  0.9129
20030TIP3   OH281580   6.216   1.149  12.120  0.1376  0.2693  0.6045
20030TIP3    H181581   6.241   1.073  12.067  1.7566 -0.4249  2.3089
20030TIP3    H281582   6.121   1.139  12.131 -0.1021  0.0170 -1.4960
20031TIP3   OH281583   1.789   6.359  11.700  0.0206 -0.2007 -0.6892
20031TIP3    H181584   1.806   6.375  11.608 -0.6810 -0.0962 -0.7977
20031TIP3    H281585   1.874   6.332  11.735  0.0659 -1.2038 -1.5669
20032TIP3   OH281586   0.708   1.224   1.488 -0.0265  0.0906 -0.3880
20032TIP3    H181587   0.796   1.188   1.480  0.2875  0.8692 -0.4311
20032TIP3    H281588   0.712   1.310   1.445 -1.1147 -0.3843 -1.5011
20033TIP3   OH281589   3.804   3.543  11.401  0.6568  0.0126  0.7030
20033TIP3    H181590   3.751   3.493  11.463  0.3190 -1.5784 -0.8056
20033TIP3    H281591   3.886   3.493  11.394  0.0608 -0.7373 -1.3146
20034TIP3   OH281592   2.681   3.595  13.332  0.6588 -0.0653  0.1476
20034TIP3    H181593   2.635   3.578  13.414  0.3308 -1.1946 -0.2522
20034TIP3    H281594   2.613   3.591  13.264  1.3419 -2.1002 -0.4844
20035TIP3   OH281595   0.120   4.454   3.273  0.2487  0.1376 -0.0344
20035TIP3    H181596   0.053   4.409   3.222 -0.6535 -0.5773  1.7418
20035TIP3    H281597   0.122   4.543   3.237 -0.3447 -0.3593 -1.3144
20036TIP3   OH281598   6.346   1.814   0.425  0.5319 -0.5165 -0.0735
20036TIP3    H181599   6.309   1.901   0.438  0.6604 -0.6155  0.9824
20036TIP3    H281600   6.379   1.789   0.511  2.6627 -0.6061 -0.8670
20037TIP3   OH281601   3.449   1.546   4.155 -0.3408 -0.2146  0.0624
20037TIP3    H181602   3.432   1.577   4.245  0.7861  0.0439  0.1983
20037TIP3    H281603   3.367   1.508   4.127  0.0640 -2.8831  2.2462
20038TIP3   OH281604   1.200   1.445  12.349  0.0227  0.4624 -0.1452
20038TIP3    H181605   1.135   1.513  12.365 -0.0353  0.4411 -0.2883
20038TIP3    H281606   1.149   1.364  12.341  0.1996  0.1904  1.3377
20039TIP3   OH281607   2.791   0.489   1.824  0.1612  0.1704  0.2021
20039TIP3    H181608   2.771   0.549   1.896 -3.0003 -1.2541  0.6151
20039TIP3    H281609   2.804   0.546   1.748 -2.4597  1.4368  0.6373
20040TIP3   OH281610   3.523   4.598   5.580  0.1171 -0.6889 -0.0914
20040TIP3    H181611   3.439   4.574   5.541  1.6651  0.7570 -4.6895
20040TIP3    H281612   3.570   4.516   5.591 -1.5739 -1.4402  1.9241
20041TIP3   OH281613   6.248   2.454  15.943  0.5658  0.0677  0.3026
20041TIP3    H181614   6.301   2.375  15.956  1.4445  0.6474  0.2710
20041TIP3    H281615   6.206   2.442  15.858  1.9957  0.3735 -0.4477
20042TIP3   OH281616   2.914   4.734  11.659  0.7150  0.3450  0.0323
20042TIP3    H181617   2.969   4.765  11.731  1.3465  0.3281 -0.4414
20042TIP3    H281618   2.896   4.812  11.607 -0.7348  0.5770  0.8666
20043TIP3   OH281619   6.530   1.481   0.032 -0.1978 -0.5739  0.1756
20043TIP3    H181620   6.499   1.568   0.007 -1.2359 -0.2713  2.3856
20043TIP3    H281621   6.475   1.421  -0.018 -0.0669  0.0349 -0.7069
20044TIP3   OH281622   5.592   0.430   2.844  0.0330  0.0465  0.4037
20044TIP3    H181623   5.575   0.524   2.848  1.8613  0.3930  0.6093
20044TIP3    H281624   5.568   0.405   2.755 -0.8647  0.6189  0.4814
20045TIP3   OH281625   0.973   0.745  13.829 -0.5651 -0.4027  0.3295
20045TIP3    H181626   0.905   0.772  13.891 -0.2531 -0.4513  0.6997
20045TIP3    H281627   1.052   0.739  13.883 -0.0844  0.5014 -0.2815
20046TIP3   OH281628   0.059   3.488  11.752  0.1866  0.3771  0.1296
20046TIP3    H181629  -0.024   3.527  11.725  0.6272  0.3708 -1.3195
20046TIP3    H281630   0.124   3.527  11.693  1.2711  0.6555  1.4904
20047TIP3   OH281631   5.213   3.532  15.607 -0.2543  0.4830 -0.2510
20047TIP3    H181632   5.129   3.491  15.629  0.0103 -0.6004 -1.2277
20047TIP3    H281633   5.247   3.480  15.534  0.3626  2.0757 -1.1363
20048TIP3   OH281634   6.470   2.152  16.933  0.4806 -0.6381 -0.0884
20048TIP3    H181635   6.454   2.075  16.879 -1.5193  0.7311 -1.5556
20048TIP3    H281636   6.490   2.118  17.020 -0.5850 -2.8079 -0.6598
20049TIP3   OH281637   2.481   5.561   4.911  0.4695 -0.1678  0.1059
20049TIP3    H181638   2.506   5.645   4.948  1.0399  1.4679 -3.7365
20049TIP3    H281639   2.415   5.582   4.846 -0.5332 -2.9061  0.1585
20050TIP3   OH281640   3.184   4.503  11.891 -0.0854  0.1420 -0.3398
20050TIP3    H181641   3.190   4.536  11.981  0.0148  2.0460 -1.0140
20050TIP3    H281642   3.157   4.412  11.900  0.5406  0.1334  1.6462
20051TIP3   OH281643   0.779   1.831   1.673  0.3878  0.0984 -0.1673
20051TIP3    H181644   0.818   1.856   1.590 -0.4417 -1.4574 -1.0521
20051TIP3    H281645   0.854   1.817   1.732  0.9682  1.2968 -0.6099
20052TIP3   OH281646   6.498   3.296   5.567 -0.2613 -0.4859  0.5084
20052TIP3    H181647   6.517   3.385   5.596 -1.6713 -0.6661  2.0685
20052TIP3    H281648   6.474   3.305   5.475  3.5256  0.2043 -0.4681
20053TIP3   OH281649   0.553   4.539  14.829  0.1095 -0.0633 -0.0606
20053TIP3    H181650   0.571   4.522  14.922 -0.5553 -1.6662 -0.2117
20053TIP3    H281651   0.637   4.565  14.793  0.8331 -1.4762  0.5569
20054TIP3   OH281652   1.283   1.365  13.304 -0.8047  0.0805  0.2862
20054TIP3    H181653   1.354   1.301  13.309 -0.0962  0.7730 -0.6784
20054TIP3    H281654   1.238   1.358  13.388 -0.2651 -1.1383  0.4849
20055TIP3   OH281655   2.877   3.810  17.250 -0.0320 -0.1883 -0.0216
20055TIP3    H181656   2.958   3.853  17.223  0.5693 -0.3296  1.5275
20055TIP3    H281657   2.814   3.835  17.182  1.2235  0.1380 -1.1057
20056TIP3   OH281658   5.647   0.393   6.118 -0.0399 -0.3167 -0.2842
20056TIP3    H181659   5.710   0.426   6.182  0.4021  0.7857 -1.2735
20056TIP3    H281660   5.597   0.469   6.090 -1.3273 -1.0600 -0.0659
20057TIP3   OH281661   5.619   2.647   1.726 -0.2953  0.4749  0.0207
20057TIP3    H181662   5.615   2.556   1.756  0.7474  1.0997  2.1242
20057TIP3    H281663   5.575   2.697   1.795 -1.5673  1.4907 -1.5046
20058TIP3   OH281664   4.803   1.353  12.573 -0.1236  0.0552  0.1156
20058TIP3    H181665   4.797   1.259  12.590 -1.6116  0.2900  0.9540
20058TIP3    H281666   4.713   1.380  12.558  0.3186  1.3227 -0.3013
20059TIP3   OH281667   3.088   3.892   1.973 -0.7582 -0.0072  0.3807
20059TIP3    H181668   3.089   3.803   2.007 -1.6573 -0.5497 -0.9838
20059TIP3    H281669   3.101   3.882   1.879 -1.5346  1.2592  0.1259
20060TIP3   OH281670   4.804   2.464  13.245 -0.2926 -0.5749  0.0971
20060TIP3    H181671   4.825   2.489  13.335 -2.0509  1.4949 -0.0295
20060TIP3    H281672   4.858   2.523  13.192 -2.1216  0.9111 -0.1830
20061TIP3   OH281673   2.521   3.332   2.841  0.5638 -0.3913  0.1988
20061TIP3    H181674   2.509   3.364   2.751 -0.6177 -2.4485 -0.4126
20061TIP3    H281675   2.503   3.408   2.896  0.8851  0.7916 -1.2899
20062TIP3   OH281676   4.975   6.272  17.066  0.0732 -1.0116 -0.3145
20062TIP3    H181677   5.033   6.243  17.136 -0.0689 -2.2763 -0.7139
20062TIP3    H281678   5.030   6.273  16.988 -0.1565 -1.1113 -0.4784
20063TIP3   OH281679   5.846   6.819  13.297  0.7326  0.2160 -0.1050
20063TIP3    H181680   5.929   6.818  13.345  0.7190 -1.1443 -0.0844
20063TIP3    H281681   5.794   6.886  13.341  1.3907  0.2505  0.6334
20064TIP3   OH281682   3.690   5.003   3.242  0.5353  0.3467 -0.3294
20064TIP3    H181683   3.755   4.984   3.175  0.5932  0.2293 -0.2389
20064TIP3    H281684   3.738   4.999   3.325  0.1696 -0.8501 -0.1777
20065TIP3   OH281685   4.070   1.225   0.742  0.4805 -0.3911  0.5592
20065TIP3    H181686   4.011   1.296   0.716  0.1678 -0.5618  0.7961
20065TIP3    H281687   4.151   1.269   0.767 -0.3228  0.0347  2.4912
20066TIP3   OH281688   1.535   0.995   3.547 -0.4182  0.5882 -0.2851
20066TIP3    H181689   1.454   0.972   3.593 -0.0857  1.0481  0.5355
20066TIP3    H281690   1.536   1.091   3.549  0.5014  0.5660  0.3172
20067TIP3   OH281691   2.532   2.518   3.355 -0.6462 -0.7925 -0.0364
20067TIP3    H181692   2.625   2.528   3.373 -0.2749 -0.5413 -1.9669
20067TIP3    H281693   2.522   2.428   3.327 -0.8345 -0.5669 -0.6950
20068TIP3   OH281694   2.369   0.747   4.505 -0.4039  0.3584 -0.2567
20068TIP3    H181695   2.440   0.764   4.567 -0.0122  1.2615 -0.9438
20068TIP3    H281696   2.405   0.773   4.420 -0.5885 -1.8235 -1.0141
20069TIP3   OH281697   0.308   3.151  12.940  0.0305 -0.1042 -0.0965
20069TIP3    H181698   0.242   3.093  12.980 -0.9852 -0.9947 -2.9524
20069TIP3    H281699   0.383   3.094  12.923  0.6948  0.4077  1.0301
20070TIP3   OH281700   1.661   1.437  11.688  0.1409 -0.1755  0.3121
20070TIP3    H181701   1.733   1.498  11.674 -1.2737  1.4808  0.0610
20070TIP3    H281702   1.597   1.487  11.739 -1.4427 -1.1556 -0.6837
20071TIP3   OH281703   2.415   4.522   2.140  0.4173  0.8802 -0.5697
20071TIP3    H181704   2.500   4.563   2.129  0.1564  1.3550 -0.8251
20071TIP3    H281705   2.370   4.575   2.205  0.8832 -0.2608  0.7074
20072TIP3   OH281706   5.076   3.394  15.881 -0.0735 -0.7140  0.1880
20072TIP3    H181707   5.099   3.341  15.957 -1.2455 -1.3694  0.0992
20072TIP3    H281708   5.061   3.330  15.811  0.1701 -0.1656 -0.3704
20073TIP3   OH281709   5.517   0.420  13.004  0.3257 -0.5211  0.1054
20073TIP3    H181710   5.553   0.331  13.011 -0.4507 -0.8346  0.1945
20073TIP3    H281711   5.531   0.444  12.912 -0.2579 -1.0911 -0.1413
20074TIP3   OH281712   2.460   5.967  13.057  0.3351 -0.4235  0.2209
20074TIP3    H181713   2.463   5.880  13.016 -0.0184  0.0634 -0.8832
20074TIP3    H281714   2.548   5.981  13.091  0.5343 -1.0106 -0.0423
20075TIP3   OH281715   3.119   4.925   0.909 -0.0295 -0.4120 -0.1344
20075TIP3    H181716   3.094   4.905   0.999  1.7013  0.8017  0.6243
20075TIP3    H281717   3.121   4.839   0.865  1.8156 -1.3288  1.6672
20076TIP3   OH281718   0.410   1.564  16.807 -0.4039  0.2717  0.3032
20076TIP3    H181719   0.394   1.584  16.899 -0.4153 -0.7550  0.5317
20076TIP3    H281720   0.483   1.621  16.782 -0.0108  0.1248  1.1088
20077TIP3   OH281721   2.779   6.757   3.915  0.0179  0.4171  0.5252
20077TIP3    H181722   2.752   6.763   4.006 -0.0867  0.7796  0.4731
20077TIP3    H281723   2.827   6.839   3.899  0.3960  0.1669  0.3753
20078TIP3   OH281724   3.989   0.663  15.458  0.3546  0.4100 -0.1283
20078TIP3    H181725   3.901   0.697  15.439  0.9953  1.9622 -0.3389
20078TIP3    H281726   4.045   0.704  15.393  1.6087  1.1804  1.4036
20079TIP3   OH281727   2.906   1.617  16.129  0.0579 -0.0422  0.3327
20079TIP3    H181728   2.928   1.708  16.150  2.2804 -0.1891 -1.2079
20079TIP3    H281729   2.937   1.605  16.040 -0.2031 -2.3452  0.5302
20080TIP3   OH281730   5.588   4.726  11.945  0.5198  0.4058  0.1744
20080TIP3    H181731   5.559   4.636  11.937  2.2068 -0.1311 -0.0370
20080TIP3    H281732   5.640   4.728  12.025  0.6651  1.1531  0.0687
20081TIP3   OH281733   2.088   2.796   1.325  0.3974  0.3477  0.2538
20081TIP3    H181734   2.066   2.795   1.232  2.8941  2.1993 -0.4068
20081TIP3    H281735   2.140   2.717   1.338  0.2428  0.2071  0.0214
20082TIP3   OH281736   4.751   4.226  14.092  0.0589 -0.3395 -0.1626
20082TIP3    H181737   4.670   4.208  14.044 -0.6817  0.2917  0.8209
20082TIP3    H281738   4.819   4.227  14.025 -0.6827 -1.2878 -0.9462
20083TIP3   OH281739   4.753   0.942  15.874 -0.1379 -0.0655  0.0936
20083TIP3    H181740   4.731   0.974  15.962 -1.0949 -1.6496  0.4538
20083TIP3    H281741   4.830   0.888  15.886 -1.1370 -1.4975  0.2259
20084TIP3   OH281742   2.059   6.670  16.836 -0.4958 -0.0898 -0.4735
20084TIP3    H181743   2.080   6.722  16.759  0.6902  1.2156  0.6976
20084TIP3    H281744   2.137   6.676  16.891 -1.8797  0.2695  1.4977
20085TIP3   OH281745   6.057   5.779   6.806  0.0193 -0.1120  0.0991
20085TIP3    H181746   6.069   5.696   6.853  1.2163 -0.7889 -1.3910
20085TIP3    H281747   6.001   5.756   6.732 -2.2375  1.0444  1.3793
20086TIP3   OH281748   6.742   2.259   4.049  0.0638 -0.0341  0.5989
20086TIP3    H181749   6.777   2.191   4.106  1.8485  0.2560 -0.1174
20086TIP3    H281750   6.799   2.258   3.972 -0.2657  1.8419  0.3035
20087TIP3   OH281751   3.994   0.007  13.050 -0.9219 -0.0498  0.5261
20087TIP3    H181752   3.933   0.076  13.025 -1.6391 -0.6390  0.6613
20087TIP3    H281753   3.961  -0.072  13.008 -0.0974 -0.3212  0.3666
20088TIP3   OH281754   2.418   1.731  16.765 -0.2570 -0.7348 -0.5559
20088TIP3    H181755   2.414   1.821  16.731 -0.2419 -0.0501  1.1815
20088TIP3    H281756   2.498   1.730  16.817 -0.6741 -1.5295  0.0656
20089TIP3   OH281757   0.465   3.782  17.144 -0.5323 -0.2570 -0.5807
20089TIP3    H181758   0.416   3.780  17.062 -0.4380  2.9836 -0.7931
20089TIP3    H281759   0.550   3.819  17.120 -1.0236  2.1182  1.1651
20090TIP3   OH281760   1.311   4.649  14.613 -0.5000 -0.2327 -0.2987
20090TIP3    H181761   1.397   4.648  14.653 -0.6845 -1.5178  0.1077
20090TIP3    H281762   1.322   4.600  14.531 -0.7580 -0.0501 -0.4460
20091TIP3   OH281763   1.382   5.325   0.287 -0.0257  0.3707 -0.1710
20091TIP3    H181764   1.468   5.318   0.245 -0.6974  0.3746 -1.5933
20091TIP3    H281765   1.325   5.271   0.233 -1.0436  0.8366  0.4232
20092TIP3   OH281766   6.479   2.087  10.821  0.3514  0.2210 -0.2971
20092TIP3    H181767   6.521   2.010  10.859  0.0201  0.9733  1.6543
20092TIP3    H281768   6.551   2.144  10.795  0.5632  0.7684  1.4773
20093TIP3   OH281769   5.771   3.686  16.879  0.2160  0.4317 -0.2427
20093TIP3    H181770   5.761   3.606  16.828 -3.1067 -0.3214  1.4971
20093TIP3    H281771   5.822   3.661  16.955  0.7357  0.4011 -0.5973
20094TIP3   OH281772   3.283   0.218   1.044 -0.5508 -0.4771  0.1691
20094TIP3    H181773   3.344   0.291   1.029  0.1731 -0.2905  3.5626
20094TIP3    H281774   3.310   0.151   0.982  2.0708  0.2612  0.4506
20095TIP3   OH281775   3.566   6.344  15.151  0.2436 -0.3965 -0.0913
20095TIP3    H181776   3.630   6.400  15.196 -1.8861  0.5306  1.8616
20095TIP3    H281777   3.487   6.349  15.205 -1.0753 -2.5875 -1.7450
20096TIP3   OH281778   2.803   0.590   3.313  0.1310  0.1809 -0.3943
20096TIP3    H181779   2.723   0.546   3.343  0.8957 -1.0473 -0.1087
20096TIP3    H281780   2.872   0.554   3.369  0.6859  2.2679  0.3053
20097TIP3   OH281781   1.584   4.068  17.091 -0.5115 -0.0420 -0.5259
20097TIP3    H181782   1.575   4.091  16.999  0.6752 -0.5753 -0.7859
20097TIP3    H281783   1.520   4.122  17.136 -0.6694  0.6635 -1.5999
20098TIP3   OH281784   0.204   4.031  15.612 -0.3708 -0.0063 -0.4471
20098TIP3    H181785   0.210   4.088  15.689 -2.9669  1.2841 -1.1414
20098TIP3    H281786   0.159   3.952  15.644  0.4493 -0.3677 -0.1781
20099TIP3   OH281787   4.076   5.845   2.791  0.2654 -0.5151 -0.2854
20099TIP3    H181788   4.007   5.826   2.728 -0.0958 -1.6011  0.4420
20099TIP3    H281789   4.146   5.884   2.738 -0.5363 -0.2451 -1.1538
20100TIP3   OH281790   1.498   2.578   4.539  0.0303  0.7171 -0.1053
20100TIP3    H181791   1.551   2.498   4.543 -0.9516 -0.0123 -1.3346
20100TIP3    H281792   1.509   2.609   4.449 -0.9754  1.0024 -0.1353
20101TIP3   OH281793   5.732   5.564  13.938 -0.5884 -0.3567  0.0944
20101TIP3    H181794   5.746   5.499  14.007 -1.1936 -0.0025  0.5544
20101TIP3    H281795   5.720   5.646  13.985  0.8207  0.2063 -0.5110
20102TIP3   OH281796   6.314   3.042   0.797 -0.2222 -0.6811  0.4828
20102TIP3    H181797   6.300   2.951   0.773 -0.6732 -0.3266 -0.6019
20102TIP3    H281798   6.382   3.073   0.737 -1.4891  0.2642 -0.4726
20103TIP3   OH281799   4.786   4.398  13.736  0.8359  0.3643  0.6057
20103TIP3    H181800   4.851   4.381  13.804  0.5534  0.1023  0.8067
20103TIP3    H281801   4.767   4.492  13.744  2.2372  0.7564 -0.3687
20104TIP3   OH281802   3.088   1.300  11.073 -0.0234  0.7589 -0.1730
20104TIP3    H181803   3.032   1.289  10.997 -0.0490  2.6163 -0.4427
20104TIP3    H281804   3.049   1.244  11.140 -0.4385 -0.2849 -1.2636
20105TIP3   OH281805   2.862   1.815   3.888 -0.0236 -0.0797  0.2972
20105TIP3    H181806   2.823   1.728   3.898 -1.1963  0.3472 -0.4203
20105TIP3    H281807   2.886   1.841   3.977 -3.1792  0.4338  1.0658
20106TIP3   OH281808   0.185   2.160  15.418  0.0422  0.2421  0.4307
20106TIP3    H181809   0.218   2.109  15.344  0.9354  2.0114 -0.4226
20106TIP3    H281810   0.242   2.136  15.491  0.4869  0.0526  0.0247
20107TIP3   OH281811   6.081   3.276   0.791 -0.1491 -0.5253 -0.4003
20107TIP3    H181812   6.156   3.218   0.803  0.2053 -0.8177 -3.4256
20107TIP3    H281813   6.052   3.257   0.701 -1.8920  1.8206 -0.3562
20108TIP3   OH281814   4.247   4.912   6.722  0.3133  0.3584  0.2742
20108TIP3    H181815   4.207   4.886   6.639 -0.0501  2.1886 -0.1607
20108TIP3    H281816   4.315   4.975   6.697 -0.3419  1.5345  1.4117
20109TIP3   OH281817   3.012   2.092  13.112 -0.0295  0.3428 -0.9632
20109TIP3    H181818   3.078   2.152  13.077  1.4384  0.2429  1.4917
20109TIP3    H281819   3.047   2.065  13.197 -1.9144 -1.9458 -0.8650
20110TIP3   OH281820   4.697   1.845  11.311  0.0416  0.5984  0.1118
20110TIP3    H181821   4.619   1.835  11.366 -0.4172 -0.1444 -0.6567
20110TIP3    H281822   4.725   1.756  11.293 -0.1390  0.8166 -1.2982
20111TIP3   OH281823   5.405   0.637   2.883  0.0320 -0.2588 -0.1824
20111TIP3    H181824   5.392   0.595   2.798 -1.2136 -1.2006  0.4578
20111TIP3    H281825   5.328   0.693   2.894 -0.5400 -1.2712  0.9788
20112TIP3   OH281826   4.650   4.154   0.311  0.0733  0.0663 -0.0949
20112TIP3    H181827   4.651   4.111   0.226  2.0777  1.1828 -0.6591
20112TIP3    H281828   4.557   4.175   0.326 -0.2783 -0.0014 -2.0528
20113TIP3   OH281829   4.474   0.376  15.690 -0.5118 -0.1086 -0.9187
20113TIP3    H181830   4.438   0.314  15.626 -1.4451  1.2049 -1.6940
20113TIP3    H281831   4.397   0.409  15.737  0.1259 -0.6876  0.5573
20114TIP3   OH281832   0.015   0.755   2.179  0.1858  0.4772 -0.3986
20114TIP3    H181833   0.071   0.833   2.187 -0.7506  1.3020 -1.7815
20114TIP3    H281834   0.013   0.736   2.085 -1.0247 -0.1682 -0.2478
20115TIP3   OH281835   0.957   4.816  14.273  0.1679  0.2367  0.0465
20115TIP3    H181836   0.877   4.842  14.226  0.8184  0.2486 -1.0645
20115TIP3    H281837   0.960   4.875  14.349 -1.0642  0.0016  0.2906
20116TIP3   OH281838   2.547   5.794  11.932 -0.3361  0.0103  0.3632
20116TIP3    H181839   2.606   5.825  11.863 -0.9676 -1.4828 -0.8667
20116TIP3    H281840   2.603   5.740  11.988  0.1771  1.2258  1.0637
20117TIP3   OH281841   6.098   1.806   1.025  0.3807 -0.0730 -0.5199
20117TIP3    H181842   6.045   1.737   1.065  0.5483 -0.1227 -0.3835
20117TIP3    H281843   6.152   1.759   0.961 -0.7144  0.1573 -1.6440
20118TIP3   OH281844   3.009   0.334   1.465 -0.4978 -0.1850 -0.6066
20118TIP3    H181845   2.952   0.402   1.426  1.2253  1.6196 -0.0576
20118TIP3    H281846   2.980   0.328   1.556 -2.4352 -2.1668 -1.2924
20119TIP3   OH281847   3.096   6.751   3.671  0.0090  0.1850 -0.2561
20119TIP3    H181848   3.028   6.765   3.606 -0.4119  0.7501  0.3065
20119TIP3    H281849   3.113   6.657   3.667  1.3466  0.4763 -2.5289
20120TIP3   OH281850   5.254   0.191   4.249 -0.1478 -0.4907 -0.4384
20120TIP3    H181851   5.337   0.208   4.293  1.2788 -0.7909 -2.9123
20120TIP3    H281852   5.224   0.277   4.219 -0.0228 -0.5612 -0.7657
20121TIP3   OH281853   3.846   5.936  14.865 -0.7270  0.5972 -0.4096
20121TIP3    H181854   3.829   5.855  14.817 -2.1898  0.3293  0.5118
20121TIP3    H281855   3.874   5.999  14.799  0.8225 -0.7707 -1.0683
20122TIP3   OH281856   5.897   4.247  14.482 -0.2321 -0.4212  0.2078
20122TIP3    H181857   5.899   4.187  14.556  0.1820 -0.7515 -0.0688
20122TIP3    H281858   5.947   4.202  14.413  1.3265  0.8633  0.4801
20123TIP3   OH281859   3.643   6.084  13.300  0.2266  0.7229  0.3014
20123TIP3    H181860   3.599   6.149  13.244 -1.2580  1.8749  2.7228
20123TIP3    H281861   3.602   6.001  13.275 -1.0355  1.3416  0.2379
20124TIP3   OH281862   4.738   6.396   0.308  0.2975 -0.0075 -0.1033
20124TIP3    H181863   4.674   6.402   0.237  0.5124  1.2063 -0.2153
20124TIP3    H281864   4.701   6.333   0.369 -1.4844  1.4112  0.3022
20125TIP3   OH281865   5.696   6.630  12.870 -0.0801  0.1452  0.1185
20125TIP3    H181866   5.698   6.653  12.963 -1.5070 -0.5464  0.3403
20125TIP3    H281867   5.712   6.713  12.825 -0.2315  0.6504  0.9753
20126TIP3   OH281868   2.048   1.165   6.213 -0.3023  0.1398  0.0170
20126TIP3    H181869   2.077   1.196   6.127  4.1996 -1.5424  0.7893
20126TIP3    H281870   2.026   1.073   6.199  3.5815 -1.0629  1.1779
20127TIP3   OH281871   5.516   1.685  15.489 -0.0002 -0.0103  0.6540
20127TIP3    H181872   5.565   1.746  15.545  1.0646 -0.0423 -0.2324
20127TIP3    H281873   5.505   1.731  15.406 -0.2680 -0.5457  0.3872
20128TIP3   OH281874   4.363   4.131  16.932 -0.1809 -0.1630  0.4002
20128TIP3    H181875   4.457   4.151  16.935 -0.7898  2.9559 -0.0108
20128TIP3    H281876   4.320   4.213  16.955 -2.8296 -1.6681  1.0299
20129TIP3   OH281877   2.411   2.807   3.401 -0.5573 -0.1617  0.4808
20129TIP3    H181878   2.491   2.839   3.359 -1.6324  0.2413 -1.2851
20129TIP3    H281879   2.423   2.712   3.408 -0.6738 -0.3205 -1.3936
20130TIP3   OH281880   0.348   3.500   4.856 -0.5666 -0.2460  0.4262
20130TIP3    H181881   0.316   3.590   4.858  0.3823  0.1765 -1.8129
20130TIP3    H281882   0.438   3.506   4.887  0.0891 -0.1289 -1.4543
20131TIP3   OH281883   2.870   3.630  12.374  0.6311  0.3734 -0.2651
20131TIP3    H181884   2.805   3.559  12.377  1.9688 -0.8531  0.5451
20131TIP3    H281885   2.932   3.608  12.443  2.1766  1.2720 -1.3341
20132TIP3   OH281886   1.291   4.603   2.240  0.3244 -0.4687  0.6752
20132TIP3    H181887   1.360   4.669   2.251 -1.0364  0.8365  1.5222
20132TIP3    H281888   1.335   4.529   2.199  1.8590  1.0085 -0.3851
20133TIP3   OH281889   4.879   4.494  15.482  0.4035  0.4659 -0.2739
20133TIP3    H181890   4.848   4.518  15.394 -0.2321  0.8316  0.0457
20133TIP3    H281891   4.927   4.572  15.512  1.7349 -0.1318 -0.8031
20134TIP3   OH281892   4.637   6.451  17.224 -0.0718 -0.2470  0.1231
20134TIP3    H181893   4.631   6.357  17.209  0.6222  0.0259 -1.9731
20134TIP3    H281894   4.698   6.483  17.158  0.9020  1.4670  1.7964
20135TIP3   OH281895   2.179   3.057  16.079  0.6693 -0.1727 -0.1484
20135TIP3    H181896   2.141   3.143  16.062  1.1755  0.2961  1.0408
20135TIP3    H281897   2.229   3.037  16.000  0.8277  0.7675 -0.2889
20136TIP3   OH281898   5.243   5.430  14.395  0.4983 -0.3247  0.5375
20136TIP3    H181899   5.302   5.504  14.409 -1.6545  2.3606 -3.5548
20136TIP3    H281900   5.172   5.443  14.458 -0.5965  2.0646 -1.0832
20137TIP3   OH281901   0.895   0.087   0.952 -0.2442  0.2959  0.2470
20137TIP3    H181902   0.975   0.035   0.946 -1.0880 -1.0096  0.3360
20137TIP3    H281903   0.868   0.099   0.861 -1.4089 -1.5319  0.3439
20138TIP3   OH281904   6.641   3.079   4.060 -0.3147 -0.0986 -0.1622
20138TIP3    H181905   6.558   3.053   4.099 -1.1276 -0.8117 -2.2886
20138TIP3    H281906   6.696   3.001   4.066 -0.5616 -0.3207 -0.7445
20139TIP3   OH281907   0.559   0.142  12.757 -0.1869 -0.4530 -0.0705
20139TIP3    H181908   0.541   0.231  12.788  1.1162 -0.3863  0.5104
20139TIP3    H281909   0.644   0.149  12.714  0.2422 -1.5818  0.6095
20140TIP3   OH281910   6.543   6.474  15.332  0.5700  0.0624 -0.5948
20140TIP3    H181911   6.501   6.532  15.269  2.5941  0.0834 -1.9681
20140TIP3    H281912   6.470   6.428  15.375 -0.8544  0.4979 -2.4974
20141TIP3   OH281913   2.368   0.461   5.166 -0.1494 -0.6098  1.0686
20141TIP3    H181914   2.420   0.478   5.245  0.7709  0.3503  0.2708
20141TIP3    H281915   2.421   0.400   5.115  0.0183  0.0521  0.4399
20142TIP3   OH281916   0.217   6.778  11.293 -0.2247 -0.2442  0.0358
20142TIP3    H181917   0.218   6.826  11.375  1.0827  0.6991 -0.5023
20142TIP3    H281918   0.142   6.812  11.245  0.3424  0.8501 -0.0912
20143TIP3   OH281919   3.511   3.809   4.306  0.0038  0.4004  0.3188
20143TIP3    H181920   3.453   3.750   4.353  0.7707 -0.9649 -0.3947
20143TIP3    H281921   3.599   3.776   4.324  0.3638  0.4434 -1.2374
20144TIP3   OH281922   5.737   3.665  12.340  0.0486  0.1598  0.0963
20144TIP3    H181923   5.678   3.678  12.414 -1.1591  0.7356 -0.9597
20144TIP3    H281924   5.686   3.691  12.263  1.2344 -0.5827 -0.9608
20145TIP3   OH281925   1.809   3.463   5.305  0.1658 -0.4134  0.2315
20145TIP3    H181926   1.757   3.393   5.268  0.3083  0.0697 -0.9222
20145TIP3    H281927   1.827   3.522   5.231  1.1575  0.1479  0.8903
20146TIP3   OH281928   5.200   5.058   3.167  0.4761  0.1917  0.0645
20146TIP3    H181929   5.146   5.026   3.240  0.9682  3.0299  1.7407
20146TIP3    H281930   5.288   5.026   3.186  0.6539  1.1377  0.8813
20147TIP3   OH281931   3.267   2.196  16.192 -0.1696 -0.6175  0.0654
20147TIP3    H181932   3.180   2.176  16.160 -0.4045  0.4904 -0.0164
20147TIP3    H281933   3.281   2.135  16.264 -1.2237 -0.4443  0.4209
20148TIP3   OH281934   2.797   0.017   4.216  0.0519  0.0925  0.0169
20148TIP3    H181935   2.712   0.050   4.188  0.2896  1.2127  0.6096
20148TIP3    H281936   2.824   0.076   4.286  1.1859 -0.4321  0.0321
20149TIP3   OH281937   6.561   2.790   0.982  0.3280  0.0217  0.4069
20149TIP3    H181938   6.497   2.837   1.035  0.6040 -0.2850  1.0094
20149TIP3    H281939   6.539   2.697   0.993  0.3545 -0.0444 -0.0530
20150TIP3   OH281940   3.059   6.195   2.113  0.5793 -0.0451  0.1198
20150TIP3    H181941   3.095   6.282   2.130  0.4048  0.1813 -0.6602
20150TIP3    H281942   2.969   6.211   2.086 -0.3530 -0.6534  2.7429
20151TIP3   OH281943   0.685   6.115   4.069  0.6799  0.1451  0.8115
20151TIP3    H181944   0.625   6.042   4.085  1.1817 -0.4934 -0.2076
20151TIP3    H281945   0.653   6.185   4.127 -0.1000 -0.7076  1.4282
20152TIP3   OH281946   2.151   0.066  14.079  0.0132 -0.1388  0.0162
20152TIP3    H181947   2.190   0.051  13.993 -1.1524 -1.0464 -0.3713
20152TIP3    H281948   2.202   0.011  14.139 -0.0010 -0.5112 -0.3102
20153TIP3   OH281949   4.473   0.688   5.665 -0.2420 -0.4705 -0.3280
20153TIP3    H181950   4.510   0.751   5.603 -0.6731 -1.2928 -1.4377
20153TIP3    H281951   4.440   0.617   5.610  2.0142 -2.6318  0.9910
20154TIP3   OH281952   4.526   1.507   0.469  0.1179 -0.0807  0.3237
20154TIP3    H181953   4.516   1.414   0.488 -1.9262  0.0869  0.2711
20154TIP3    H281954   4.478   1.551   0.539  1.8248  0.9783  0.8532
20155TIP3   OH281955   4.093   4.886  12.084 -0.3899 -0.8539  0.3081
20155TIP3    H181956   4.105   4.803  12.131 -2.7655 -1.9195 -0.8483
20155TIP3    H281957   4.109   4.864  11.992  1.4593  0.5700  0.2714
20156TIP3   OH281958   6.564   5.499   5.631 -0.3405  0.1135  0.0389
20156TIP3    H181959   6.660   5.501   5.639 -0.3881 -0.1191  0.6897
20156TIP3    H281960   6.536   5.584   5.662 -0.3283  0.2648 -0.3653
20157TIP3   OH281961   3.679   4.182   0.528  0.3642 -0.1106 -0.6186
20157TIP3    H181962   3.740   4.191   0.602 -0.2231 -3.8496  0.4657
20157TIP3    H281963   3.722   4.120   0.469 -1.0222 -0.4357 -1.3182
20158TIP3   OH281964   1.803   3.138   2.747  0.2118  0.1618 -0.6004
20158TIP3    H181965   1.838   3.221   2.780  1.2271  0.1153 -1.5090
20158TIP3    H281966   1.867   3.072   2.773  1.3601  0.2126 -3.1119
20159TIP3   OH281967   0.700   2.937  16.308 -0.1067 -0.1309  1.0318
20159TIP3    H181968   0.765   2.927  16.377 -0.0842 -0.0555  1.0208
20159TIP3    H281969   0.636   2.868  16.323 -1.6692  1.6350  2.8641
20160TIP3   OH281970   1.856   4.435   4.122  0.1761 -0.2811  0.2389
20160TIP3    H181971   1.808   4.398   4.048 -1.0968 -0.8522  1.3281
20160TIP3    H281972   1.921   4.492   4.082  0.2014 -1.3998 -1.3610
20161TIP3   OH281973   6.389   3.285  14.385  0.6586 -0.1199  0.2322
20161TIP3    H181974   6.463   3.227  14.402 -0.0606 -0.4425  2.3563
20161TIP3    H281975   6.332   3.235  14.326  2.2857  0.3022 -1.7824
20162TIP3   OH281976   1.092   0.254  13.651  0.2577  0.2426 -0.4638
20162TIP3    H181977   1.174   0.298  13.629  1.1275 -1.2830 -0.3643
20162TIP3    H281978   1.109   0.162  13.633 -1.8515  0.0513 -1.6327
20163TIP3   OH281979   0.785   0.219  15.477  0.0435 -0.1856 -0.4898
20163TIP3    H181980   0.784   0.251  15.567 -0.6519 -2.2953  0.2971
20163TIP3    H281981   0.695   0.230  15.447 -0.5507 -2.4851  0.2547
20164TIP3   OH281982   0.785   0.195  14.887 -0.4433 -0.7203  0.1528
20164TIP3    H181983   0.770   0.220  14.978  1.7348 -0.6841  0.5319
20164TIP3    H281984   0.775   0.276  14.838  0.8150 -0.2460  0.6680
20165TIP3   OH281985   1.516   4.622  16.633  0.2633  0.4267  0.1915
20165TIP3    H181986   1.468   4.613  16.551  0.8447 -0.0343 -0.0899
20165TIP3    H281987   1.481   4.552  16.689 -0.0322  0.6537  0.2958
20166TIP3   OH281988   4.369   4.615  11.802 -0.3488  0.1054 -0.4056
20166TIP3    H181989   4.349   4.523  11.821 -0.6703 -0.3402 -2.7046
20166TIP3    H281990   4.284   4.658  11.799 -0.2065  0.4688  0.5336
20167TIP3   OH281991   6.818   0.562   5.613  0.2372  0.1023 -0.2368
20167TIP3    H181992   6.727   0.560   5.584 -0.3727 -0.1486  1.6405
20167TIP3    H281993   6.814   0.542   5.707  2.0679  1.5686  0.1945
20168TIP3   OH281994   6.661   4.417  15.261 -0.1165  0.2908 -0.4574
20168TIP3    H181995   6.684   4.475  15.188 -0.2142 -0.0502 -0.7621
20168TIP3    H281996   6.697   4.332  15.236 -0.4748  0.0878 -0.2814
20169TIP3   OH281997   4.480   3.793   4.562  0.0521 -0.6366  0.4783
20169TIP3    H181998   4.436   3.779   4.478 -0.8845 -0.2395  0.8977
20169TIP3    H281999   4.509   3.706   4.589 -0.8206 -0.9555  0.3905
20170TIP3   OH282000   2.867   1.637   5.003  0.1119 -0.7210 -0.1059
20170TIP3    H182001   2.924   1.605   4.932  1.5257  0.4350  0.4807
20170TIP3    H282002   2.928   1.658   5.074 -1.0163  0.9477  0.3849
20171TIP3   OH282003   3.320   5.828   4.857  0.8013  0.6967 -0.6912
20171TIP3    H182004   3.243   5.833   4.799 -0.5237 -1.2449  0.8360
20171TIP3    H282005   3.346   5.919   4.870 -0.0640  1.2800 -2.7473
20172TIP3   OH282006   0.082   4.536   5.197 -0.2127 -0.5493 -0.7955
20172TIP3    H182007   0.044   4.449   5.206 -2.5628  0.4605 -0.4135
20172TIP3    H282008   0.050   4.568   5.113  0.4287  0.0217 -0.8229
20173TIP3   OH282009   2.378   6.790  11.464 -0.3873  0.0093  0.1523
20173TIP3    H182010   2.450   6.731  11.440 -2.0252 -1.7089 -0.5859
20173TIP3    H282011   2.377   6.856  11.394 -1.1509 -1.4246 -1.2145
20174TIP3   OH282012   0.745   1.523   4.340 -0.5097 -0.2210  0.1462
20174TIP3    H182013   0.706   1.562   4.418  0.8948 -0.7865  1.1607
20174TIP3    H282014   0.682   1.457   4.312 -0.8614 -0.2565  1.0073
20175TIP3   OH282015   5.352   0.397  12.127  0.2179 -0.1062  0.3390
20175TIP3    H182016   5.441   0.398  12.162  0.7408  0.0518 -0.9848
20175TIP3    H282017   5.346   0.475  12.072 -1.2790  0.7769  1.7093
20176TIP3   OH282018   5.424   2.159  11.867  0.3760 -0.0156  0.5757
20176TIP3    H182019   5.394   2.136  11.954 -1.0117 -0.5937 -0.0414
20176TIP3    H282020   5.462   2.078  11.832  1.3933  0.3477  0.8320
20177TIP3   OH282021   3.770   4.938  10.696 -0.3007  0.3960 -0.5994
20177TIP3    H182022   3.693   4.937  10.754 -0.8146  0.0988 -1.2741
20177TIP3    H282023   3.796   4.847  10.689  0.4621  0.5546  0.0662
20178TIP3   OH282024   5.989   6.255   3.091  0.5088  0.3214 -0.0410
20178TIP3    H182025   5.979   6.348   3.112 -0.6295  0.9021 -2.9194
20178TIP3    H282026   5.948   6.209   3.164 -0.3803  2.1409  0.6327
20179TIP3   OH282027   3.778   2.339  12.602 -0.0714 -0.0107 -0.4150
20179TIP3    H182028   3.850   2.400  12.617  0.7750 -0.9543 -0.5445
20179TIP3    H282029   3.775   2.329  12.507 -1.4671  1.3050 -0.5199
20180TIP3   OH282030   2.270   5.057   4.833 -0.5055 -0.4178 -0.1726
20180TIP3    H182031   2.257   5.113   4.756  0.0061  1.0975  0.8221
20180TIP3    H282032   2.364   5.059   4.848 -0.5160 -1.3360  0.0399
20181TIP3   OH282033   1.515   6.155   5.321 -0.2284 -0.4603  0.0892
20181TIP3    H182034   1.472   6.091   5.265  0.7012 -1.5315  0.5706
20181TIP3    H282035   1.461   6.158   5.400  0.6635 -1.9686  0.7836
20182TIP3   OH282036   1.315   6.461  15.614 -0.7904 -0.0432  0.1414
20182TIP3    H182037   1.328   6.379  15.662  0.4366  0.9750  1.5949
20182TIP3    H282038   1.377   6.456  15.541 -1.3920 -0.8066 -0.3319
20183TIP3   OH282039   1.490   3.978  13.449  0.7064 -0.0323  0.1526
20183TIP3    H182040   1.457   3.941  13.530  0.1526  0.1724  0.0223
20183TIP3    H282041   1.428   4.047  13.427 -0.4013 -1.5073 -1.5853
20184TIP3   OH282042   1.938   2.353   2.418 -0.2865 -0.1654 -0.0658
20184TIP3    H182043   1.909   2.369   2.328  0.6588  0.5442 -0.2534
20184TIP3    H282044   2.015   2.297   2.408 -0.7145 -0.8350  0.3554
20185TIP3   OH282045   3.558   5.371  14.472 -0.3640 -0.7152 -0.5463
20185TIP3    H182046   3.579   5.299  14.531 -0.8621 -1.4475 -1.2692
20185TIP3    H282047   3.466   5.359  14.450 -0.6661  0.5979 -0.0329
20186TIP3   OH282048   5.821   0.021  15.254  0.3813  0.5151 -0.1447
20186TIP3    H182049   5.859  -0.049  15.201  1.9789  1.3689 -0.1390
20186TIP3    H282050   5.818  -0.014  15.343  1.1426  0.4398 -0.1481
20187TIP3   OH282051   3.190   6.291  13.614 -0.4504  0.1966  0.8292
20187TIP3    H182052   3.131   6.275  13.688 -0.0193 -1.0275  0.9235
20187TIP3    H282053   3.267   6.333  13.654  0.1193 -1.1811  1.2111
20188TIP3   OH282054   2.879   3.437   1.488  0.2498  0.3956 -0.4737
20188TIP3    H182055   2.931   3.428   1.407  0.2387 -0.0045 -0.4370
20188TIP3    H282056   2.939   3.479   1.550 -0.1340  1.8686 -1.0619
20189TIP3   OH282057   2.333   2.626  14.124  0.3233  0.3432  0.7905
20189TIP3    H182058   2.373   2.570  14.190  1.9919 -0.9400 -1.2413
20189TIP3    H282059   2.382   2.708  14.128  2.4282 -0.7941 -0.8567
20190TIP3   OH282060   5.359   0.083  15.847  0.1922 -0.1054 -0.2151
20190TIP3    H182061   5.381   0.028  15.772  3.5060  1.2177 -0.2728
20190TIP3    H282062   5.338   0.168  15.809  0.6781  0.2332  0.2788
20191TIP3   OH282063   6.357   3.824  15.501 -0.5322 -0.1131  0.2151
20191TIP3    H182064   6.345   3.765  15.427  1.5466 -1.5061  0.9262
20191TIP3    H282065   6.448   3.852  15.495 -0.5449  0.3387  1.7929
20192TIP3   OH282066   0.536   1.287   4.517 -0.2868 -0.3750  0.3810
20192TIP3    H182067   0.519   1.240   4.599  0.8062 -1.5658 -0.0560
20192TIP3    H282068   0.543   1.379   4.543  1.6452 -0.9050  1.9000
20193TIP3   OH282069   1.278   6.297  14.111  0.2368 -0.2490  0.0973
20193TIP3    H182070   1.208   6.235  14.130  0.7115 -0.6799  0.4645
20193TIP3    H282071   1.358   6.249  14.133  0.8276 -0.8610 -3.1532
20194TIP3   OH282072   0.282   4.688  15.420 -0.1220  0.2940 -0.5019
20194TIP3    H182073   0.205   4.699  15.476 -0.5133  2.3886 -1.3801
20194TIP3    H282074   0.258   4.731  15.338  1.3342 -0.5929 -1.4133
20195TIP3   OH282075   5.926   6.780   2.588 -0.3463 -0.4828 -0.6297
20195TIP3    H182076   5.921   6.730   2.669 -0.4281 -1.6585 -1.3447
20195TIP3    H282077   6.007   6.750   2.546  1.1560  2.1404  0.3058
20196TIP3   OH282078   0.740   5.827  14.491  0.3916 -0.0830 -0.3801
20196TIP3    H182079   0.734   5.894  14.423  1.4417 -0.2724 -0.6682
20196TIP3    H282080   0.741   5.875  14.573  2.2893  0.3298 -0.6275
20197TIP3   OH282081   6.397   5.713   0.918 -0.6857  0.7746  0.0432
20197TIP3    H182082   6.310   5.703   0.879 -0.8967  0.9260  0.4647
20197TIP3    H282083   6.442   5.631   0.899 -0.7437  0.8920 -0.6134
20198TIP3   OH282084   1.674   2.425   5.067  0.3332  0.5250  0.0045
20198TIP3    H182085   1.668   2.401   5.160  0.0748 -1.9125 -0.5994
20198TIP3    H282086   1.615   2.365   5.023  2.9511 -0.6110 -2.1066
20199TIP3   OH282087   0.764   5.293   4.075  0.1690 -0.0624 -0.4438
20199TIP3    H182088   0.767   5.366   4.013  1.0598  0.3275  0.0446
20199TIP3    H282089   0.731   5.331   4.156 -1.7748 -0.7427 -0.8860
20200TIP3   OH282090   4.315   0.031  14.002 -0.3316 -0.6467  0.3254
20200TIP3    H182091   4.353   0.101  14.055 -1.0270  0.5891 -0.8043
20200TIP3    H282092   4.386  -0.034  13.995  1.1256  1.0009 -0.6056
20201TIP3   OH282093   1.585   0.445   1.594  0.4547  0.6584  0.4090
20201TIP3    H182094   1.532   0.507   1.645 -1.1152 -0.7677  0.5727
20201TIP3    H282095   1.671   0.446   1.636  0.3454  2.4497  0.6235
20202TIP3   OH282096   5.856   0.911   2.081 -0.1724  0.3288  0.0365
20202TIP3    H182097   5.831   0.823   2.052  0.4067 -0.0812  0.7472
20202TIP3    H282098   5.859   0.963   2.001  0.1913 -0.4815 -0.4792
20203TIP3   OH282099   4.149   5.925   5.484  0.0388 -0.7719  0.2781
20203TIP3    H182100   4.108   5.885   5.407 -0.6745 -0.1284  0.3164
20203TIP3    H282101   4.222   5.977   5.448  0.0882 -0.9656  0.0981
20204TIP3   OH282102   0.114   1.186  16.193 -0.2992  0.0839 -0.1389
20204TIP3    H182103   0.089   1.126  16.122  0.2106  1.9711 -1.9354
20204TIP3    H282104   0.032   1.199  16.242 -0.6129 -1.3840 -0.2238
20205TIP3   OH282105   3.596   2.586   3.253  0.3863 -0.1725  0.3451
20205TIP3    H182106   3.542   2.524   3.302  0.2421  0.8428  1.4920
20205TIP3    H282107   3.655   2.532   3.201 -1.0395 -1.2856 -0.1378
20206TIP3   OH282108   2.859   1.330   5.346  0.0577 -0.6187 -0.3253
20206TIP3    H182109   2.845   1.332   5.441 -1.9256  1.4536 -0.6248
20206TIP3    H282110   2.924   1.261   5.333 -1.3073 -2.5006  2.3264
20207TIP3   OH282111   4.441   1.990   5.588 -0.1863  0.1922 -0.2277
20207TIP3    H182112   4.471   1.922   5.529  0.2534  0.2392 -0.0592
20207TIP3    H282113   4.414   1.944   5.667 -2.1739 -0.0168 -0.9972
20208TIP3   OH282114   3.437   5.553   1.536 -0.2881  0.2243 -0.0408
20208TIP3    H182115   3.385   5.625   1.571  2.4825  2.3590 -0.1277
20208TIP3    H282116   3.406   5.476   1.584 -0.6005  2.1252  2.9715
20209TIP3   OH282117   0.035   2.379   5.899  0.2775  0.5790 -0.1929
20209TIP3    H182118   0.011   2.395   5.990  1.4522 -0.4915  0.3237
20209TIP3    H282119   0.053   2.466   5.863  0.4610  0.9531  0.7894
20210TIP3   OH282120   3.622   4.746   2.431 -0.4872 -0.4978 -0.0215
20210TIP3    H182121   3.717   4.753   2.431 -0.4255 -1.1956 -1.1229
20210TIP3    H282122   3.595   4.775   2.344 -1.3733  0.7017  0.6314
20211TIP3   OH282123   3.204   4.994   5.126  1.0253 -0.4661  0.7157
20211TIP3    H182124   3.129   5.019   5.072  1.1902 -0.9626  0.2541
20211TIP3    H282125   3.189   4.901   5.146  1.7310 -0.6801  0.2655
20212TIP3   OH282126   3.334   3.896   5.126 -0.6712 -0.1643 -0.6754
20212TIP3    H182127   3.242   3.870   5.130 -0.7952 -0.0990 -2.5956
20212TIP3    H282128   3.332   3.989   5.106 -0.1837  0.0155  0.0915
20213TIP3   OH282129   1.791   0.103   3.125  0.8143  0.6308 -0.0830
20213TIP3    H182130   1.865   0.081   3.067  1.3297 -1.4437  1.3043
20213TIP3    H282131   1.720   0.124   3.065  1.6122 -0.5309 -1.4865
20214TIP3   OH282132   4.533   3.043   0.936  0.0098  0.4625  0.5881
20214TIP3    H182133   4.541   3.050   1.031 -0.8085  1.4328  0.6034
20214TIP3    H282134   4.442   3.015   0.922 -0.4241  2.0811  0.0460
20215TIP3   OH282135   4.474   5.962  13.950  0.1573 -0.0715 -0.0472
20215TIP3    H182136   4.463   6.021  14.024  2.4289 -0.7079  0.8357
20215TIP3    H282137   4.388   5.923  13.938 -0.5682  1.0188  1.4109
20216TIP3   OH282138   2.258   6.593   3.361  0.0329 -0.2886  0.0759
20216TIP3    H182139   2.195   6.625   3.296 -1.7179 -2.5572  0.6140
20216TIP3    H282140   2.320   6.540   3.310  0.4713  0.4487 -0.1746
20217TIP3   OH282141   1.231   4.218  12.082 -0.7674  0.2745  0.2360
20217TIP3    H182142   1.193   4.296  12.042 -1.7206 -0.6624 -0.7161
20217TIP3    H282143   1.262   4.248  12.168  1.0791  2.2520 -1.0718
20218TIP3   OH282144   0.573   4.387  16.895  0.8079 -0.7303 -0.6385
20218TIP3    H182145   0.574   4.465  16.840  0.4977 -0.0688  0.2960
20218TIP3    H282146   0.583   4.314  16.833 -0.0234 -0.0235 -1.6192
20219TIP3   OH282147   4.579   1.317   4.073  0.2569  0.6035  0.5497
20219TIP3    H182148   4.573   1.408   4.101 -3.0399  1.7237 -3.3084
20219TIP3    H282149   4.600   1.321   3.980 -0.1687 -2.5669  0.2457
20220TIP3   OH282150   4.166   1.717   1.570 -0.2258 -0.3362 -0.4240
20220TIP3    H182151   4.088   1.709   1.515  0.2170  0.1971 -1.1334
20220TIP3    H282152   4.234   1.670   1.523  0.1822  0.2189 -0.3945
20221TIP3   OH282153   2.395   6.317   5.477  0.0861  0.3911 -0.3740
20221TIP3    H182154   2.460   6.387   5.465  1.1567 -0.5892 -0.4152
20221TIP3    H282155   2.432   6.262   5.547  0.3906 -1.4029 -1.8929
20222TIP3   OH282156   0.194   4.879   4.196  0.0953  0.0725 -0.1002
20222TIP3    H182157   0.127   4.901   4.260 -0.4706 -0.3290 -0.5594
20222TIP3    H282158   0.276   4.882   4.246 -0.0751  2.0825  0.1310
20223TIP3   OH282159   3.256   3.487   5.848 -0.4211 -0.3031 -0.0737
20223TIP3    H182160   3.231   3.575   5.822  0.8259 -0.3039 -1.3313
20223TIP3    H282161   3.173   3.439   5.852 -1.1600  1.0429  1.1611
20224TIP3   OH282162   4.988   2.557   1.156  0.2333  0.3170 -0.4436
20224TIP3    H182163   4.990   2.472   1.112  0.2135 -0.5195  1.1244
20224TIP3    H282164   4.958   2.618   1.089  0.3791 -0.8872 -1.6337
20225TIP3   OH282165   3.822   0.658  16.249  0.2498  0.0158  0.0312
20225TIP3    H182166   3.863   0.717  16.312  0.1534 -0.3075  0.4030
20225TIP3    H282167   3.810   0.711  16.170  0.9179  0.2508  0.0861
20226TIP3   OH282168   4.708   6.486  16.968 -0.3132  0.3148  0.3638
20226TIP3    H182169   4.773   6.445  16.912 -0.6343 -1.0076  0.9384
20226TIP3    H282170   4.656   6.540  16.909  0.1642 -0.0549 -0.3936
20227TIP3   OH282171   5.117   5.817   5.692 -0.2958 -0.2818  0.8670
20227TIP3    H182172   5.086   5.906   5.708  0.7012  0.3867 -0.7941
20227TIP3    H282173   5.120   5.776   5.778  1.6242  2.0738  1.9472
20228TIP3   OH282174   2.244   5.530   0.079 -0.2317 -0.4270 -0.5387
20228TIP3    H182175   2.241   5.437   0.104 -0.5254  0.0751  1.3955
20228TIP3    H282176   2.187   5.536   0.003  1.0920 -2.1252 -1.7090
20229TIP3   OH282177   3.030   6.177   0.477 -0.0394  0.1117 -0.0354
20229TIP3    H182178   3.045   6.129   0.396 -1.3256  1.5822 -1.1620
20229TIP3    H282179   2.935   6.179   0.488  0.0919  0.5023  1.1400
20230TIP3   OH282180   1.177   5.254   2.602 -0.0297 -0.1930 -0.4231
20230TIP3    H182181   1.174   5.160   2.586 -0.7460 -0.1494 -0.5721
20230TIP3    H282182   1.262   5.269   2.644 -0.6213 -1.1573  1.1640
20231TIP3   OH282183   2.865   5.488   2.082 -0.4820 -0.6061 -0.2484
20231TIP3    H182184   2.894   5.407   2.124  3.1862  0.3586 -0.6840
20231TIP3    H282185   2.856   5.550   2.153 -1.4949 -0.9072 -0.1116
20232TIP3   OH282186   3.525   1.667   3.710 -0.3764 -0.0523  0.2993
20232TIP3    H182187   3.599   1.727   3.714  1.1021 -1.7244 -1.2518
20232TIP3    H282188   3.533   1.613   3.788  0.2306 -0.4482 -0.0373
20233TIP3   OH282189   6.103   1.254  16.479  0.3970  0.4559  0.7691
20233TIP3    H182190   6.135   1.295  16.398 -0.5086 -0.4832 -0.0748
20233TIP3    H282191   6.008   1.255  16.470  0.3208 -0.4381  1.4355
20234TIP3   OH282192   3.323   0.458  11.545 -0.3845  0.0204  0.4372
20234TIP3    H182193   3.310   0.363  11.535 -0.3703  0.0042  0.5717
20234TIP3    H282194   3.237   0.491  11.572 -1.3652  0.5427 -3.0115
20235TIP3   OH282195   1.002   2.413  12.373 -0.6387 -0.7588  0.2499
20235TIP3    H182196   1.087   2.433  12.412 -0.4658  1.0081 -0.9739
20235TIP3    H282197   1.004   2.319  12.359  1.2047 -0.7205  0.0736
20236TIP3   OH282198   4.806   5.292  14.544 -0.1741 -0.6775  0.0017
20236TIP3    H182199   4.817   5.286  14.449 -0.3509  1.4226 -0.1905
20236TIP3    H282200   4.757   5.213  14.568  0.9025 -1.8109 -1.4781
20237TIP3   OH282201   4.857   1.154  12.093  0.0524  0.4599 -0.5013
20237TIP3    H182202   4.909   1.128  12.018 -0.7460 -1.7462 -0.3324
20237TIP3    H282203   4.777   1.101  12.087 -1.0930  1.9905  0.5785
20238TIP3   OH282204   6.137   3.928  17.210 -0.0866  0.7016  0.3458
20238TIP3    H182205   6.198   3.974  17.153  0.9348 -1.5437 -0.4410
20238TIP3    H282206   6.056   3.921  17.159  0.9760 -1.7280 -1.0860
20239TIP3   OH282207   2.982   2.018  14.971  0.2181  0.1577 -0.1715
20239TIP3    H182208   2.961   2.033  15.063 -0.2630  1.9949 -0.5465
20239TIP3    H282209   3.033   1.938  14.970  0.6975  0.4240  1.7563
20240TIP3   OH282210   3.928   4.557   1.254  0.0408 -0.1622 -0.2078
20240TIP3    H182211   3.855   4.560   1.316  0.7956 -0.1632  0.6763
20240TIP3    H282212   4.002   4.524   1.304  0.3715 -1.2711 -1.4032
20241TIP3   OH282213   6.454   5.003   1.060  0.0974 -0.0955  0.3768
20241TIP3    H182214   6.527   5.063   1.049  0.7355 -1.1866 -1.4160
20241TIP3    H282215   6.486   4.938   1.123 -0.5827  1.3604  2.2953
20242TIP3   OH282216   4.214   6.676  11.449 -0.1692  0.0472  0.2041
20242TIP3    H182217   4.172   6.693  11.364  0.7878 -1.9452 -0.7132
20242TIP3    H282218   4.290   6.622  11.427  0.7675  0.5128  2.2309
20243TIP3   OH282219   2.191   0.183   4.877  0.3039  0.2236  0.3157
20243TIP3    H182220   2.148   0.110   4.921 -0.5201  0.3920 -0.2114
20243TIP3    H282221   2.141   0.261   4.902  0.1322  0.3885 -0.4980
20244TIP3   OH282222   1.421   6.474  13.718  0.4594 -0.1785  0.4646
20244TIP3    H182223   1.448   6.540  13.655  0.0343 -1.4882 -1.0995
20244TIP3    H282224   1.329   6.493  13.736  0.0087 -1.0518 -0.8826
20245TIP3   OH282225   3.937   0.859  16.429 -0.4852 -0.3338  0.2026
20245TIP3    H182226   3.869   0.921  16.455 -0.2395 -0.4991  1.2573
20245TIP3    H282227   4.005   0.870  16.495  0.8732  0.4090 -1.2978
20246TIP3   OH282228   3.577   0.880  14.577 -0.1312 -0.0259 -0.1026
20246TIP3    H182229   3.532   0.888  14.493 -0.8575 -1.1881  0.1612
20246TIP3    H282230   3.670   0.882  14.555 -0.3191  0.3102 -0.8732
20247TIP3   OH282231   3.460   4.292  17.285  0.3056 -0.0468 -0.3518
20247TIP3    H182232   3.456   4.243  17.367  0.9886  0.6966  0.1363
20247TIP3    H282233   3.541   4.341  17.290 -1.3648  2.7880  0.1301
20248TIP3   OH282234   6.819   0.818   3.319 -0.2023  0.3666  0.6058
20248TIP3    H182235   6.772   0.846   3.398 -0.7014  0.1054  0.4090
20248TIP3    H282236   6.771   0.741   3.289  0.2138  0.2387  0.2612
20249TIP3   OH282237   4.231   1.820   3.053  0.0411 -0.2371 -0.0860
20249TIP3    H182238   4.287   1.762   3.002  0.4274  1.4551 -1.6670
20249TIP3    H282239   4.286   1.850   3.125  1.2292  1.3876 -1.6123
20250TIP3   OH282240   3.300   1.134  11.212  0.6992 -0.1556  0.3248
20250TIP3    H182241   3.373   1.101  11.161 -0.5912 -2.4257 -0.1133
20250TIP3    H282242   3.222   1.107  11.163 -0.4593  3.3082  0.1105
20251TIP3   OH282243   0.978   6.166   1.711 -0.3953  0.2566  0.6167
20251TIP3    H182244   0.911   6.168   1.780 -1.1108  0.0210 -0.0626
20251TIP3    H282245   0.987   6.073   1.690  0.8848  0.1880  1.4047
20252TIP3   OH282246   2.498   3.407  10.779 -0.4233 -0.6811 -0.1284
20252TIP3    H182247   2.408   3.425  10.752 -0.7274 -2.6963 -0.5507
20252TIP3    H282248   2.547   3.400  10.697  0.1406  0.3972  0.1010
20253LIG     O182249   1.757   4.918  16.746 -0.9277 -0.8231 -1.4248
20253LIG     O282250   1.721   5.040  16.545  0.2758  0.0711  0.5548
20253LIG     O382251   1.823   4.847  16.447 -0.1260 -0.4334  0.4431
20253LIG     O482252   1.719   5.215  16.860 -0.7374 -0.3400  0.8051
20253LIG     O582253   2.000   5.172  16.850  0.2679  0.1163  0.5587
20253LIG     O682254   1.475   4.984  16.389 -1.3710  0.3319 -0.1323
20253LIG     O782255   1.700   5.137  16.268  0.5636  0.4760 -0.0065
20253LIG     O882256   1.885   5.004  16.111 -0.2101 -0.0039  0.0203
20253LIG     O982257   1.462   5.124  16.634 -0.6596 -0.7534 -0.2181
20253LIG    O1082258   2.004   4.792  16.690  0.0666 -0.0426  0.0359
20253LIG    O1182259   2.112   4.848  16.433  0.0220 -0.3236  0.6901
20253LIG     C182260   1.694   5.032  16.689  0.2348 -0.0755  0.6306
20253LIG     C282261   1.776   5.154  16.741  0.0846  0.2070 -0.1230
20253LIG     C382262   1.915   5.095  16.758  0.9008  0.0847  0.2326
20253LIG     C482263   1.877   4.953  16.819  0.0942  0.2541  0.0231
20253LIG     C582264   1.700   4.914  16.484 -0.6227  0.1028  0.2373
20253LIG     C682265   1.609   4.934  16.362 -0.3547 -0.1354  0.0512
20253LIG     C782266   1.678   4.994  16.239 -0.2893 -0.0202 -0.1486
20253LIG     C882267   1.814   4.926  16.214 -0.4331  0.7086  0.0146
20253LIG     C982268   1.894   4.919  16.345  0.2308 -0.3272  0.3423
20253LIG    C1082269   1.540   5.030  16.715  0.5274 -0.1702  0.1727
20253LIG    C1182270   1.978   4.845  16.820 -0.2509  0.4223 -0.1303
20253LIG    C1282271   2.023   4.843  16.320 -0.1572  0.3082  0.3219
20253LIG     H182272   1.783   5.239  16.672 -0.4194 -1.0400 -1.7509
20253LIG     H282273   1.960   5.089  16.658 -0.1277  0.5007 -0.2574
20253LIG     H382274   1.844   4.974  16.922 -0.4693  1.0514 -0.3163
20253LIG     H482275   1.662   4.836  16.553  1.5272 -2.9678 -1.9508
20253LIG     H582276   1.576   4.830  16.343  0.7334 -0.6658  1.0121
20253LIG     H682277   1.614   4.978  16.150  0.2638 -1.0564 -0.3625
20253LIG     H782278   1.794   4.826  16.170 -1.4869  1.5460 -1.4752
20253LIG     H882279   1.926   5.021  16.376  0.9068 -0.1504 -0.8760
20253LIG     H982280   1.497   4.929  16.698 -3.3955  0.9536  2.7062
20253LIG    H1082281   1.527   5.049  16.823  3.4898  0.7374  0.4021
20253LIG    H1182282   2.075   4.885  16.855  0.1881 -2.0936  1.6649
20253LIG    H1282283   1.946   4.759  16.884  3.3568 -0.2626  0.8474
20253LIG    H1382284   2.005   4.735  16.299  0.1551  0.6569 -1.8595
20253LIG    H1482285   2.075   4.880  16.229  0.5206 -0.0013  0.5788
20253LIG    H1582286   1.787   5.251  16.918  1.1327  0.2732 -1.6833
20253LIG    H1682287   2.018   5.257  16.810 -1.2807  0.7966  1.2646
20253LIG    H1782288   1.491   5.044  16.462 -1.9828 -2.3200  2.2639
20253LIG    H1882289   1.764   5.165  16.201 -0.9697  2.1129 -0.8230
20253LIG    H1982290   1.951   4.941  16.080 -0.6406 -0.3813 -0.1328
20253LIG    H2082291   1.372   5.137  16.665 -0.1055  2.6684  0.1824
20253LIG    H2182292   1.922   4.745  16.673 -0.1265 -0.8385  2.7658
20253LIG    H2282293   2.070   4.798  16.503 -1.8474  1.6968  1.0955
   6.82013   6.82013  17.29240
